 Gaussian 16, Revision A.03,

 -----------------------------------------------------------
 # opt freq B3LYP/6-31G(d) empiricaldispersion=gd3bj scf=xqc
 -----------------------------------------------------------

 -------------------------------
 CID_152536374_JID_6634_neutraal
 -------------------------------
 Symbolic Z-matrix:
 Charge =  0 Multiplicity = 1

 SCF Done:  E(RB3LYP) =  -1148.54228351     A.U. after   16 cycles
 SCF Done:  E(RB3LYP) =  -1148.55300938     A.U. after   14 cycles
 SCF Done:  E(RB3LYP) =  -1148.55544272     A.U. after   14 cycles
 SCF Done:  E(RB3LYP) =  -1148.55704121     A.U. after   14 cycles
 SCF Done:  E(RB3LYP) =  -1148.55752840     A.U. after   14 cycles
 SCF Done:  E(RB3LYP) =  -1148.55766094     A.U. after   13 cycles
 SCF Done:  E(RB3LYP) =  -1148.55781698     A.U. after   12 cycles
 SCF Done:  E(RB3LYP) =  -1148.55788876     A.U. after   13 cycles
 SCF Done:  E(RB3LYP) =  -1148.55790454     A.U. after   12 cycles
 SCF Done:  E(RB3LYP) =  -1148.55791075     A.U. after   11 cycles
 SCF Done:  E(RB3LYP) =  -1148.55791273     A.U. after    8 cycles
 SCF Done:  E(RB3LYP) =  -1148.55791273     A.U. after    8 cycles
 SCF Done:  E(RB3LYP) =  -1148.55791269     A.U. after    8 cycles
 SCF Done:  E(RB3LYP) =  -1148.55791266     A.U. after    7 cycles
 SCF Done:  E(RB3LYP) =  -1148.55791261     A.U. after    7 cycles
 SCF Done:  E(RB3LYP) =  -1148.55791257     A.U. after    7 cycles
 Optimization completed.
    -- Stationary point found.
 Normal termination of Gaussian 16 at Thu Dec 10 23:58:11 2020.

 --------------------------------------------------------------------
 #N Geom=AllCheck Guess=TCheck SCRF=Check GenChk RB3LYP/6-31G(d) Freq
 --------------------------------------------------------------------

 Structure from the checkpoint file:  "JID_6634.chk"
 -------------------------------
 CID_152536374_JID_6634_neutraal
 -------------------------------
 Charge =  0 Multiplicity = 1

 SCF Done:  E(RB3LYP) =  -1148.55791257     A.U. after    1 cycles

  Exact polarizability: 194.525  -5.569  95.344  -7.541   3.190 117.263
 Approx polarizability: 246.274  -5.031 158.323 -23.043   2.113 229.579

                      1                      2                      3
                      A                      A                      A
 Frequencies --     23.0585                26.3771                33.7134
 Red. masses --      3.9609                 8.7154                 8.6283
 Frc consts  --      0.0012                 0.0036                 0.0058
 IR Inten    --      1.8700                 1.5740                 1.0480

                      4                      5                      6
                      A                      A                      A
 Frequencies --     61.8881                71.0071                91.4360
 Red. masses --     10.3419                 4.9136                 8.5526
 Frc consts  --      0.0233                 0.0146                 0.0421
 IR Inten    --      1.0256                 3.4552                 1.2397

                      7                      8                      9
                      A                      A                      A
 Frequencies --    148.0353               186.9300               196.5273
 Red. masses --      8.0357                 3.6612                 1.4749
 Frc consts  --      0.1038                 0.0754                 0.0336
 IR Inten    --      0.2682                 0.6328                 1.3498

                     10                     11                     12
                      A                      A                      A
 Frequencies --    227.8488               250.9892               278.0858
 Red. masses --      2.5018                 3.9992                 9.9281
 Frc consts  --      0.0765                 0.1484                 0.4524
 IR Inten    --      3.4832                 2.1602                 7.3639

                     13                     14                     15
                      A                      A                      A
 Frequencies --    326.4827               338.5124               381.4554
 Red. masses --      6.5554                 8.3453                 6.7526
 Frc consts  --      0.4117                 0.5634                 0.5789
 IR Inten    --      0.8982                 3.6847                 3.5169

                     16                     17                     18
                      A                      A                      A
 Frequencies --    414.0398               478.1475               494.5050
 Red. masses --      4.5166                 7.1210                 6.4333
 Frc consts  --      0.4562                 0.9592                 0.9269
 IR Inten    --     13.6006                 6.6488                12.3504

                     19                     20                     21
                      A                      A                      A
 Frequencies --    554.2079               557.6192               584.7663
 Red. masses --      7.2805                12.0687                 6.2111
 Frc consts  --      1.3175                 2.2110                 1.2514
 IR Inten    --     18.1864                13.3070                 6.5253

                     22                     23                     24
                      A                      A                      A
 Frequencies --    597.6103               674.9984               685.7283
 Red. masses --      5.5462                 7.4781                 6.5378
 Frc consts  --      1.1670                 2.0075                 1.8113
 IR Inten    --      5.3331                14.4020                 3.1232

                     25                     26                     27
                      A                      A                      A
 Frequencies --    705.7054               722.9038               750.0887
 Red. masses --      9.1963                 6.1962                 1.2243
 Frc consts  --      2.6984                 1.9078                 0.4059
 IR Inten    --     26.0585                 0.9921                40.8989

                     28                     29                     30
                      A                      A                      A
 Frequencies --    796.8397               849.3607               850.4628
 Red. masses --      4.5682                 1.6571                 2.9807
 Frc consts  --      1.7090                 0.7043                 1.2702
 IR Inten    --     13.6642                35.7543                71.7454

                     31                     32                     33
                      A                      A                      A
 Frequencies --    940.8443               982.5132               991.1811
 Red. masses --      8.0326                 6.9521                 5.4091
 Frc consts  --      4.1893                 3.9541                 3.1310
 IR Inten    --     45.4885                 8.3733                 3.3769

                     34                     35                     36
                      A                      A                      A
 Frequencies --    995.2724              1005.6897              1011.2881
 Red. masses --      1.1813                 3.1335                 1.5302
 Frc consts  --      0.6894                 1.8673                 0.9220
 IR Inten    --      5.1563               104.2879                24.8007

                     37                     38                     39
                      A                      A                      A
 Frequencies --   1041.9755              1043.1863              1073.1947
 Red. masses --      2.0644                 3.9778                 1.6705
 Frc consts  --      1.3206                 2.5505                 1.1336
 IR Inten    --     11.8529                20.5150                83.1842

                     40                     41                     42
                      A                      A                      A
 Frequencies --   1091.4846              1164.9299              1211.3417
 Red. masses --      2.7118                 2.8117                 2.0360
 Frc consts  --      1.9034                 2.2481                 1.7602
 IR Inten    --      0.2888                62.1690                47.1899

                     43                     44                     45
                      A                      A                      A
 Frequencies --   1240.0952              1308.3773              1317.5506
 Red. masses --      1.5026                 1.4008                 2.0385
 Frc consts  --      1.3615                 1.4129                 2.0849
 IR Inten    --      2.7600                 4.3360                54.8681

                     46                     47                     48
                      A                      A                      A
 Frequencies --   1323.8605              1360.8952              1376.0243
 Red. masses --      4.3496                 2.8668                 4.0628
 Frc consts  --      4.4914                 3.1282                 4.5324
 IR Inten    --      5.2016                56.0517                75.8438

                     49                     50                     51
                      A                      A                      A
 Frequencies --   1392.6284              1394.0772              1420.8435
 Red. masses --      1.2863                 1.4689                 4.3316
 Frc consts  --      1.4698                 1.6820                 5.1522
 IR Inten    --      2.0579                17.3125                23.3724

                     52                     53                     54
                      A                      A                      A
 Frequencies --   1492.9357              1500.2206              1517.6263
 Red. masses --      5.4815                 1.0518                 1.0585
 Frc consts  --      7.1983                 1.3948                 1.4364
 IR Inten    --      7.7893                 9.3030                33.5703

                     55                     56                     57
                      A                      A                      A
 Frequencies --   1523.6094              1571.6411              1877.9410
 Red. masses --      1.1180                 5.7704                13.1359
 Frc consts  --      1.5292                 8.3977                27.2944
 IR Inten    --      2.1245               105.6026               163.7625

                     58                     59                     60
                      A                      A                      A
 Frequencies --   2269.5685              3034.9052              3068.0868
 Red. masses --     13.9329                 1.0696                 1.0301
 Frc consts  --     42.2842                 5.8046                 5.7133
 IR Inten    --    456.1805                42.8456                22.8821

                     61                     62                     63
                      A                      A                      A
 Frequencies --   3098.9637              3152.0203              3165.0113
 Red. masses --      1.0837                 1.1085                 1.1040
 Frc consts  --      6.1317                 6.4888                 6.5156
 IR Inten    --      8.6737                 9.1071                 4.1945

                     64                     65                     66
                      A                      A                      A
 Frequencies --   3165.4361              3292.0706              3308.9664
 Red. masses --      1.0983                 1.0909                 1.1058
 Frc consts  --      6.4841                 6.9662                 7.1335
 IR Inten    --      8.8799                 0.7201                 0.1045

 - Thermochemistry -
 -------------------
 Temperature   298.150 Kelvin.  Pressure   1.00000 Atm.
 Atom     1 has atomic number  6 and mass  12.00000

 Molecular mass:   240.04295 amu.
 Principal axes and moments of inertia in atomic units:
                           1         2         3
     Eigenvalues --  1309.477728444.488498529.75118
           X            0.99992  -0.00607   0.01111
           Y            0.00543   0.99837   0.05682
           Z           -0.01144  -0.05675   0.99832
 This molecule is an asymmetric top.
 Rotational symmetry number  1.
 Warning -- assumption of classical behavior for rotation
           may cause significant error
 Rotational temperatures (Kelvin)      0.06614     0.01026     0.01015
 Rotational constants (GHZ):           1.37821     0.21372     0.21158
 Zero-point vibrational energy     443130.2 (Joules/Mol)
                                  105.91066 (Kcal/Mol)
 Warning -- explicit consideration of  22 degrees of freedom as
           vibrations may cause significant error
 Vibrational temperatures:     33.18    37.95    48.51    89.04   102.16
          (Kelvin)            131.56   212.99   268.95   282.76   327.82
                              361.12   400.10   469.74   487.04   548.83
                              595.71   687.95   711.48   797.38   802.29
                              841.35   859.83   971.17   986.61  1015.35
                             1040.10  1079.21  1146.47  1222.04  1223.63
                             1353.67  1413.62  1426.09  1431.97  1446.96
                             1455.02  1499.17  1500.91  1544.09  1570.40
                             1676.07  1742.85  1784.22  1882.46  1895.66
                             1904.74  1958.02  1979.79  2003.68  2005.77
                             2044.28  2148.00  2158.48  2183.53  2192.13
                             2261.24  2701.94  3265.40  4366.55  4414.29
                             4458.72  4535.05  4553.75  4554.36  4736.56
                             4760.86

 Zero-point correction=                           0.168779 (Hartree/Particle)
 Thermal correction to Energy=                    0.183667
 Thermal correction to Enthalpy=                  0.184611
 Thermal correction to Gibbs Free Energy=         0.123409
 Sum of electronic and zero-point Energies=          -1148.389133
 Sum of electronic and thermal Energies=             -1148.374245
 Sum of electronic and thermal Enthalpies=           -1148.373301
 Sum of electronic and thermal Free Energies=        -1148.434503

                     E (Thermal)             CV                S
                      KCal/Mol        Cal/Mol-Kelvin    Cal/Mol-Kelvin
 Total                  115.253             53.209            128.810
 Electronic               0.000              0.000              0.000
 Translational            0.889              2.981             42.328
 Rotational               0.889              2.981             32.911
 Vibrational            113.475             47.247             53.571
 Vibration     1          0.593              1.985              6.352
 Vibration     2          0.593              1.985              6.085
 Vibration     3          0.594              1.983              5.598
 Vibration     4          0.597              1.972              4.396
 Vibration     5          0.598              1.968              4.125
 Vibration     6          0.602              1.955              3.629
 Vibration     7          0.617              1.905              2.697
 Vibration     8          0.632              1.858              2.258
 Vibration     9          0.636              1.845              2.165
 Vibration    10          0.651              1.799              1.896
 Vibration    11          0.663              1.761              1.724
 Vibration    12          0.679              1.714              1.545
 Vibration    13          0.710              1.623              1.277
 Vibration    14          0.719              1.599              1.219
 Vibration    15          0.751              1.510              1.033
 Vibration    16          0.778              1.440              0.912
 Vibration    17          0.835              1.299              0.715
 Vibration    18          0.850              1.262              0.672
 Vibration    19          0.910              1.130              0.536
 Vibration    20          0.913              1.123              0.529
 Vibration    21          0.942              1.064              0.477
 Vibration    22          0.956              1.037              0.454

 Optimization completed.
    -- Stationary point found.
 Normal termination of Gaussian 16 at Fri Dec 11 00:04:45 2020.

 ----------------------------------------------------------------------
 # B3LYP/6-311++G(d,p) empiricaldispersion=gd3bj scf=xqc pop=npa geom=c
 heck
 ----------------------------------------------------------------------

 ---------------------------------------
 CID_152536374_JID_6634_Energie_neutraal
 ---------------------------------------
 Structure from the checkpoint file:  "JID_6634.chk"
 Charge =  0 Multiplicity = 1

 SCF Done:  E(RB3LYP) =  -1148.79316937     A.U. after   16 cycles
 Normal termination of Gaussian 16 at Fri Dec 11 00:07:16 2020.

 ----------------------------------------------------------------------
 # B3LYP/6-311++G(d,p) empiricaldispersion=gd3bj scf=xqc pop=npa geom=c
 heck
 ----------------------------------------------------------------------

 -------------------------------------
 CID_152536374_JID_6634_Energie_kation
 -------------------------------------
 Structure from the checkpoint file:  "JID_6634.chk"
 Charge =  1 Multiplicity = 2

 SCF Done:  E(UB3LYP) =  -1148.49345047     A.U. after   25 cycles
 Normal termination of Gaussian 16 at Fri Dec 11 00:12:42 2020.
 Gaussian 16:  ES64L-G16RevA.03 25-Dec-2016

 ----------------------------------------------------------------------
 # B3LYP/6-311++G(d,p) empiricaldispersion=gd3bj scf=xqc pop=npa geom=c
 heck
 ----------------------------------------------------------------------

 ------------------------------------
 CID_152536374_JID_6634_Energie_anion
 ------------------------------------
 Structure from the checkpoint file:  "JID_6634.chk"
 Charge = -1 Multiplicity = 2

                         Standard orientation:
 ---------------------------------------------------------------------
 Center     Atomic      Atomic             Coordinates (Angstroms)
 Number     Number       Type             X           Y           Z
 ---------------------------------------------------------------------
      1          6           0        5.266439   -0.339767    0.154410
      2         16           0        3.846933   -0.745965   -0.916730
      3          6           0        2.532080   -0.034900    0.022973
      4          7           0        1.295421   -0.117064   -0.451736
      5          7           0        0.541512    0.499534    0.506584
      6          6           0        1.279586    0.981865    1.548931
      7          6           0        2.582616    0.648228    1.279332
      8          7           0       -0.788396    0.661715    0.345088
      9          6           0       -1.564557   -0.484910    0.021203
     10          8           0       -1.458452   -1.556209    0.556499
     11          6           0       -2.586990   -0.026441   -1.021967
     12          6           0       -2.456446    1.501128   -0.926850
     13          8           0       -1.069361    1.698691   -0.655615
     14          7           0       -3.932931   -0.569212   -0.878676
     15          7           0       -4.346519   -0.703449    0.284064
     16          7           0       -4.858568   -0.881011    1.286220
     17          1           0        6.147773   -0.740652   -0.351235
     18          1           0        5.174167   -0.814705    1.134547
     19          1           0        5.383900    0.741064    0.267499
     20          1           0        0.806139    1.496419    2.370802
     21          1           0        3.445871    0.853362    1.892133
     22          1           0       -2.218296   -0.365163   -1.995524
     23          1           0       -3.081025    1.892657   -0.111031
     24          1           0       -2.676961    2.027786   -1.855580
 ---------------------------------------------------------------------

 SCF Done:  E(UB3LYP) =  -1148.79529317     A.U. after   32 cycles

 The electronic state is 2-A.
 Alpha  occ. eigenvalues --  -88.76316 -19.07870 -19.00652 -14.35464 -14.33370
 Alpha  occ. eigenvalues --  -14.32428 -14.25805 -14.24538 -14.24292 -10.17290
 Alpha  occ. eigenvalues --  -10.14125 -10.13864 -10.13139 -10.13050 -10.10810
 Alpha  occ. eigenvalues --  -10.08919  -7.84908  -5.81317  -5.80928  -5.80277
 Alpha  occ. eigenvalues --   -1.03920  -1.02167  -0.96352  -0.94843  -0.86659
 Alpha  occ. eigenvalues --   -0.82879  -0.72956  -0.71007  -0.69891  -0.65906
 Alpha  occ. eigenvalues --   -0.58520  -0.56923  -0.54687  -0.50489  -0.47341
 Alpha  occ. eigenvalues --   -0.45680  -0.45176  -0.42470  -0.39450  -0.38826
 Alpha  occ. eigenvalues --   -0.37826  -0.37109  -0.35642  -0.35187  -0.34356
 Alpha  occ. eigenvalues --   -0.33932  -0.33549  -0.32623  -0.31669  -0.31559
 Alpha  occ. eigenvalues --   -0.29955  -0.29874  -0.24519  -0.24383  -0.21686
 Alpha  occ. eigenvalues --   -0.21619  -0.20566  -0.17706  -0.17276  -0.16376
 Alpha  occ. eigenvalues --   -0.13810  -0.12686   0.03761
 Alpha virt. eigenvalues --    0.04963   0.06614   0.07070   0.07231   0.07966
 Alpha virt. eigenvalues --    0.09027   0.09404   0.09797   0.11089   0.11313
 Alpha virt. eigenvalues --    0.11428   0.12058   0.12361   0.12670   0.13622

  Beta  occ. eigenvalues --  -88.76309 -19.07865 -19.00455 -14.35256 -14.33320
  Beta  occ. eigenvalues --  -14.32406 -14.25521 -14.24540 -14.24283 -10.17067
  Beta  occ. eigenvalues --  -10.14110 -10.13866 -10.13134 -10.13037 -10.10739
  Beta  occ. eigenvalues --  -10.08902  -7.84901  -5.81307  -5.80911  -5.80272
  Beta  occ. eigenvalues --   -1.03839  -1.01745  -0.96314  -0.94492  -0.86410
  Beta  occ. eigenvalues --   -0.82812  -0.72891  -0.70953  -0.69694  -0.65820
  Beta  occ. eigenvalues --   -0.58403  -0.56799  -0.54546  -0.50394  -0.47305
  Beta  occ. eigenvalues --   -0.45581  -0.45009  -0.41980  -0.39298  -0.38479
  Beta  occ. eigenvalues --   -0.37421  -0.36954  -0.35558  -0.35049  -0.34092
  Beta  occ. eigenvalues --   -0.33818  -0.33307  -0.32359  -0.31440  -0.31046
  Beta  occ. eigenvalues --   -0.29844  -0.29563  -0.24437  -0.23899  -0.21639
  Beta  occ. eigenvalues --   -0.21586  -0.20042  -0.17510  -0.17197  -0.16139
  Beta  occ. eigenvalues --   -0.13687  -0.12647
  Beta virt. eigenvalues --    0.06005   0.07101   0.07211   0.07436   0.08559
  Beta virt. eigenvalues --    0.08737   0.09491   0.09856   0.10138   0.11277
  Beta virt. eigenvalues --    0.11407   0.11625   0.12269   0.12595   0.12790

 Mulliken charges and spin densities:
               1          2
     1  C    0.185920  -0.775345
     2  S   -0.118628  -0.143463
     3  C   -0.108712  -0.145712
     4  N   -0.232228   0.010762
     5  N    0.158434  -0.026732
     6  C    0.186741  -0.463161
     7  C    0.178591   0.146458
     8  N    0.285022   0.057111
     9  C   -0.099042   0.248867
    10  O   -0.332952   0.070894
    11  C   -0.472399  -0.003125
    12  C    0.058310  -0.384667
    13  O   -0.006374   0.012428
    14  N   -0.194968   0.188168
    15  N    0.515299  -0.075429
    16  N   -0.267330   0.025635
    17  H   -0.402716   0.572398
    18  H   -0.079981   0.259284
    19  H   -0.111298   0.285763
    20  H    0.048676   0.114527
    21  H   -0.318659   0.513275
    22  H   -0.046025   0.317735
    23  H    0.169170   0.001019
    24  H    0.005150   0.193310
 Sum of Mulliken charges =  -1.00000   1.00000

 Dipole moment (field-independent basis, Debye):
    X=             -0.4682    Y=              3.8530    Z=              0.1869  Tot=              3.8859
 Quadrupole moment (field-independent basis, Debye-Ang):
   XX=           -200.9665   YY=           -120.4927   ZZ=           -122.6590
   XY=             -9.7975   XZ=             -0.6598   YZ=              3.3691

 Summary of Natural Population Analysis:

                                       Natural Population
                Natural  -----------------------------------------------
    Atom  No    Charge         Core      Valence    Rydberg      Total
 -----------------------------------------------------------------------
      C    1   -0.35163      0.99962     2.34527    0.00673     3.35163
      S    2    0.13811      4.99953     2.84131    0.02104     7.86189
      C    3   -0.00125      0.99954     1.98357    0.01814     3.00125
      N    4   -0.15461      0.99967     2.64403    0.01092     3.65461
      N    5   -0.01948      0.99963     2.50511    0.01474     3.51948
      C    6    0.01166      0.99956     1.97770    0.01109     2.98834
      C    7   -0.16997      0.99950     2.16094    0.00954     3.16997
      N    8   -0.03160      0.99962     2.51700    0.01498     3.53160
      C    9    0.36957      0.99965     1.60650    0.02428     2.63043
      O   10   -0.25685      0.99987     3.25109    0.00589     4.25685
      C   11   -0.07261      0.99952     2.05817    0.01492     3.07261
      C   12   -0.01730      0.99960     2.00329    0.01440     3.01730
      O   13   -0.21595      0.99991     3.20882    0.00722     4.21595
      N   14   -0.19533      0.99969     2.68091    0.01473     3.69533
      N   15    0.13189      0.99970     2.35144    0.01696     3.36811
      N   16   -0.01168      0.99981     2.49898    0.01288     3.51168
      H   17    0.11101      0.00000     0.38778    0.00121     0.38899
      H   18    0.10505      0.00000     0.39320    0.00175     0.39495
      H   19    0.10454      0.00000     0.39367    0.00179     0.39546
      H   20    0.10982      0.00000     0.38904    0.00113     0.39018
      H   21    0.11377      0.00000     0.38496    0.00127     0.38623
      H   22    0.11974      0.00000     0.37748    0.00278     0.38026
      H   23    0.08392      0.00000     0.41491    0.00117     0.41608
      H   24    0.09916      0.00000     0.39934    0.00150     0.40084
 =======================================================================
   * Total *    0.00000     19.99442    41.77454    0.23104    62.00000

 Normal termination of Gaussian 16 at Fri Dec 11 00:19:46 2020.
