 Gaussian 16, Revision A.03,

 -----------------------------------------------------------
 # opt freq B3LYP/6-31G(d) empiricaldispersion=gd3bj scf=xqc
 -----------------------------------------------------------

 ------------------------------
 CID_17773980_JID_5442_neutraal
 ------------------------------
 Symbolic Z-matrix:
 Charge =  0 Multiplicity = 1

 SCF Done:  E(RB3LYP) =  -761.990772931     A.U. after   15 cycles
 SCF Done:  E(RB3LYP) =  -761.993744365     A.U. after   12 cycles
 SCF Done:  E(RB3LYP) =  -761.994041339     A.U. after   11 cycles
 SCF Done:  E(RB3LYP) =  -761.994020132     A.U. after   12 cycles
 SCF Done:  E(RB3LYP) =  -761.994108880     A.U. after   11 cycles
 SCF Done:  E(RB3LYP) =  -761.994135874     A.U. after    9 cycles
 SCF Done:  E(RB3LYP) =  -761.994148566     A.U. after   10 cycles
 SCF Done:  E(RB3LYP) =  -761.994151587     A.U. after    9 cycles
 SCF Done:  E(RB3LYP) =  -761.994152072     A.U. after    8 cycles
 Optimization completed.
    -- Stationary point found.

 1\1\GINC-NODE103\FOpt\RB3LYP\6-31G(d)\C10H8O5\VSC10255\10-Dec-2020\0\\
 # opt freq B3LYP/6-31G(d) empiricaldispersion=gd3bj scf=xqc\\CID_17773
 980_JID_5442_neutraal\\0,1\C,0.9993739127,-0.1262693807,0.0703586701\O
 ,0.0862328369,-0.4193544963,-0.975707777\C,0.5696343966,-0.447250211,-
 2.2451319701\C,1.9021301806,-0.2093037627,-2.6110845473\C,2.2725080205
 ,-0.2678281442,-3.9542487829\C,1.3401131206,-0.5598100611,-4.94766471\
 C,0.0189358098,-0.7956448253,-4.5823617458\C,-0.3667745766,-0.74085806
 11,-3.2443593927\O,-1.68271951,-0.9723535286,-2.8474290353\C,-2.540647

 Normal termination of Gaussian 16 at Thu Dec 10 15:59:41 2020.

 --------------------------------------------------------------------
 #N Geom=AllCheck Guess=TCheck SCRF=Check GenChk RB3LYP/6-31G(d) Freq
 --------------------------------------------------------------------

 Structure from the checkpoint file:  "JID_5442.chk"
 ------------------------------
 CID_17773980_JID_5442_neutraal
 ------------------------------
 Charge =  0 Multiplicity = 1

 SCF Done:  E(RB3LYP) =  -761.994152072     A.U. after    1 cycles

  Exact polarizability: 177.815  -3.419 129.533   0.015   0.012  49.225
 Approx polarizability: 249.131 -25.675 237.351   0.044   0.042  75.541

                      1                      2                      3
                      A                      A                      A
 Frequencies --     33.3213                58.4769                84.0306
 Red. masses --      6.8879                 8.4721                 4.0307
 Frc consts  --      0.0045                 0.0171                 0.0168
 IR Inten    --      2.6135                 0.4368                 1.6713

                      4                      5                      6
                      A                      A                      A
 Frequencies --    131.9341               143.5706               216.1620
 Red. masses --      6.1294                 5.7289                 5.5686
 Frc consts  --      0.0629                 0.0696                 0.1533
 IR Inten    --      3.2446                 5.3401                 2.7455

                      7                      8                      9
                      A                      A                      A
 Frequencies --    217.6383               233.4289               281.0169
 Red. masses --      1.8806                 6.6332                 1.6078
 Frc consts  --      0.0525                 0.2130                 0.0748
 IR Inten    --      0.4701                 0.8376                 0.0169

                     10                     11                     12
                      A                      A                      A
 Frequencies --    308.2745               328.7430               355.2849
 Red. masses --      5.3945                 6.0007                 4.8919
 Frc consts  --      0.3020                 0.3821                 0.3638
 IR Inten    --      1.8975                 0.8585                 1.0290

                     13                     14                     15
                      A                      A                      A
 Frequencies --    452.4744               480.4486               507.1317
 Red. masses --      9.2506                 2.9108                 7.2787
 Frc consts  --      1.1159                 0.3959                 1.1029
 IR Inten    --      2.6658                21.8964                 0.7678

                     16                     17                     18
                      A                      A                      A
 Frequencies --    535.6772               537.4941               566.8429
 Red. masses --      7.1453                 3.7867                 7.9433
 Frc consts  --      1.2080                 0.6446                 1.5038
 IR Inten    --     14.0530                11.3161                12.6935

                     19                     20                     21
                      A                      A                      A
 Frequencies --    577.4073               588.7332               608.7289
 Red. masses --      1.5471                 4.2942                 5.7161
 Frc consts  --      0.3039                 0.8769                 1.2480
 IR Inten    --     66.2388                 6.1390                14.2498

                     22                     23                     24
                      A                      A                      A
 Frequencies --    678.4382               695.3093               729.6256
 Red. masses --      5.3674                 5.7888                 5.2442
 Frc consts  --      1.4556                 1.6489                 1.6449
 IR Inten    --      0.0274                35.5698                39.5814

                     25                     26                     27
                      A                      A                      A
 Frequencies --    746.5344               763.8125               818.4734
 Red. masses --      7.4992                 1.3408                 5.8826
 Frc consts  --      2.4624                 0.4609                 2.3218
 IR Inten    --     34.1197                62.5721                 5.3262

                     28                     29                     30
                      A                      A                      A
 Frequencies --    856.6585               868.8754               944.8621
 Red. masses --      1.3860                 1.3337                 1.2245
 Frc consts  --      0.5993                 0.5932                 0.6441
 IR Inten    --      1.7517                 6.2978                 0.5422

                     31                     32                     33
                      A                      A                      A
 Frequencies --    950.7254               988.3009              1103.3819
 Red. masses --      6.3374                 6.4844                 2.0178
 Frc consts  --      3.3750                 3.7317                 1.4473
 IR Inten    --     16.4809                21.5416                14.1587

                     34                     35                     36
                      A                      A                      A
 Frequencies --   1114.3052              1146.8464              1178.3692
 Red. masses --      6.9870                 4.1261                 3.4054
 Frc consts  --      5.1115                 3.1974                 2.7860
 IR Inten    --    120.3314               371.3469               167.1349

                     37                     38                     39
                      A                      A                      A
 Frequencies --   1186.1454              1193.7384              1208.5686
 Red. masses --      1.2685                 2.5444                 1.6290
 Frc consts  --      1.0515                 2.1363                 1.4019
 IR Inten    --      0.8705               135.3239               165.5111

                     40                     41                     42
                      A                      A                      A
 Frequencies --   1222.6188              1242.4095              1295.6882
 Red. masses --      1.4494                 2.0539                 1.8837
 Frc consts  --      1.2765                 1.8679                 1.8632
 IR Inten    --     32.0804                79.1105               122.6202

                     43                     44                     45
                      A                      A                      A
 Frequencies --   1346.5488              1365.5658              1379.0749
 Red. masses --      3.8034                 3.2895                 2.0195
 Frc consts  --      4.0632                 3.6142                 2.2629
 IR Inten    --    102.6206                63.1575                57.0377

                     46                     47                     48
                      A                      A                      A
 Frequencies --   1427.3901              1497.4585              1521.5793
 Red. masses --      4.1049                 1.2602                 1.0478
 Frc consts  --      4.9276                 1.6650                 1.4293
 IR Inten    --     27.0524                34.5300                 6.0134

                     49                     50                     51
                      A                      A                      A
 Frequencies --   1525.2069              1534.0154              1553.5824
 Red. masses --      2.9133                 1.0980                 3.0621
 Frc consts  --      3.9929                 1.5223                 4.3545
 IR Inten    --    148.7402                51.7589                74.0803

                     52                     53                     54
                      A                      A                      A
 Frequencies --   1650.4640              1670.0294              1734.2597
 Red. masses --      7.2856                 7.6876                 8.0608
 Frc consts  --     11.6930                12.6326                14.2842
 IR Inten    --     49.9213               184.9973               209.1760

                     55                     56                     57
                      A                      A                      A
 Frequencies --   1835.3705              3030.6098              3091.5166
 Red. masses --     10.0353                 1.0345                 1.1069
 Frc consts  --     19.9171                 5.5983                 6.2333
 IR Inten    --    364.9091                58.6608                40.2080

                     58                     59                     60
                      A                      A                      A
 Frequencies --   3165.6123              3205.6846              3231.9443
 Red. masses --      1.1001                 1.0882                 1.0928
 Frc consts  --      6.4954                 6.5888                 6.7254
 IR Inten    --     21.3270                 9.4940                 2.8963

                     61                     62                     63
                      A                      A                      A
 Frequencies --   3240.6318              3290.5588              3709.3002
 Red. masses --      1.0925                 1.0947                 1.0643
 Frc consts  --      6.7597                 6.9837                 8.6281
 IR Inten    --      7.4728                 1.7391                93.8833

 - Thermochemistry -
 -------------------
 Temperature   298.150 Kelvin.  Pressure   1.00000 Atm.
 Atom     1 has atomic number  6 and mass  12.00000

 Molecular mass:   208.03717 amu.
 Principal axes and moments of inertia in atomic units:
                           1         2         3
     Eigenvalues --  1272.179075025.170896285.81242
           X            1.00000   0.00202   0.00001
           Y           -0.00202   1.00000  -0.00001
           Z           -0.00001   0.00001   1.00000
 This molecule is an asymmetric top.
 Rotational symmetry number  1.
 Warning -- assumption of classical behavior for rotation
           may cause significant error
 Rotational temperatures (Kelvin)      0.06808     0.01724     0.01378
 Rotational constants (GHZ):           1.41862     0.35914     0.28711
 Zero-point vibrational energy     443736.3 (Joules/Mol)
                                  106.05551 (Kcal/Mol)
 Warning -- explicit consideration of  21 degrees of freedom as
           vibrations may cause significant error
 Vibrational temperatures:     47.94    84.14   120.90   189.82   206.57
          (Kelvin)            311.01   313.13   335.85   404.32   443.54
                              472.99   511.18   651.01   691.26   729.65
                              770.72   773.33   815.56   830.76   847.06
                              875.83   976.12  1000.39  1049.77  1074.10
                             1098.96  1177.60  1232.54  1250.12  1359.45
                             1367.88  1421.94  1587.52  1603.24  1650.06
                             1695.41  1706.60  1717.52  1738.86  1759.08
                             1787.55  1864.21  1937.38  1964.74  1984.18
                             2053.70  2154.51  2189.21  2194.43  2207.11
                             2235.26  2374.65  2402.80  2495.21  2640.69
                             4360.37  4448.00  4554.61  4612.27  4650.05
                             4662.55  4734.38  5336.86

 Zero-point correction=                           0.169010 (Hartree/Particle)
 Thermal correction to Energy=                    0.181681
 Thermal correction to Enthalpy=                  0.182625
 Thermal correction to Gibbs Free Energy=         0.129063
 Sum of electronic and zero-point Energies=           -761.825142
 Sum of electronic and thermal Energies=              -761.812471
 Sum of electronic and thermal Enthalpies=            -761.811527
 Sum of electronic and thermal Free Energies=         -761.865089

                     E (Thermal)             CV                S
                      KCal/Mol        Cal/Mol-Kelvin    Cal/Mol-Kelvin
 Total                  114.006             48.170            112.731
 Electronic               0.000              0.000              0.000
 Translational            0.889              2.981             41.902
 Rotational               0.889              2.981             32.063
 Vibrational            112.229             42.208             38.766
 Vibration     1          0.594              1.983              5.621
 Vibration     2          0.596              1.974              4.508
 Vibration     3          0.601              1.960              3.794
 Vibration     4          0.612              1.921              2.918
 Vibration     5          0.616              1.910              2.756
 Vibration     6          0.645              1.816              1.991
 Vibration     7          0.646              1.814              1.979
 Vibration     8          0.654              1.790              1.852
 Vibration     9          0.681              1.709              1.527
 Vibration    10          0.698              1.658              1.372
 Vibration    11          0.712              1.618              1.266
 Vibration    12          0.731              1.564              1.143
 Vibration    13          0.811              1.355              0.788
 Vibration    14          0.837              1.293              0.709
 Vibration    15          0.862              1.234              0.641
 Vibration    16          0.891              1.171              0.575
 Vibration    17          0.893              1.167              0.571
 Vibration    18          0.923              1.103              0.510
 Vibration    19          0.934              1.080              0.490
 Vibration    20          0.946              1.056              0.469
 Vibration    21          0.968              1.013              0.435

                           ! Non-Optimized Parameters !

 1\1\GINC-NODE103\Freq\RB3LYP\6-31G(d)\C10H8O5\VSC10255\10-Dec-2020\0\\
 #N Geom=AllCheck Guess=TCheck SCRF=Check GenChk RB3LYP/6-31G(d) Freq\\
 CID_17773980_JID_5442_neutraal\\0,1\C,0.9993739127,-0.1262693807,0.070
 3586701\O,0.0862328369,-0.4193544963,-0.975707777\C,0.5696343966,-0.44
 7250211,-2.2451319701\C,1.9021301806,-0.2093037627,-2.6110845473\C,2.2
 725080205,-0.2678281442,-3.9542487829\C,1.3401131206,-0.5598100611,-4.
 94766471\C,0.0189358098,-0.7956448253,-4.5823617458\C,-0.3667745766,-0
 .7408580611,-3.2443593927\O,-1.68271951,-0.9723535286,-2.8474290353\C,

 Normal termination of Gaussian 16 at Thu Dec 10 16:06:10 2020.

 ----------------------------------------------------------------------
 # B3LYP/6-311++G(d,p) empiricaldispersion=gd3bj scf=xqc pop=npa geom=c
 heck
 ----------------------------------------------------------------------

 --------------------------------------
 CID_17773980_JID_5442_Energie_neutraal
 --------------------------------------
 Structure from the checkpoint file:  "JID_5442.chk"
 Charge =  0 Multiplicity = 1

 SCF Done:  E(RB3LYP) =  -762.216686381     A.U. after   15 cycles
 Normal termination of Gaussian 16 at Thu Dec 10 16:08:57 2020.

 ----------------------------------------------------------------------
 # B3LYP/6-311++G(d,p) empiricaldispersion=gd3bj scf=xqc pop=npa geom=c
 heck
 ----------------------------------------------------------------------

 ------------------------------------
 CID_17773980_JID_5442_Energie_kation
 ------------------------------------
 Structure from the checkpoint file:  "JID_5442.chk"
 Charge =  1 Multiplicity = 2

 SCF Done:  E(UB3LYP) =  -761.933741711     A.U. after   22 cycles
 Normal termination of Gaussian 16 at Thu Dec 10 16:15:00 2020.
 Gaussian 16:  ES64L-G16RevA.03 25-Dec-2016

 -----------------------------------
 CID_17773980_JID_5442_Energie_anion
 -----------------------------------
 Structure from the checkpoint file:  "JID_5442.chk"
 Charge = -1 Multiplicity = 2

                         Standard orientation:
 ---------------------------------------------------------------------
 Center     Atomic      Atomic             Coordinates (Angstroms)
 Number     Number       Type             X           Y           Z
 ---------------------------------------------------------------------
      1          6           0        4.160678   -1.492274    0.001180
      2          8           0        2.742897   -1.430015    0.000177
      3          6           0        2.165879   -0.199998    0.000147
      4          6           0        2.856849    1.020102    0.001286
      5          6           0        2.144942    2.219219    0.001200
      6          6           0        0.751619    2.231022   -0.000013
      7          6           0        0.068276    1.019571   -0.001294
      8          6           0        0.765395   -0.187097   -0.001281
      9          8           0        0.108859   -1.416655   -0.002464
     10          6           0       -1.247490   -1.334365   -0.000989
     11          6           0       -1.929762   -0.178983   -0.000973
     12          8           0       -1.311128    1.059691   -0.002781
     13          6           0       -3.395390   -0.092008    0.000888
     14          8           0       -4.027816    0.941427    0.001166
     15          8           0       -3.982471   -1.321771    0.002263
     16          1           0        4.410152   -2.554217    0.000757
     17          1           0        4.582221   -1.018326    0.896869
     18          1           0        4.583559   -1.017299   -0.893329
     19          1           0        3.939319    1.034948    0.002256
     20          1           0        2.687489    3.159290    0.002089
     21          1           0        0.180723    3.152494   -0.000043
     22          1           0       -1.730764   -2.300230    0.000250
     23          1           0       -4.941405   -1.149217    0.003367
 ---------------------------------------------------------------------

 SCF Done:  E(UB3LYP) =  -762.218338745     A.U. after   28 cycles

 The electronic state is 2-A.
 Alpha  occ. eigenvalues --  -19.04369 -19.02533 -19.01691 -19.01271 -18.93377
 Alpha  occ. eigenvalues --  -10.12929 -10.11990 -10.10941 -10.09221 -10.08794
 Alpha  occ. eigenvalues --  -10.05776 -10.05122 -10.04097 -10.04043 -10.03808
 Alpha  occ. eigenvalues --   -0.96573  -0.95387  -0.94415  -0.91891  -0.85172
 Alpha  occ. eigenvalues --   -0.72678  -0.64589  -0.63995  -0.59115  -0.58612
 Alpha  occ. eigenvalues --   -0.53428  -0.48851  -0.47567  -0.43656  -0.42331
 Alpha  occ. eigenvalues --   -0.39814  -0.37551  -0.37106  -0.34861  -0.33811
 Alpha  occ. eigenvalues --   -0.32620  -0.32540  -0.32036  -0.29433  -0.29049
 Alpha  occ. eigenvalues --   -0.27169  -0.26751  -0.25647  -0.25244  -0.24783
 Alpha  occ. eigenvalues --   -0.24695  -0.22190  -0.19978  -0.19086  -0.17097
 Alpha  occ. eigenvalues --   -0.13609  -0.12064  -0.10084  -0.05034   0.05948
 Alpha virt. eigenvalues --    0.06916   0.09010   0.09828   0.10498   0.10743
 Alpha virt. eigenvalues --    0.11877   0.12488   0.12651   0.13272   0.13300
 Alpha virt. eigenvalues --    0.14474   0.16235   0.16932   0.17335   0.17773

  Beta  occ. eigenvalues --  -19.04376 -19.02555 -19.01744 -19.01238 -18.93048
  Beta  occ. eigenvalues --  -10.12925 -10.11710 -10.10974 -10.09039 -10.08620
  Beta  occ. eigenvalues --  -10.05709 -10.04553 -10.03990 -10.03915 -10.03857
  Beta  occ. eigenvalues --   -0.96518  -0.95250  -0.94196  -0.91814  -0.84704
  Beta  occ. eigenvalues --   -0.72454  -0.64447  -0.63505  -0.58906  -0.58322
  Beta  occ. eigenvalues --   -0.52794  -0.48677  -0.47316  -0.43493  -0.42142
  Beta  occ. eigenvalues --   -0.39677  -0.37381  -0.37074  -0.34719  -0.33730
  Beta  occ. eigenvalues --   -0.32248  -0.31879  -0.31742  -0.29193  -0.28018
  Beta  occ. eigenvalues --   -0.27040  -0.26695  -0.25341  -0.25168  -0.24563
  Beta  occ. eigenvalues --   -0.24187  -0.22126  -0.19583  -0.18991  -0.15903
  Beta  occ. eigenvalues --   -0.11911  -0.11758  -0.09669  -0.04088
  Beta virt. eigenvalues --    0.06874   0.08965   0.09804   0.10473   0.10692
  Beta virt. eigenvalues --    0.11866   0.11941   0.12444   0.12965   0.13258
  Beta virt. eigenvalues --    0.14432   0.15360   0.16247   0.17055   0.17603

 Mulliken charges and spin densities:
               1          2
     1  C   -0.263830  -0.008227
     2  O   -0.180361   0.002225
     3  C   -0.267684  -0.021693
     4  C    0.172000   0.066151
     5  C   -0.235854   0.138091
     6  C   -0.416316  -0.044825
     7  C    0.305443   0.128297
     8  C   -0.376519   0.070450
     9  O   -0.161190  -0.027417
    10  C    0.062641   0.450345
    11  C   -0.276052   0.004250
    12  O   -0.138489  -0.022521
    13  C    0.183579   0.179282
    14  O   -0.420385   0.112722
    15  O   -0.247404   0.007659
    16  H    0.159013  -0.000230
    17  H    0.125279   0.006837
    18  H    0.125199   0.006972
    19  H    0.129844  -0.006036
    20  H    0.121050  -0.010445
    21  H    0.140837   0.003274
    22  H    0.201106  -0.034168
    23  H    0.258092  -0.000993
 Sum of Mulliken charges =  -1.00000   1.00000

 Dipole moment (field-independent basis, Debye):
    X=              6.7353    Y=             -1.8167    Z=              0.0037  Tot=              6.9760
 Quadrupole moment (field-independent basis, Debye-Ang):
   XX=           -116.4205   YY=           -101.8681   ZZ=            -94.0540
   XY=              5.0553   XZ=              0.0027   YZ=             -0.0068

 Summary of Natural Population Analysis:

                                       Natural Population
                Natural  -----------------------------------------------
    Atom  No    Charge         Core      Valence    Rydberg      Total
 -----------------------------------------------------------------------
      C    1   -0.09986      0.99962     2.09174    0.00850     3.09986
      O    2   -0.26958      0.99985     3.25787    0.01186     4.26958
      C    3    0.14288      0.99930     1.84525    0.01257     2.85712
      C    4   -0.14558      0.99946     2.13707    0.00905     3.14558
      C    5   -0.07964      0.99962     2.06970    0.01032     3.07964
      C    6   -0.14598      0.99954     2.13713    0.00930     3.14598
      C    7    0.17063      0.99934     1.81791    0.01213     2.82937
      C    8    0.13178      0.99930     1.85753    0.01139     2.86822
      O    9   -0.26000      0.99986     3.24972    0.01042     4.26000
      C   10    0.16892      0.99943     1.81840    0.01325     2.83108
      C   11    0.04722      0.99935     1.94048    0.01295     2.95278
      O   12   -0.26304      0.99985     3.25261    0.01057     4.26304
      C   13    0.40763      0.99968     1.56850    0.02419     2.59237
      O   14   -0.30004      0.99987     3.29179    0.00838     4.30004
      O   15   -0.36074      0.99988     3.35475    0.00611     4.36074
      H   16    0.08769      0.00000     0.41141    0.00089     0.41231
      H   17    0.08028      0.00000     0.41802    0.00169     0.41972
      H   18    0.08029      0.00000     0.41802    0.00169     0.41971
      H   19    0.09572      0.00000     0.40354    0.00075     0.40428
      H   20    0.08966      0.00000     0.40912    0.00122     0.41034
      H   21    0.10301      0.00000     0.39591    0.00109     0.39699
      H   22    0.08918      0.00000     0.40988    0.00094     0.41082
      H   23    0.22964      0.00000     0.26695    0.00340     0.27036
 =======================================================================
   * Total *    0.00007     14.99395    38.82331    0.18267    53.99993

 Normal termination of Gaussian 16 at Thu Dec 10 16:23:09 2020.
