 Gaussian 16, Revision A.03,

 -----------------------------------------------------------
 # opt freq B3LYP/6-31G(d) empiricaldispersion=gd3bj scf=xqc
 -----------------------------------------------------------

 -------------------------------
 CID_139923273_JID_7107_neutraal
 -------------------------------
 Symbolic Z-matrix:
 Charge =  0 Multiplicity = 1

 SCF Done:  E(RB3LYP) =  -847.902840532     A.U. after   14 cycles
 SCF Done:  E(RB3LYP) =  -847.907715240     A.U. after   12 cycles
 SCF Done:  E(RB3LYP) =  -847.908197918     A.U. after   12 cycles
 SCF Done:  E(RB3LYP) =  -847.910603687     A.U. after   12 cycles
 SCF Done:  E(RB3LYP) =  -847.911096483     A.U. after   12 cycles
 SCF Done:  E(RB3LYP) =  -847.912643207     A.U. after   12 cycles
 SCF Done:  E(RB3LYP) =  -847.913801061     A.U. after   15 cycles
 SCF Done:  E(RB3LYP) =  -847.914713109     A.U. after   12 cycles
 SCF Done:  E(RB3LYP) =  -847.915797388     A.U. after   12 cycles
 SCF Done:  E(RB3LYP) =  -847.916814641     A.U. after   12 cycles
 SCF Done:  E(RB3LYP) =  -847.918117400     A.U. after    9 cycles
 SCF Done:  E(RB3LYP) =  -847.918119036     A.U. after   10 cycles
 SCF Done:  E(RB3LYP) =  -847.918119052     A.U. after    6 cycles
 SCF Done:  E(RB3LYP) =  -847.918119124     A.U. after    7 cycles
 SCF Done:  E(RB3LYP) =  -847.918119143     A.U. after    7 cycles
 SCF Done:  E(RB3LYP) =  -847.918119170     A.U. after    7 cycles
 Optimization completed.
    -- Stationary point found.
 Normal termination of Gaussian 16 at Mon Dec 14 17:12:43 2020.

 --------------------------------------------------------------------
 #N Geom=AllCheck Guess=TCheck SCRF=Check GenChk RB3LYP/6-31G(d) Freq
 --------------------------------------------------------------------

 Structure from the checkpoint file:  "JID_7107.chk"
 -------------------------------
 CID_139923273_JID_7107_neutraal
 -------------------------------
 Charge =  0 Multiplicity = 1

 SCF Done:  E(RB3LYP) =  -847.918119170     A.U. after    1 cycles

  Exact polarizability: 160.797   2.675 147.392   4.202  -0.057 118.896
 Approx polarizability: 199.994   1.338 199.150   3.733  -5.595 176.801

                      1                      2                      3
                      A                      A                      A
 Frequencies --     11.2322                18.2506                26.7463
 Red. masses --      3.6706                 4.5087                 2.4142
 Frc consts  --      0.0003                 0.0009                 0.0010
 IR Inten    --      0.0556                 0.1272                 0.1780

                      4                      5                      6
                      A                      A                      A
 Frequencies --     33.7726                53.3299                76.3483
 Red. masses --      3.3503                 5.3314                 5.7801
 Frc consts  --      0.0023                 0.0089                 0.0199
 IR Inten    --      0.1222                 0.2099                 0.6714

                      7                      8                      9
                      A                      A                      A
 Frequencies --     81.2572                87.4589               116.9814
 Red. masses --      3.7468                 3.4724                 2.8918
 Frc consts  --      0.0146                 0.0156                 0.0233
 IR Inten    --      0.9235                 2.3611                 0.9066

                     10                     11                     12
                      A                      A                      A
 Frequencies --    137.6986               152.0955               153.6867
 Red. masses --      3.6427                 2.9727                 2.3342
 Frc consts  --      0.0407                 0.0405                 0.0325
 IR Inten    --      3.7610                 0.4603                 0.6987

                     13                     14                     15
                      A                      A                      A
 Frequencies --    193.3641               217.7515               240.2347
 Red. masses --      2.6782                 2.8326                 1.3808
 Frc consts  --      0.0590                 0.0791                 0.0470
 IR Inten    --      1.4540                 0.7441                 1.7056

                     16                     17                     18
                      A                      A                      A
 Frequencies --    254.0703               258.2570               267.0070
 Red. masses --      1.3549                 1.2633                 1.8801
 Frc consts  --      0.0515                 0.0496                 0.0790
 IR Inten    --      1.9768                 1.1006                 1.1775

                     19                     20                     21
                      A                      A                      A
 Frequencies --    285.6152               296.8158               343.5364
 Red. masses --      2.4010                 2.7068                 2.8182
 Frc consts  --      0.1154                 0.1405                 0.1960
 IR Inten    --      2.3846                 1.8743                 1.6824

                     22                     23                     24
                      A                      A                      A
 Frequencies --    347.7280               384.6246               411.8757
 Red. masses --      2.6770                 2.7223                 2.8667
 Frc consts  --      0.1907                 0.2373                 0.2865
 IR Inten    --      4.1343                 9.6389                 8.1457

                     25                     26                     27
                      A                      A                      A
 Frequencies --    439.6795               497.3827               509.8728
 Red. masses --      2.5022                 3.0759                 3.3487
 Frc consts  --      0.2850                 0.4483                 0.5129
 IR Inten    --      6.5195                 7.3128                15.6445

                     28                     29                     30
                      A                      A                      A
 Frequencies --    557.5805               572.2331               573.4468
 Red. masses --      2.5519                 2.5337                 1.1694
 Frc consts  --      0.4674                 0.4888                 0.2266
 IR Inten    --     11.4435                18.9742                95.2481

                     31                     32                     33
                      A                      A                      A
 Frequencies --    654.5392               672.4060               762.9861
 Red. masses --      4.4854                 2.6468                 1.9084
 Frc consts  --      1.1322                 0.7051                 0.6546
 IR Inten    --      7.2464                 1.0304                10.2021

                     34                     35                     36
                      A                      A                      A
 Frequencies --    783.1472               793.1650               821.1423
 Red. masses --      9.9011                 2.3384                 1.3964
 Frc consts  --      3.5778                 0.8668                 0.5547
 IR Inten    --     39.8141                 8.5969                 2.6890

                     37                     38                     39
                      A                      A                      A
 Frequencies --    831.3654               846.8179               871.8622
 Red. masses --      1.2145                 2.2863                 2.3631
 Frc consts  --      0.4946                 0.9660                 1.0583
 IR Inten    --      0.1726                 3.8242                11.0369

                     40                     41                     42
                      A                      A                      A
 Frequencies --    888.7919               911.5748               946.6826
 Red. masses --      2.1413                 2.2957                 1.7932
 Frc consts  --      0.9966                 1.1240                 0.9469
 IR Inten    --     15.9639                 8.7253                 6.6862

                     43                     44                     45
                      A                      A                      A
 Frequencies --    952.6531               974.2786              1000.8971
 Red. masses --      1.8519                 1.9160                 2.2481
 Frc consts  --      0.9902                 1.0716                 1.3269
 IR Inten    --     13.1709                 2.3408                27.2259

                     46                     47                     48
                      A                      A                      A
 Frequencies --   1027.0662              1045.8273              1051.6446
 Red. masses --      2.1318                 1.7588                 2.1832
 Frc consts  --      1.3249                 1.1334                 1.4226
 IR Inten    --      5.5163                15.3087                 4.7828

                     49                     50                     51
                      A                      A                      A
 Frequencies --   1072.2408              1090.8974              1107.4020
 Red. masses --      2.5749                 2.5410                 3.8069
 Frc consts  --      1.7442                 1.7816                 2.7506
 IR Inten    --     59.7030                62.2137                 5.2942

                     52                     53                     54
                      A                      A                      A
 Frequencies --   1120.4465              1137.4553              1146.7783
 Red. masses --      2.0194                 2.5298                 2.0340
 Frc consts  --      1.4937                 1.9284                 1.5760
 IR Inten    --     16.4428                16.4432                 3.0881

                     55                     56                     57
                      A                      A                      A
 Frequencies --   1159.5545              1177.8564              1181.4554
 Red. masses --      2.4716                 2.6562                 2.3213
 Frc consts  --      1.9580                 2.1712                 1.9091
 IR Inten    --     93.2384                85.0724                36.7248

                     58                     59                     60
                      A                      A                      A
 Frequencies --   1192.7110              1199.5740              1229.9585
 Red. masses --      3.0297                 1.5548                 1.9723
 Frc consts  --      2.5393                 1.3182                 1.7579
 IR Inten    --     90.0471                 4.2358               496.9606

                     61                     62                     63
                      A                      A                      A
 Frequencies --   1243.0058              1284.7148              1290.4989
 Red. masses --      1.4295                 1.2555                 1.2482
 Frc consts  --      1.3013                 1.2209                 1.2247
 IR Inten    --     82.4636                 6.5839                 3.6367

                     64                     65                     66
                      A                      A                      A
 Frequencies --   1307.0544              1315.5492              1337.0601
 Red. masses --      1.1377                 1.1342                 1.1864
 Frc consts  --      1.1452                 1.1565                 1.2496
 IR Inten    --     11.1559                 2.8694                 4.1831

                     67                     68                     69
                      A                      A                      A
 Frequencies --   1356.8598              1363.0213              1397.7674
 Red. masses --      1.3246                 1.2235                 1.3958
 Frc consts  --      1.4368                 1.3392                 1.6067
 IR Inten    --      7.5561                 4.7556                35.2479

                     70                     71                     72
                      A                      A                      A
 Frequencies --   1401.9193              1416.4287              1416.7423
 Red. masses --      1.4360                 1.3524                 1.3040
 Frc consts  --      1.6628                 1.5986                 1.5421
 IR Inten    --     41.5062                20.3383                 9.3405

                     73                     74                     75
                      A                      A                      A
 Frequencies --   1421.7337              1426.5652              1429.6542
 Red. masses --      1.2725                 1.2753                 1.4083
 Frc consts  --      1.5155                 1.5292                 1.6960
 IR Inten    --      1.0524                 8.0629                10.0101

                     76                     77                     78
                      A                      A                      A
 Frequencies --   1432.9793              1441.4411              1442.4375
 Red. masses --      1.3995                 1.2795                 1.2549
 Frc consts  --      1.6932                 1.5663                 1.5384
 IR Inten    --      6.8906                15.9896                16.5918

                     79                     80                     81
                      A                      A                      A
 Frequencies --   1451.9439              1461.3755              1499.7061
 Red. masses --      1.3725                 2.1721                 1.0882
 Frc consts  --      1.7048                 2.7331                 1.4421
 IR Inten    --     24.3731               146.5170                 3.3362

                     82                     83                     84
                      A                      A                      A
 Frequencies --   1513.8211              1519.0484              1521.1113
 Red. masses --      1.0416                 1.0795                 1.0669
 Frc consts  --      1.4064                 1.4676                 1.4544
 IR Inten    --      4.2707                 4.3116                 0.3141

                     85                     86                     87
                      A                      A                      A
 Frequencies --   1523.1721              1527.9895              1528.5301
 Red. masses --      1.0609                 1.0664                 1.0852
 Frc consts  --      1.4502                 1.4670                 1.4938
 IR Inten    --      5.1430                 2.2117                19.3770

                     88                     89                     90
                      A                      A                      A
 Frequencies --   1530.8331              1532.3131              1536.4744
 Red. masses --      1.0524                 1.0443                 1.0708
 Frc consts  --      1.4530                 1.4447                 1.4894
 IR Inten    --      0.4416                 3.0093                 6.7193

                     91                     92                     93
                      A                      A                      A
 Frequencies --   1545.4353              1564.1232              1833.2387
 Red. masses --      1.0766                 1.0884                 9.1675
 Frc consts  --      1.5149                 1.5688                18.1525
 IR Inten    --     15.7955                 2.5721               347.3498

                     94                     95                     96
                      A                      A                      A
 Frequencies --   3001.4286              3019.8613              3039.4160
 Red. masses --      1.0641                 1.0667                 1.0811
 Frc consts  --      5.6478                 5.7313                 5.8841
 IR Inten    --     23.5657                37.4006                26.4600

                     97                     98                     99
                      A                      A                      A
 Frequencies --   3047.9342              3048.4238              3054.0115
 Red. masses --      1.0425                 1.0540                 1.0531
 Frc consts  --      5.7063                 5.7710                 5.7873
 IR Inten    --     32.8899                20.6942                13.0246

                    100                    101                    102
                      A                      A                      A
 Frequencies --   3055.6537              3060.4904              3063.5818
 Red. masses --      1.0351                 1.0645                 1.0726
 Frc consts  --      5.6944                 5.8746                 5.9311
 IR Inten    --     23.8178                22.0138                52.1911

                    103                    104                    105
                      A                      A                      A
 Frequencies --   3064.0717              3082.3005              3085.2334
 Red. masses --      1.0739                 1.0955                 1.0989
 Frc consts  --      5.9404                 6.1324                 6.1629
 IR Inten    --     30.9349                21.0846                24.5432

                    106                    107                    108
                      A                      A                      A
 Frequencies --   3099.7194              3101.2262              3110.4217
 Red. masses --      1.0930                 1.0752                 1.0945
 Frc consts  --      6.1875                 6.0924                 6.2389
 IR Inten    --     13.6193                 5.4193                 8.6736

                    109                    110                    111
                      A                      A                      A
 Frequencies --   3111.4692              3118.2313              3123.8079
 Red. masses --      1.0885                 1.1001                 1.1022
 Frc consts  --      6.2090                 6.3020                 6.3369
 IR Inten    --     43.2921                28.3106                52.3062

                    112                    113                    114
                      A                      A                      A
 Frequencies --   3126.4966              3129.9514              3131.3969
 Red. masses --      1.1021                 1.0985                 1.1003
 Frc consts  --      6.3471                 6.3407                 6.3568
 IR Inten    --     37.1447                45.7167                33.7486

                    115                    116                    117
                      A                      A                      A
 Frequencies --   3132.1927              3163.4263              3742.4371
 Red. masses --      1.1034                 1.1070                 1.0647
 Frc consts  --      6.3780                 6.5272                 8.7861
 IR Inten    --     31.9514                12.4319                85.3295

 - Thermochemistry -
 -------------------
 Temperature   298.150 Kelvin.  Pressure   1.00000 Atm.
 Atom     1 has atomic number  6 and mass  12.00000

 Molecular mass:   248.16237 amu.
 Principal axes and moments of inertia in atomic units:
                           1         2         3
     Eigenvalues --  2419.500928883.902069932.97375
           X            0.99994  -0.00357   0.01033
           Y            0.00349   0.99997   0.00742
           Z           -0.01036  -0.00738   0.99992
 This molecule is an asymmetric top.
 Rotational symmetry number  1.
 Warning -- assumption of classical behavior for rotation
           may cause significant error
 Rotational temperatures (Kelvin)      0.03580     0.00975     0.00872
 Rotational constants (GHZ):           0.74591     0.20315     0.18169
 Zero-point vibrational energy     955701.7 (Joules/Mol)
                                  228.41818 (Kcal/Mol)
 Warning -- explicit consideration of  30 degrees of freedom as
           vibrations may cause significant error
 Vibrational temperatures:     16.16    26.26    38.48    48.59    76.73
          (Kelvin)            109.85   116.91   125.83   168.31   198.12
                              218.83   221.12   278.21   313.30   345.64
                              365.55   371.57   384.16   410.94   427.05
                              494.27   500.30   553.39   592.60   632.60
                              715.62   733.59   802.23   823.32   825.06
                              941.74   967.44  1097.77  1126.77  1141.19
                             1181.44  1196.15  1218.38  1254.42  1278.77
                             1311.55  1362.07  1370.66  1401.77  1440.07
                             1477.72  1504.71  1513.08  1542.72  1569.56
                             1593.30  1612.07  1636.54  1649.96  1668.34
                             1694.67  1699.85  1716.05  1725.92  1769.64
                             1788.41  1848.42  1856.74  1880.56  1892.78
                             1923.73  1952.22  1961.08  2011.08  2017.05
                             2037.92  2038.38  2045.56  2052.51  2056.95
                             2061.74  2073.91  2075.35  2089.02  2102.59
                             2157.74  2178.05  2185.57  2188.54  2191.50
                             2198.44  2199.21  2202.53  2204.66  2210.64
                             2223.54  2250.42  2637.62  4318.39  4344.91
                             4373.04  4385.30  4386.00  4394.04  4396.40
                             4403.36  4407.81  4408.52  4434.74  4438.96
                             4459.80  4461.97  4475.20  4476.71  4486.44
                             4494.46  4498.33  4503.30  4505.38  4506.53
                             4551.46  5384.53

 Zero-point correction=                           0.364008 (Hartree/Particle)
 Thermal correction to Energy=                    0.384307
 Thermal correction to Enthalpy=                  0.385251
 Thermal correction to Gibbs Free Energy=         0.311158
 Sum of electronic and zero-point Energies=           -847.554112
 Sum of electronic and thermal Energies=              -847.533812
 Sum of electronic and thermal Enthalpies=            -847.532868
 Sum of electronic and thermal Free Energies=         -847.606961

                     E (Thermal)             CV                S
                      KCal/Mol        Cal/Mol-Kelvin    Cal/Mol-Kelvin
 Total                  241.156             72.636            155.941
 Electronic               0.000              0.000              0.000
 Translational            0.889              2.981             42.427
 Rotational               0.889              2.981             33.723
 Vibrational            239.379             66.675             79.791
 Vibration     1          0.593              1.987              7.780
 Vibration     2          0.593              1.986              6.816
 Vibration     3          0.593              1.984              6.057
 Vibration     4          0.594              1.983              5.594
 Vibration     5          0.596              1.976              4.690
 Vibration     6          0.599              1.965              3.983
 Vibration     7          0.600              1.962              3.860
 Vibration     8          0.601              1.958              3.716
 Vibration     9          0.608              1.935              3.150
 Vibration    10          0.614              1.916              2.836
 Vibration    11          0.619              1.900              2.646
 Vibration    12          0.619              1.899              2.626
 Vibration    13          0.635              1.849              2.195
 Vibration    14          0.646              1.814              1.978
 Vibration    15          0.657              1.779              1.801
 Vibration    16          0.665              1.756              1.702
 Vibration    17          0.667              1.749              1.674
 Vibration    18          0.672              1.734              1.616
 Vibration    19          0.683              1.700              1.500
 Vibration    20          0.690              1.680              1.435
 Vibration    21          0.722              1.588              1.196
 Vibration    22          0.725              1.580              1.176
 Vibration    23          0.754              1.503              1.021
 Vibration    24          0.776              1.444              0.920
 Vibration    25          0.800              1.384              0.828
 Vibration    26          0.853              1.256              0.665
 Vibration    27          0.865              1.228              0.634
 Vibration    28          0.913              1.123              0.529
 Vibration    29          0.928              1.091              0.500
 Vibration    30          0.930              1.089              0.498

 Optimization completed.
    -- Stationary point found.
 Normal termination of Gaussian 16 at Mon Dec 14 17:30:19 2020.

 ----------------------------------------------------------------------
 # B3LYP/6-311++G(d,p) empiricaldispersion=gd3bj scf=xqc pop=npa geom=c
 heck
 ----------------------------------------------------------------------

 ---------------------------------------
 CID_139923273_JID_7107_Energie_neutraal
 ---------------------------------------
 Structure from the checkpoint file:  "JID_7107.chk"
 Charge =  0 Multiplicity = 1

 SCF Done:  E(RB3LYP) =  -848.177307718     A.U. after   13 cycles
 Normal termination of Gaussian 16 at Mon Dec 14 17:38:03 2020.

 ----------------------------------------------------------------------
 # B3LYP/6-311++G(d,p) empiricaldispersion=gd3bj scf=xqc pop=npa geom=c
 heck
 ----------------------------------------------------------------------

 -------------------------------------
 CID_139923273_JID_7107_Energie_kation
 -------------------------------------
 Structure from the checkpoint file:  "JID_7107.chk"
 Charge =  1 Multiplicity = 2

 SCF Done:  E(UB3LYP) =  -847.862462664     A.U. after   24 cycles
 Normal termination of Gaussian 16 at Mon Dec 14 17:59:02 2020.
 Gaussian 16:  ES64L-G16RevA.03 25-Dec-2016

 ----------------------------------------------------------------------
 # B3LYP/6-311++G(d,p) empiricaldispersion=gd3bj scf=xqc pop=npa geom=c
 heck
 ----------------------------------------------------------------------

 ------------------------------------
 CID_139923273_JID_7107_Energie_anion
 ------------------------------------
 Structure from the checkpoint file:  "JID_7107.chk"
 Charge = -1 Multiplicity = 2

                         Standard orientation:
 ---------------------------------------------------------------------
 Center     Atomic      Atomic             Coordinates (Angstroms)
 Number     Number       Type             X           Y           Z
 ---------------------------------------------------------------------
      1          6           0       -2.212525   -3.053070   -0.141706
      2          6           0       -2.714686   -1.694042   -0.638110
      3          6           0       -2.962220   -0.695179    0.501443
      4          6           0       -1.676701   -0.216966    1.184354
      5          8           0       -0.753284    0.240134    0.208480
      6          6           0        0.488462    0.778356    0.687561
      7          6           0        0.302770    1.961485    1.637817
      8          6           0        1.385569   -0.309453    1.294570
      9          6           0        1.627654   -1.506581    0.367534
     10          6           0        2.424992   -1.195100   -0.891916
     11          8           0        3.786780   -0.818309   -0.562417
     12          6           0        4.079442    0.480304   -0.590128
     13          8           0        3.337363    1.400991   -0.865866
     14          8           0        5.376860    0.626703   -0.255453
     15          8           0       -3.814501    0.383327    0.125408
     16          6           0       -3.393224    1.215099   -0.953823
     17          6           0       -4.478337    2.258204   -1.161030
     18          1           0       -2.919504   -3.504115    0.565391
     19          1           0       -1.245685   -2.969657    0.366749
     20          1           0       -2.085282   -3.751660   -0.975681
     21          1           0       -1.996904   -1.272842   -1.348458
     22          1           0       -3.665162   -1.824872   -1.169285
     23          1           0       -3.542248   -1.205880    1.282230
     24          1           0       -1.945490    0.584347    1.884634
     25          1           0       -1.250901   -1.046662    1.769969
     26          1           0        0.964618    1.153430   -0.221310
     27          1           0       -0.051605    1.652261    2.627359
     28          1           0        1.261541    2.473531    1.771086
     29          1           0       -0.412411    2.677932    1.220786
     30          1           0        2.340667    0.150225    1.575146
     31          1           0        0.943795   -0.671202    2.231790
     32          1           0        2.144273   -2.302021    0.917672
     33          1           0        0.662641   -1.910564    0.041458
     34          1           0        2.530904   -2.088840   -1.511181
     35          1           0        1.971836   -0.398699   -1.483974
     36          1           0        5.547876    1.583157   -0.294109
     37          1           0       -2.430457    1.686179   -0.726173
     38          1           0       -3.256785    0.621996   -1.869898
     39          1           0       -4.612178    2.856570   -0.253779
     40          1           0       -4.212888    2.929219   -1.985603
     41          1           0       -5.433572    1.777055   -1.395446
 ---------------------------------------------------------------------

 SCF Done:  E(UB3LYP) =  -848.166602081     A.U. after   32 cycles

 The electronic state is 2-A.
 Alpha  occ. eigenvalues --  -19.08385 -19.07744 -19.03223 -19.03219 -19.02195
 Alpha  occ. eigenvalues --  -10.25912 -10.14105 -10.13301 -10.12744 -10.12533
 Alpha  occ. eigenvalues --  -10.12409 -10.08311 -10.08117 -10.07747 -10.07701
 Alpha  occ. eigenvalues --  -10.07336 -10.07122  -1.05614  -0.96741  -0.95134
 Alpha  occ. eigenvalues --   -0.93598  -0.93302  -0.72343  -0.70855  -0.67417
 Alpha  occ. eigenvalues --   -0.66792  -0.62566  -0.61902  -0.56533  -0.55143
 Alpha  occ. eigenvalues --   -0.53797  -0.50903  -0.48721  -0.46344  -0.45743
 Alpha  occ. eigenvalues --   -0.42405  -0.41387  -0.41123  -0.40127  -0.39100
 Alpha  occ. eigenvalues --   -0.37721  -0.37522  -0.36490  -0.35453  -0.34662
 Alpha  occ. eigenvalues --   -0.34123  -0.33443  -0.33342  -0.31853  -0.31292
 Alpha  occ. eigenvalues --   -0.30812  -0.29507  -0.29028  -0.28612  -0.28289
 Alpha  occ. eigenvalues --   -0.27546  -0.27336  -0.26357  -0.26080  -0.25029
 Alpha  occ. eigenvalues --   -0.24657  -0.24022  -0.22023  -0.21810  -0.21397
 Alpha  occ. eigenvalues --   -0.20475  -0.17745  -0.16214   0.03963
 Alpha virt. eigenvalues --    0.05443   0.06151   0.06552   0.07359   0.08060
 Alpha virt. eigenvalues --    0.08654   0.08903   0.09147   0.09994   0.10446
 Alpha virt. eigenvalues --    0.10999   0.11215   0.11232   0.11929   0.12115

  Beta  occ. eigenvalues --  -19.08367 -19.07680 -19.03221 -19.03218 -19.02181
  Beta  occ. eigenvalues --  -10.25908 -10.14092 -10.13295 -10.12741 -10.12529
  Beta  occ. eigenvalues --  -10.12393 -10.08298 -10.08111 -10.07739 -10.07683
  Beta  occ. eigenvalues --  -10.07303 -10.07106  -1.05558  -0.96655  -0.95129
  Beta  occ. eigenvalues --   -0.93594  -0.93255  -0.72319  -0.70831  -0.67391
  Beta  occ. eigenvalues --   -0.66775  -0.62532  -0.61865  -0.56495  -0.55076
  Beta  occ. eigenvalues --   -0.53761  -0.50850  -0.48671  -0.46298  -0.45706
  Beta  occ. eigenvalues --   -0.42379  -0.41370  -0.41096  -0.40097  -0.39084
  Beta  occ. eigenvalues --   -0.37692  -0.37495  -0.36465  -0.35415  -0.34626
  Beta  occ. eigenvalues --   -0.34099  -0.33410  -0.33313  -0.31824  -0.31271
  Beta  occ. eigenvalues --   -0.30789  -0.29486  -0.29009  -0.28583  -0.28270
  Beta  occ. eigenvalues --   -0.27526  -0.27320  -0.26327  -0.26052  -0.25010
  Beta  occ. eigenvalues --   -0.24632  -0.23975  -0.22007  -0.21791  -0.21381
  Beta  occ. eigenvalues --   -0.20438  -0.17737  -0.16206
  Beta virt. eigenvalues --    0.05768   0.06406   0.06833   0.07130   0.07982
  Beta virt. eigenvalues --    0.08242   0.08866   0.09077   0.09250   0.10353
  Beta virt. eigenvalues --    0.10610   0.11100   0.11298   0.11421   0.12034

 Mulliken charges and spin densities:
               1          2
     1  C    0.804343  -1.469931
     2  C   -0.548755   0.663113
     3  C   -0.125644  -0.462264
     4  C    0.035310  -0.422665
     5  O    0.081183   0.002556
     6  C   -0.425302   0.381025
     7  C    0.169768  -0.745365
     8  C   -0.093169  -0.145817
     9  C   -0.166380  -0.058941
    10  C    0.184406  -0.604629
    11  O   -0.015149  -0.034499
    12  C    0.440819  -0.389094
    13  O   -0.293692   0.012858
    14  O   -0.237346   0.048099
    15  O   -0.050743   0.008091
    16  C   -0.089438   0.047089
    17  C   -0.329102  -0.241490
    18  H   -0.188505   0.324896
    19  H   -0.412349   0.536924
    20  H   -0.183369   0.338265
    21  H    0.050770   0.090334
    22  H    0.023800   0.144086
    23  H   -0.136316   0.352991
    24  H    0.127792   0.049311
    25  H    0.004592   0.117565
    26  H    0.146349   0.108116
    27  H   -0.002863   0.155148
    28  H   -0.137776   0.303325
    29  H    0.055881   0.071630
    30  H    0.007122   0.206783
    31  H   -0.241186   0.410304
    32  H   -0.183735   0.393755
    33  H    0.847961  -0.743025
    34  H   -0.190981   0.394054
    35  H    0.165509   0.032286
    36  H   -0.622980   0.942639
    37  H    0.226918  -0.056065
    38  H    0.052620   0.074612
    39  H    0.098097   0.046006
    40  H    0.082011   0.047808
    41  H    0.069529   0.070116
 Sum of Mulliken charges =  -1.00000   1.00000

 Dipole moment (field-independent basis, Debye):
    X=             -6.2460    Y=              0.6875    Z=             -1.6263  Tot=              6.4908
 Quadrupole moment (field-independent basis, Debye-Ang):
   XX=           -219.5319   YY=           -158.3121   ZZ=           -136.8574
   XY=            -21.0108   XZ=              1.8407   YZ=              1.2118

 Summary of Natural Population Analysis:

                                       Natural Population
                Natural  -----------------------------------------------
    Atom  No    Charge         Core      Valence    Rydberg      Total
 -----------------------------------------------------------------------
      C    1   -0.28530      0.99966     2.28038    0.00525     3.28530
      C    2   -0.20749      0.99961     2.19904    0.00884     3.20749
      C    3    0.06261      0.99953     1.92190    0.01596     2.93739
      C    4   -0.02635      0.99953     2.01461    0.01221     3.02635
      O    5   -0.31386      0.99988     3.30518    0.00880     4.31386
      C    6    0.06153      0.99954     1.92546    0.01347     2.93847
      C    7   -0.29956      0.99964     2.29481    0.00510     3.29956
      C    8   -0.20492      0.99960     2.19645    0.00887     3.20492
      C    9   -0.20520      0.99961     2.19621    0.00938     3.20520
      C   10   -0.01127      0.99954     2.00178    0.00994     3.01127
      O   11   -0.27693      0.99985     3.26772    0.00936     4.27693
      C   12    0.51062      0.99976     1.46117    0.02846     2.48938
      O   13   -0.33204      0.99986     3.32597    0.00620     4.33204
      O   14   -0.33610      0.99987     3.32976    0.00647     4.33610
      O   15   -0.30851      0.99988     3.29861    0.01002     4.30851
      C   16   -0.01411      0.99959     2.00370    0.01082     3.01411
      C   17   -0.29126      0.99966     2.28694    0.00465     3.29126
      H   18    0.09648      0.00000     0.40230    0.00122     0.40352
      H   19    0.09731      0.00000     0.40123    0.00146     0.40269
      H   20    0.10058      0.00000     0.39850    0.00092     0.39942
      H   21    0.10258      0.00000     0.39559    0.00183     0.39742
      H   22    0.09887      0.00000     0.40000    0.00113     0.40113
      H   23    0.09127      0.00000     0.40722    0.00151     0.40873
      H   24    0.08758      0.00000     0.41101    0.00141     0.41242
      H   25    0.08485      0.00000     0.41364    0.00151     0.41515
      H   26    0.10072      0.00000     0.39740    0.00188     0.39928
      H   27    0.09662      0.00000     0.40246    0.00092     0.40338
      H   28    0.10834      0.00000     0.39082    0.00084     0.39166
      H   29    0.10125      0.00000     0.39785    0.00089     0.39875
      H   30    0.10515      0.00000     0.39353    0.00133     0.39485
      H   31    0.10006      0.00000     0.39867    0.00127     0.39994
      H   32    0.10163      0.00000     0.39725    0.00113     0.39837
      H   33    0.10610      0.00000     0.39204    0.00186     0.39390
      H   34    0.09273      0.00000     0.40613    0.00114     0.40727
      H   35    0.09813      0.00000     0.40035    0.00153     0.40187
      H   36    0.24955      0.00000     0.22106    0.02939     0.25045
      H   37    0.08849      0.00000     0.40958    0.00192     0.41151
      H   38    0.07723      0.00000     0.42123    0.00154     0.42277
      H   39    0.09857      0.00000     0.40021    0.00122     0.40143
      H   40    0.09660      0.00000     0.40255    0.00086     0.40340
      H   41    0.09750      0.00000     0.40122    0.00128     0.40250
 =======================================================================
   * Total *   -0.00000     16.99463    50.77157    0.23380    68.00000

 Normal termination of Gaussian 16 at Mon Dec 14 18:24:11 2020.
