 Gaussian 16, Revision A.03,

 -----------------------------------------------------------
 # opt freq B3LYP/6-31G(d) empiricaldispersion=gd3bj scf=xqc
 -----------------------------------------------------------

 ------------------------------
 CID_89373328_JID_2498_neutraal
 ------------------------------
 Symbolic Z-matrix:
 Charge =  0 Multiplicity = 1

 SCF Done:  E(RB3LYP) =  -532.460624656     A.U. after   15 cycles
 SCF Done:  E(RB3LYP) =  -532.466366084     A.U. after   13 cycles
 SCF Done:  E(RB3LYP) =  -532.467573419     A.U. after   13 cycles
 SCF Done:  E(RB3LYP) =  -532.467901938     A.U. after   12 cycles
 SCF Done:  E(RB3LYP) =  -532.467927163     A.U. after   10 cycles
 SCF Done:  E(RB3LYP) =  -532.467931256     A.U. after    9 cycles
 SCF Done:  E(RB3LYP) =  -532.467931667     A.U. after    8 cycles
 Optimization completed.
    -- Stationary point found.
 Normal termination of Gaussian 16 at Wed Dec  9 17:23:56 2020.

 --------------------------------------------------------------------
 #N Geom=AllCheck Guess=TCheck SCRF=Check GenChk RB3LYP/6-31G(d) Freq
 --------------------------------------------------------------------

 Structure from the checkpoint file:  "JID_2498.chk"
 ------------------------------
 CID_89373328_JID_2498_neutraal
 ------------------------------
 Charge =  0 Multiplicity = 1

 SCF Done:  E(RB3LYP) =  -532.467931667     A.U. after    1 cycles

  Exact polarizability: 158.261  -6.931 112.013   2.635   3.193  50.426
 Approx polarizability: 241.398 -15.596 189.660   7.367   7.033  78.886

                      1                      2                      3
                      A                      A                      A
 Frequencies --     92.1464               128.7898               146.5417
 Red. masses --      5.3882                 8.2014                 5.2026
 Frc consts  --      0.0270                 0.0801                 0.0658
 IR Inten    --      0.9534                 2.8708                 0.7301

                      4                      5                      6
                      A                      A                      A
 Frequencies --    173.2096               244.0255               287.2744
 Red. masses --      2.3587                 4.7533                 4.7476
 Frc consts  --      0.0417                 0.1668                 0.2308
 IR Inten    --      1.2497                 7.9742                 6.5395

                      7                      8                      9
                      A                      A                      A
 Frequencies --    360.7647               380.1883               409.1221
 Red. masses --      1.1492                 3.4691                 5.4474
 Frc consts  --      0.0881                 0.2954                 0.5372
 IR Inten    --     90.1598                21.4645                 0.7986

                     10                     11                     12
                      A                      A                      A
 Frequencies --    427.2758               480.3743               505.2888
 Red. masses --      3.8318                 4.9189                 5.3396
 Frc consts  --      0.4122                 0.6688                 0.8032
 IR Inten    --      5.3222                 1.3655                 3.5814

                     13                     14                     15
                      A                      A                      A
 Frequencies --    547.3344               596.0609               602.8235
 Red. masses --      5.9956                 5.2545                 4.8736
 Frc consts  --      1.0583                 1.0999                 1.0435
 IR Inten    --      6.9779                 0.0273                10.5767

                     16                     17                     18
                      A                      A                      A
 Frequencies --    653.8392               697.8499               743.1303
 Red. masses --      5.2521                 3.8474                 4.1053
 Frc consts  --      1.3229                 1.1039                 1.3357
 IR Inten    --     10.0476                 1.4581                 3.1468

                     19                     20                     21
                      A                      A                      A
 Frequencies --    797.2372               824.3722               845.0965
 Red. masses --      4.5865                 1.5183                 1.6515
 Frc consts  --      1.7175                 0.6079                 0.6949
 IR Inten    --      2.1183                18.5544                10.2589

                     22                     23                     24
                      A                      A                      A
 Frequencies --    893.2812               937.7711               950.3223
 Red. masses --      1.4861                 3.3237                 1.2990
 Frc consts  --      0.6987                 1.7221                 0.6912
 IR Inten    --     16.7543                20.4501                 0.1648

                     25                     26                     27
                      A                      A                      A
 Frequencies --    978.7094              1031.2712              1083.7444
 Red. masses --      2.2488                 3.9524                 2.5935
 Frc consts  --      1.2691                 2.4766                 1.7947
 IR Inten    --      1.0297                22.6676                14.1024

                     28                     29                     30
                      A                      A                      A
 Frequencies --   1093.6219              1134.8683              1173.3628
 Red. masses --      2.3138                 2.6050                 1.7173
 Frc consts  --      1.6305                 1.9768                 1.3930
 IR Inten    --     20.1771                 1.9888                 1.8889

                     31                     32                     33
                      A                      A                      A
 Frequencies --   1199.3155              1215.9943              1236.2236
 Red. masses --      1.3919                 1.6972                 1.4929
 Frc consts  --      1.1795                 1.4786                 1.3442
 IR Inten    --      4.7055                 1.7397                 1.0087

                     34                     35                     36
                      A                      A                      A
 Frequencies --   1293.4187              1304.4369              1325.1385
 Red. masses --      1.9336                 1.7236                 1.7045
 Frc consts  --      1.9059                 1.7279                 1.7635
 IR Inten    --     36.1166                12.9371                 1.3653

                     37                     38                     39
                      A                      A                      A
 Frequencies --   1376.9376              1379.1821              1409.6508
 Red. masses --      1.8162                 2.3169                 1.4055
 Frc consts  --      2.0288                 2.5966                 1.6456
 IR Inten    --     11.9171                 8.3654                62.5244

                     40                     41                     42
                      A                      A                      A
 Frequencies --   1478.3983              1509.0834              1531.9522
 Red. masses --      3.7558                 1.1546                 2.3500
 Frc consts  --      4.8366                 1.5492                 3.2495
 IR Inten    --     48.1814                 3.1535                26.7075

                     43                     44                     45
                      A                      A                      A
 Frequencies --   1546.5113              1635.5635              1672.8289
 Red. masses --      1.1712                 7.0689                 6.9468
 Frc consts  --      1.6505                11.1414                11.4535
 IR Inten    --      4.9938                11.8415                17.6502

                     46                     47                     48
                      A                      A                      A
 Frequencies --   2350.2501              3043.2786              3050.2622
 Red. masses --     12.6806                 1.0703                 1.0655
 Frc consts  --     41.2686                 5.8403                 5.8407
 IR Inten    --     39.9652                34.8412                26.9136

                     49                     50                     51
                      A                      A                      A
 Frequencies --   3113.7163              3131.7101              3197.9589
 Red. masses --      1.0957                 1.1001                 1.0896
 Frc consts  --      6.2588                 6.3567                 6.5656
 IR Inten    --     21.2368                37.4147                 9.9416

                     52                     53                     54
                      A                      A                      A
 Frequencies --   3226.6081              3242.6264              3732.1334
 Red. masses --      1.0937                 1.0919                 1.0684
 Frc consts  --      6.7089                 6.7646                 8.7678
 IR Inten    --      4.3910                 0.3641                52.1364

 - Thermochemistry -
 -------------------
 Temperature   298.150 Kelvin.  Pressure   1.00000 Atm.
 Atom     1 has atomic number  6 and mass  12.00000

 Molecular mass:   160.06366 amu.
 Principal axes and moments of inertia in atomic units:
                           1         2         3
     Eigenvalues --   940.344142729.004373610.64164
           X            1.00000   0.00214  -0.00047
           Y           -0.00214   0.99997   0.00717
           Z            0.00049  -0.00716   0.99997
 This molecule is an asymmetric top.
 Rotational symmetry number  1.
 Warning -- assumption of classical behavior for rotation
           may cause significant error
 Rotational temperatures (Kelvin)      0.09211     0.03174     0.02399
 Rotational constants (GHZ):           1.91923     0.66132     0.49984
 Zero-point vibrational energy     409259.7 (Joules/Mol)
                                   97.81541 (Kcal/Mol)
 Warning -- explicit consideration of  15 degrees of freedom as
           vibrations may cause significant error
 Vibrational temperatures:    132.58   185.30   210.84   249.21   351.10
          (Kelvin)            413.32   519.06   547.01   588.64   614.75
                              691.15   727.00   787.49   857.60   867.33
                              940.73  1004.05  1069.20  1147.05  1186.09
                             1215.91  1285.23  1349.24  1367.30  1408.14
                             1483.77  1559.27  1573.48  1632.82  1688.21
                             1725.55  1749.54  1778.65  1860.94  1876.79
                             1906.58  1981.11  1984.34  2028.17  2127.09
                             2171.23  2204.14  2225.08  2353.21  2406.83
                             3381.49  4378.60  4388.65  4479.94  4505.83
                             4601.15  4642.37  4665.42  5369.71

 Zero-point correction=                           0.155879 (Hartree/Particle)
 Thermal correction to Energy=                    0.165559
 Thermal correction to Enthalpy=                  0.166504
 Thermal correction to Gibbs Free Energy=         0.120867
 Sum of electronic and zero-point Energies=           -532.312053
 Sum of electronic and thermal Energies=              -532.302372
 Sum of electronic and thermal Enthalpies=            -532.301428
 Sum of electronic and thermal Free Energies=         -532.347065

                     E (Thermal)             CV                S
                      KCal/Mol        Cal/Mol-Kelvin    Cal/Mol-Kelvin
 Total                  103.890             38.026             96.050
 Electronic               0.000              0.000              0.000
 Translational            0.889              2.981             41.120
 Rotational               0.889              2.981             30.606
 Vibrational            102.113             32.064             24.324
 Vibration     1          0.602              1.955              3.614
 Vibration     2          0.611              1.924              2.964
 Vibration     3          0.617              1.906              2.717
 Vibration     4          0.627              1.875              2.400
 Vibration     5          0.659              1.773              1.773
 Vibration     6          0.684              1.697              1.490
 Vibration     7          0.735              1.553              1.119
 Vibration     8          0.750              1.512              1.038
 Vibration     9          0.773              1.450              0.930
 Vibration    10          0.789              1.411              0.868
 Vibration    11          0.837              1.294              0.709
 Vibration    12          0.861              1.238              0.645
 Vibration    13          0.903              1.146              0.550
 Vibration    14          0.954              1.040              0.456
 Vibration    15          0.961              1.026              0.445

 Optimization completed.
    -- Stationary point found.
 Normal termination of Gaussian 16 at Wed Dec  9 17:27:57 2020.

 ----------------------------------------------------------------------
 # B3LYP/6-311++G(d,p) empiricaldispersion=gd3bj scf=xqc pop=npa geom=c
 heck
 ----------------------------------------------------------------------

 --------------------------------------
 CID_89373328_JID_2498_Energie_neutraal
 --------------------------------------
 Structure from the checkpoint file:  "JID_2498.chk"
 Charge =  0 Multiplicity = 1

 SCF Done:  E(RB3LYP) =  -532.617032354     A.U. after   16 cycles
 Normal termination of Gaussian 16 at Wed Dec  9 17:29:57 2020.

 ----------------------------------------------------------------------
 # B3LYP/6-311++G(d,p) empiricaldispersion=gd3bj scf=xqc pop=npa geom=c
 heck
 ----------------------------------------------------------------------

 ------------------------------------
 CID_89373328_JID_2498_Energie_kation
 ------------------------------------
 Structure from the checkpoint file:  "JID_2498.chk"
 Charge =  1 Multiplicity = 2

 SCF Done:  E(UB3LYP) =  -532.314451219     A.U. after   23 cycles
 Normal termination of Gaussian 16 at Wed Dec  9 17:33:14 2020.
 Gaussian 16:  ES64L-G16RevA.03 25-Dec-2016

 ----------------------------------------------------------------------
 # B3LYP/6-311++G(d,p) empiricaldispersion=gd3bj scf=xqc pop=npa geom=c
 heck
 ----------------------------------------------------------------------

 -----------------------------------
 CID_89373328_JID_2498_Energie_anion
 -----------------------------------
 Structure from the checkpoint file:  "JID_2498.chk"
 Charge = -1 Multiplicity = 2

                         Standard orientation:
 ---------------------------------------------------------------------
 Center     Atomic      Atomic             Coordinates (Angstroms)
 Number     Number       Type             X           Y           Z
 ---------------------------------------------------------------------
      1          6           0       -2.233841    1.397159   -0.089765
      2          6           0       -2.815926   -0.005107    0.197832
      3          7           0       -1.784264   -0.915070   -0.350025
      4          6           0       -0.548341   -0.257561   -0.172821
      5          6           0       -0.746592    1.124617   -0.045716
      6          6           0        0.342455    1.976033    0.075953
      7          6           0        1.631835    1.437323    0.090434
      8          6           0        1.813613    0.047827   -0.017495
      9          6           0        0.717161   -0.823750   -0.151469
     10          6           0        3.140413   -0.492762    0.016651
     11          7           0        4.218164   -0.929759    0.042252
     12          8           0       -1.816069   -2.183743    0.304657
     13          1           0       -2.534006    1.739764   -1.088722
     14          1           0       -2.566501    2.147443    0.633295
     15          1           0       -3.780733   -0.191063   -0.279261
     16          1           0       -2.907716   -0.179296    1.278464
     17          1           0        0.199561    3.048067    0.177992
     18          1           0        2.498255    2.080694    0.195071
     19          1           0        0.856865   -1.895843   -0.213477
     20          1           0       -2.079119   -2.788692   -0.407831
 ---------------------------------------------------------------------

 SCF Done:  E(UB3LYP) =  -532.618449447     A.U. after   31 cycles

 The electronic state is 2-A.
 Alpha  occ. eigenvalues --  -19.04566 -14.25351 -14.16271 -10.08998 -10.07644
 Alpha  occ. eigenvalues --  -10.06688 -10.06463 -10.06009 -10.05255 -10.04671
 Alpha  occ. eigenvalues --  -10.04269 -10.03598  -0.96373  -0.79255  -0.76548
 Alpha  occ. eigenvalues --   -0.71632  -0.65521  -0.62062  -0.60367  -0.52015
 Alpha  occ. eigenvalues --   -0.48369  -0.47944  -0.42304  -0.40070  -0.37450
 Alpha  occ. eigenvalues --   -0.35249  -0.33761  -0.31810  -0.31438  -0.29840
 Alpha  occ. eigenvalues --   -0.27588  -0.27062  -0.25681  -0.24095  -0.23335
 Alpha  occ. eigenvalues --   -0.22093  -0.21541  -0.19589  -0.19034  -0.16900
 Alpha  occ. eigenvalues --   -0.12830  -0.09342   0.04650
 Alpha virt. eigenvalues --    0.07010   0.08088   0.09063   0.10182   0.10790
 Alpha virt. eigenvalues --    0.11300   0.11764   0.12857   0.13411   0.14972
 Alpha virt. eigenvalues --    0.15290   0.15884   0.16569   0.17855   0.18026

  Beta  occ. eigenvalues --  -19.04539 -14.25351 -14.16053 -10.08980 -10.07726
  Beta  occ. eigenvalues --  -10.06707 -10.06456 -10.05792 -10.05280 -10.04601
  Beta  occ. eigenvalues --  -10.04000 -10.03316  -0.96320  -0.79116  -0.76215
  Beta  occ. eigenvalues --   -0.71338  -0.65199  -0.61786  -0.60087  -0.51655
  Beta  occ. eigenvalues --   -0.48099  -0.47816  -0.42157  -0.39955  -0.37282
  Beta  occ. eigenvalues --   -0.35091  -0.33599  -0.31683  -0.31307  -0.29691
  Beta  occ. eigenvalues --   -0.27406  -0.26758  -0.24960  -0.23985  -0.23058
  Beta  occ. eigenvalues --   -0.21847  -0.20883  -0.19479  -0.18903  -0.16601
  Beta  occ. eigenvalues --   -0.11246  -0.08684
  Beta virt. eigenvalues --    0.07621   0.08443   0.09283   0.09383   0.10570
  Beta virt. eigenvalues --    0.11064   0.11632   0.11816   0.12848   0.13500
  Beta virt. eigenvalues --    0.14976   0.15309   0.15916   0.16696   0.17871

 Mulliken charges and spin densities:
               1          2
     1  C   -0.329350  -0.186004
     2  C    0.198319  -0.505516
     3  N   -0.080324   0.023176
     4  C   -1.062391  -0.029051
     5  C    1.395202   0.248469
     6  C   -0.318856   0.072988
     7  C   -0.627430   0.026340
     8  C    2.252974   0.044171
     9  C   -0.364391   0.043904
    10  C   -1.647760  -0.116675
    11  N   -0.300562   0.116445
    12  O   -0.130497   0.021032
    13  H   -0.172552   0.345868
    14  H    0.146219  -0.020406
    15  H   -0.459836   0.641469
    16  H    0.187152  -0.048291
    17  H    0.086878   0.027583
    18  H    0.126260   0.002816
    19  H    0.097757   0.037331
    20  H    0.003187   0.254351
 Sum of Mulliken charges =  -1.00000   1.00000

 Dipole moment (field-independent basis, Debye):
    X=             -3.2962    Y=              2.9756    Z=              1.7217  Tot=              4.7627
 Quadrupole moment (field-independent basis, Debye-Ang):
   XX=           -135.7206   YY=            -87.5414   ZZ=            -84.8030
   XY=              4.9046   XZ=             -6.3690   YZ=              3.2521

 Summary of Natural Population Analysis:

                                       Natural Population
                Natural  -----------------------------------------------
    Atom  No    Charge         Core      Valence    Rydberg      Total
 -----------------------------------------------------------------------
      C    1   -0.20271      0.99961     2.19505    0.00806     3.20271
      C    2   -0.08039      0.99962     2.06883    0.01194     3.08039
      N    3   -0.11508      0.99961     2.59956    0.01592     3.61508
      C    4    0.06545      0.99941     1.92213    0.01301     2.93455
      C    5    0.02075      0.99946     1.97074    0.00905     2.97925
      C    6   -0.09668      0.99952     2.08813    0.00904     3.09668
      C    7   -0.09478      0.99955     2.08483    0.01040     3.09478
      C    8   -0.05942      0.99943     2.05142    0.00857     3.05942
      C    9   -0.03984      0.99949     2.03127    0.00908     3.03984
      C   10    0.15402      0.99964     1.82746    0.01888     2.84598
      N   11   -0.17845      0.99979     2.66796    0.01070     3.67845
      O   12   -0.29197      0.99991     3.28493    0.00714     4.29197
      H   13    0.10580      0.00000     0.39194    0.00226     0.39420
      H   14    0.10036      0.00000     0.39878    0.00086     0.39964
      H   15    0.09542      0.00000     0.40176    0.00282     0.40458
      H   16    0.08808      0.00000     0.41054    0.00139     0.41192
      H   17    0.09438      0.00000     0.40478    0.00084     0.40562
      H   18    0.09786      0.00000     0.40141    0.00074     0.40214
      H   19    0.10432      0.00000     0.39440    0.00128     0.39568
      H   20    0.23290      0.00000     0.26186    0.00524     0.26710
 =======================================================================
   * Total *   -0.00000     11.99503    29.85775    0.14722    42.00000

 Normal termination of Gaussian 16 at Wed Dec  9 17:37:54 2020.
