 Gaussian 16, Revision A.03,

 -----------------------------------------------------------
 # opt freq B3LYP/6-31G(d) empiricaldispersion=gd3bj scf=xqc
 -----------------------------------------------------------

 -------------------------------
 CID_145268069_JID_9832_neutraal
 -------------------------------
 Symbolic Z-matrix:
 Charge =  0 Multiplicity = 1

 SCF Done:  E(RB3LYP) =  -1164.20037749     A.U. after   15 cycles
 SCF Done:  E(RB3LYP) =  -1164.20813245     A.U. after   12 cycles
 SCF Done:  E(RB3LYP) =  -1164.21052153     A.U. after   12 cycles
 SCF Done:  E(RB3LYP) =  -1164.21211270     A.U. after   13 cycles
 SCF Done:  E(RB3LYP) =  -1164.21290910     A.U. after   13 cycles
 SCF Done:  E(RB3LYP) =  -1164.21369920     A.U. after   14 cycles
 SCF Done:  E(RB3LYP) =  -1164.21391015     A.U. after   13 cycles
 SCF Done:  E(RB3LYP) =  -1164.21406937     A.U. after   11 cycles
 SCF Done:  E(RB3LYP) =  -1164.21416123     A.U. after   12 cycles
 SCF Done:  E(RB3LYP) =  -1164.21421715     A.U. after   12 cycles
 SCF Done:  E(RB3LYP) =  -1164.21469985     A.U. after   10 cycles
 SCF Done:  E(RB3LYP) =  -1164.21470005     A.U. after    8 cycles
 SCF Done:  E(RB3LYP) =  -1164.21470024     A.U. after    8 cycles
 SCF Done:  E(RB3LYP) =  -1164.21470024     A.U. after    7 cycles
 SCF Done:  E(RB3LYP) =  -1164.21470023     A.U. after    7 cycles
 Optimization completed.
    -- Stationary point found.
 Normal termination of Gaussian 16 at Thu Dec 17 20:35:37 2020.

 --------------------------------------------------------------------
 #N Geom=AllCheck Guess=TCheck SCRF=Check GenChk RB3LYP/6-31G(d) Freq
 --------------------------------------------------------------------

 Structure from the checkpoint file:  "JID_9832.chk"
 -------------------------------
 CID_145268069_JID_9832_neutraal
 -------------------------------
 Charge =  0 Multiplicity = 1

 SCF Done:  E(RB3LYP) =  -1164.21470023     A.U. after    1 cycles

  Exact polarizability: 270.502  15.739 176.843  -1.489 -14.326 133.285
 Approx polarizability: 339.695  35.245 295.693  -4.887 -36.144 229.668

                      1                      2                      3
                      A                      A                      A
 Frequencies --      6.4067                29.3591                45.6294
 Red. masses --      5.0394                 4.1916                 3.9393
 Frc consts  --      0.0001                 0.0021                 0.0048
 IR Inten    --      0.7185                 1.6614                 1.6192

                      4                      5                      6
                      A                      A                      A
 Frequencies --     70.8781                77.0398               102.7306
 Red. masses --      2.0594                 1.5877                 2.9464
 Frc consts  --      0.0061                 0.0056                 0.0183
 IR Inten    --      1.1531                 0.6831                 2.5679

                      7                      8                      9
                      A                      A                      A
 Frequencies --    125.1722               133.0862               177.4602
 Red. masses --      5.1959                 3.7041                 4.4956
 Frc consts  --      0.0480                 0.0387                 0.0834
 IR Inten    --      0.0580                 1.1584                 2.3987

                     10                     11                     12
                      A                      A                      A
 Frequencies --    215.9601               243.6512               298.5202
 Red. masses --      6.2318                 5.2898                 3.3349
 Frc consts  --      0.1712                 0.1850                 0.1751
 IR Inten    --      0.3772                 2.8207                 4.4697

                     13                     14                     15
                      A                      A                      A
 Frequencies --    317.5846               319.4814               337.9185
 Red. masses --      3.1064                 4.0027                 2.5411
 Frc consts  --      0.1846                 0.2407                 0.1710
 IR Inten    --      3.6615                 2.4228                 3.0602

                     16                     17                     18
                      A                      A                      A
 Frequencies --    374.5254               391.2727               406.7760
 Red. masses --      5.5335                 3.7934                 1.5480
 Frc consts  --      0.4573                 0.3422                 0.1509
 IR Inten    --     21.6149                 8.1529                55.5674

                     19                     20                     21
                      A                      A                      A
 Frequencies --    426.8708               442.4417               464.2209
 Red. masses --      3.7388                 2.8541                 3.2878
 Frc consts  --      0.4014                 0.3292                 0.4174
 IR Inten    --      5.7426                31.1153                 8.5288

                     22                     23                     24
                      A                      A                      A
 Frequencies --    478.5103               503.9925               534.0423
 Red. masses --      5.1533                 3.1711                 2.3841
 Frc consts  --      0.6952                 0.4746                 0.4006
 IR Inten    --      0.3781                 4.8761                 9.2558

                     25                     26                     27
                      A                      A                      A
 Frequencies --    556.2208               615.9031               626.9015
 Red. masses --      5.0218                 4.8203                 5.7688
 Frc consts  --      0.9154                 1.0773                 1.3358
 IR Inten    --      3.3642                 4.1829                15.5414

                     28                     29                     30
                      A                      A                      A
 Frequencies --    651.9880               671.9913               721.2428
 Red. masses --      7.9426                 3.0504                 3.8318
 Frc consts  --      1.9893                 0.8116                 1.1744
 IR Inten    --      1.4733                 6.6992                 0.2795

                     31                     32                     33
                      A                      A                      A
 Frequencies --    752.9891               759.2913               771.5246
 Red. masses --      4.7936                 3.9774                 5.3666
 Frc consts  --      1.6014                 1.3510                 1.8821
 IR Inten    --      2.4686                 2.0263                 0.9242

                     34                     35                     36
                      A                      A                      A
 Frequencies --    824.9930               831.0054               837.0727
 Red. masses --      1.6800                 5.5997                 1.3420
 Frc consts  --      0.6737                 2.2783                 0.5540
 IR Inten    --     31.9519                17.7046                16.4407

                     37                     38                     39
                      A                      A                      A
 Frequencies --    877.7464               892.3636               893.2132
 Red. masses --      3.4496                 1.3911                 1.7459
 Frc consts  --      1.5659                 0.6527                 0.8207
 IR Inten    --      8.5780                12.4961                 0.5104

                     40                     41                     42
                      A                      A                      A
 Frequencies --    908.6566               922.3680               941.8123
 Red. masses --      2.3677                 5.9924                 1.3015
 Frc consts  --      1.1518                 3.0037                 0.6802
 IR Inten    --     19.7832                70.4481                 0.7849

                     43                     44                     45
                      A                      A                      A
 Frequencies --    955.0114               972.4193               972.7863
 Red. masses --      2.5332                 1.2897                 1.3136
 Frc consts  --      1.3613                 0.7185                 0.7324
 IR Inten    --      5.0357                 1.1770                 0.5140

                     46                     47                     48
                      A                      A                      A
 Frequencies --   1018.2458              1031.3342              1049.1777
 Red. masses --      1.5230                 2.0192                 2.6471
 Frc consts  --      0.9303                 1.2654                 1.7168
 IR Inten    --      1.3765                21.4116                 9.0310

                     49                     50                     51
                      A                      A                      A
 Frequencies --   1079.0179              1093.6313              1107.6981
 Red. masses --      1.4831                 4.1605                 2.0386
 Frc consts  --      1.0174                 2.9318                 1.4738
 IR Inten    --      3.3799                66.8895                 0.7079

                     52                     53                     54
                      A                      A                      A
 Frequencies --   1114.1817              1168.9773              1177.4592
 Red. masses --      1.7174                 1.5689                 1.2158
 Frc consts  --      1.2562                 1.2631                 0.9931
 IR Inten    --      1.0881                 5.6831                 9.0468

                     55                     56                     57
                      A                      A                      A
 Frequencies --   1213.7884              1223.9068              1248.3108
 Red. masses --      1.8333                 1.3922                 1.6331
 Frc consts  --      1.5913                 1.2287                 1.4994
 IR Inten    --     11.4578                13.9003                 3.3485

                     58                     59                     60
                      A                      A                      A
 Frequencies --   1258.8241              1265.8209              1268.2577
 Red. masses --      2.4858                 2.9599                 2.4125
 Frc consts  --      2.3208                 2.7943                 2.2863
 IR Inten    --     11.8117               238.1390                15.5552

                     61                     62                     63
                      A                      A                      A
 Frequencies --   1292.1704              1318.7994              1341.6528
 Red. masses --      1.3669                 1.2087                 3.1701
 Frc consts  --      1.3447                 1.2386                 3.3621
 IR Inten    --      2.7437                29.3538                43.6305

                     64                     65                     66
                      A                      A                      A
 Frequencies --   1351.0148              1357.8858              1378.9094
 Red. masses --      3.1693                 2.8021                 1.8493
 Frc consts  --      3.4083                 3.0441                 2.0717
 IR Inten    --     80.0054                40.2999                18.1137

                     67                     68                     69
                      A                      A                      A
 Frequencies --   1392.8816              1412.1994              1430.2264
 Red. masses --      1.4516                 1.6885                 1.4364
 Frc consts  --      1.6594                 1.9841                 1.7312
 IR Inten    --      2.5646                10.1174                27.5949

                     70                     71                     72
                      A                      A                      A
 Frequencies --   1446.8782              1455.9987              1467.0386
 Red. masses --      1.2490                 3.1193                 2.0031
 Frc consts  --      1.5406                 3.8960                 2.5400
 IR Inten    --      7.8029                91.8234               102.3387

                     73                     74                     75
                      A                      A                      A
 Frequencies --   1505.3404              1515.2506              1515.8333
 Red. masses --      1.1245                 1.0441                 1.1332
 Frc consts  --      1.5014                 1.4124                 1.5341
 IR Inten    --      3.3149                 4.8656                 5.2085

                     76                     77                     78
                      A                      A                      A
 Frequencies --   1527.3651              1531.9546              1539.7049
 Red. masses --      1.1312                 1.7718                 1.3233
 Frc consts  --      1.5548                 2.4499                 1.8484
 IR Inten    --     42.4399                38.1759                 4.2090

                     79                     80                     81
                      A                      A                      A
 Frequencies --   1542.2228              1619.0526              1623.5602
 Red. masses --      2.5249                 7.0227                 5.1217
 Frc consts  --      3.5383                10.8461                 7.9543
 IR Inten    --    226.9429                57.0748                13.6706

                     82                     83                     84
                      A                      A                      A
 Frequencies --   1658.6276              1671.4327              3017.9261
 Red. masses --      6.4911                 5.8249                 1.0709
 Frc consts  --     10.5212                 9.5878                 5.7466
 IR Inten    --     34.6027               136.4262                45.8809

                     85                     86                     87
                      A                      A                      A
 Frequencies --   3025.6071              3039.9951              3057.8584
 Red. masses --      1.0693                 1.0374                 1.0623
 Frc consts  --      5.7672                 5.6486                 5.8525
 IR Inten    --     46.7065                51.4163                20.4214

                     88                     89                     90
                      A                      A                      A
 Frequencies --   3079.1713              3090.1889              3104.5264
 Red. masses --      1.0917                 1.1013                 1.1046
 Frc consts  --      6.0987                 6.1964                 6.2726
 IR Inten    --     29.9348                22.9621                48.4017

                     91                     92                     93
                      A                      A                      A
 Frequencies --   3121.4620              3125.1140              3156.3431
 Red. masses --      1.1003                 1.0957                 1.0902
 Frc consts  --      6.3167                 6.3051                 6.3991
 IR Inten    --     14.7162                45.3432                39.6827

                     94                     95                     96
                      A                      A                      A
 Frequencies --   3173.2612              3176.4160              3195.2824
 Red. masses --      1.0894                 1.0873                 1.0952
 Frc consts  --      6.4635                 6.4638                 6.5881
 IR Inten    --     16.7354                15.5348                18.3447

                     97                     98                     99
                      A                      A                      A
 Frequencies --   3218.2094              3237.6037              3600.2390
 Red. masses --      1.0909                 1.0930                 1.0766
 Frc consts  --      6.6570                 6.7504                 8.2215
 IR Inten    --      2.4658                 7.3324                30.3811

 - Thermochemistry -
 -------------------
 Temperature   298.150 Kelvin.  Pressure   1.00000 Atm.
 Atom     1 has atomic number  6 and mass  12.00000

 Molecular mass:   272.09834 amu.
 Principal axes and moments of inertia in atomic units:
                           1         2         3
     Eigenvalues --  2314.95753********************
           X            1.00000   0.00273  -0.00000
           Y           -0.00273   0.99969  -0.02484
           Z           -0.00007   0.02484   0.99969
 This molecule is an asymmetric top.
 Rotational symmetry number  1.
 Warning -- assumption of classical behavior for rotation
           may cause significant error
 Rotational temperatures (Kelvin)      0.03741     0.00728     0.00659
 Rotational constants (GHZ):           0.77960     0.15172     0.13736
 Zero-point vibrational energy     748353.1 (Joules/Mol)
                                  178.86068 (Kcal/Mol)
 Warning -- explicit consideration of  26 degrees of freedom as
           vibrations may cause significant error
 Vibrational temperatures:      9.22    42.24    65.65   101.98   110.84
          (Kelvin)            147.81   180.09   191.48   255.33   310.72
                              350.56   429.50   456.93   459.66   486.19
                              538.86   562.95   585.26   614.17   636.57
                              667.91   688.47   725.13   768.37   800.28
                              886.15   901.97   938.07   966.85  1037.71
                             1083.38  1092.45  1110.05  1186.98  1195.63
                             1204.36  1262.88  1283.91  1285.13  1307.35
                             1327.08  1355.06  1374.05  1399.09  1399.62
                             1465.03  1483.86  1509.53  1552.47  1573.49
                             1593.73  1603.06  1681.90  1694.10  1746.37
                             1760.93  1796.04  1811.17  1821.23  1824.74
                             1859.15  1897.46  1930.34  1943.81  1953.69
                             1983.94  2004.05  2031.84  2057.78  2081.73
                             2094.86  2110.74  2165.85  2180.11  2180.95
                             2197.54  2204.14  2215.29  2218.91  2329.46
                             2335.94  2386.40  2404.82  4342.12  4353.17
                             4373.87  4399.58  4430.24  4446.09  4466.72
                             4491.09  4496.34  4541.27  4565.62  4570.15
                             4597.30  4630.29  4658.19  5179.94

 Zero-point correction=                           0.285033 (Hartree/Particle)
 Thermal correction to Energy=                    0.302050
 Thermal correction to Enthalpy=                  0.302994
 Thermal correction to Gibbs Free Energy=         0.237041
 Sum of electronic and zero-point Energies=          -1163.929668
 Sum of electronic and thermal Energies=             -1163.912650
 Sum of electronic and thermal Enthalpies=           -1163.911706
 Sum of electronic and thermal Free Energies=        -1163.977659

                     E (Thermal)             CV                S
                      KCal/Mol        Cal/Mol-Kelvin    Cal/Mol-Kelvin
 Total                  189.539             65.473            138.810
 Electronic               0.000              0.000              0.000
 Translational            0.889              2.981             42.702
 Rotational               0.889              2.981             34.247
 Vibrational            187.762             59.512             61.861
 Vibration     1          0.593              1.987              8.896
 Vibration     2          0.593              1.984              5.872
 Vibration     3          0.595              1.979              4.998
 Vibration     4          0.598              1.968              4.129
 Vibration     5          0.599              1.964              3.965
 Vibration     6          0.605              1.947              3.402
 Vibration     7          0.610              1.928              3.019
 Vibration     8          0.613              1.920              2.901
 Vibration     9          0.628              1.870              2.355
 Vibration    10          0.645              1.817              1.993
 Vibration    11          0.659              1.773              1.776
 Vibration    12          0.692              1.676              1.425
 Vibration    13          0.704              1.640              1.323
 Vibration    14          0.705              1.636              1.313
 Vibration    15          0.718              1.600              1.222
 Vibration    16          0.746              1.524              1.061
 Vibration    17          0.759              1.489              0.995
 Vibration    18          0.772              1.455              0.938
 Vibration    19          0.789              1.412              0.869
 Vibration    20          0.802              1.378              0.819
 Vibration    21          0.822              1.329              0.754
 Vibration    22          0.835              1.298              0.714
 Vibration    23          0.859              1.241              0.648
 Vibration    24          0.889              1.175              0.578
 Vibration    25          0.912              1.126              0.531
 Vibration    26          0.975              0.998              0.423

 Optimization completed.
    -- Stationary point found.
 Normal termination of Gaussian 16 at Thu Dec 17 20:50:20 2020.

 ----------------------------------------------------------------------
 # B3LYP/6-311++G(d,p) empiricaldispersion=gd3bj scf=xqc pop=npa geom=c
 heck
 ----------------------------------------------------------------------

 ---------------------------------------
 CID_145268069_JID_9832_Energie_neutraal
 ---------------------------------------
 Structure from the checkpoint file:  "JID_9832.chk"
 Charge =  0 Multiplicity = 1

 SCF Done:  E(RB3LYP) =  -1164.44136174     A.U. after   16 cycles
 Normal termination of Gaussian 16 at Thu Dec 17 20:57:33 2020.

 ----------------------------------------------------------------------
 # B3LYP/6-311++G(d,p) empiricaldispersion=gd3bj scf=xqc pop=npa geom=c
 heck
 ----------------------------------------------------------------------

 -------------------------------------
 CID_145268069_JID_9832_Energie_kation
 -------------------------------------
 Structure from the checkpoint file:  "JID_9832.chk"
 Charge =  1 Multiplicity = 2

 SCF Done:  E(UB3LYP) =  -1164.17107056     A.U. after   30 cycles
 Normal termination of Gaussian 16 at Thu Dec 17 21:17:36 2020.
 Gaussian 16:  ES64L-G16RevA.03 25-Dec-2016

 ----------------------------------------------------------------------
 # B3LYP/6-311++G(d,p) empiricaldispersion=gd3bj scf=xqc pop=npa geom=c
 heck
 ----------------------------------------------------------------------

 ------------------------------------
 CID_145268069_JID_9832_Energie_anion
 ------------------------------------
 Structure from the checkpoint file:  "JID_9832.chk"
 Charge = -1 Multiplicity = 2

                         Standard orientation:
 ---------------------------------------------------------------------
 Center     Atomic      Atomic             Coordinates (Angstroms)
 Number     Number       Type             X           Y           Z
 ---------------------------------------------------------------------
      1          6           0        5.700803    2.119176   -0.056564
      2          6           0        4.628975    1.076423    0.125882
      3          6           0        3.722850    0.767242   -0.886029
      4          7           0        2.742717   -0.140966   -0.790606
      5          6           0        2.625960   -0.817194    0.351998
      6          6           0        3.482639   -0.591553    1.450617
      7          6           0        4.478579    0.360441    1.324841
      8          7           0        1.637844   -1.791663    0.458483
      9         16           0        0.486759   -2.183913   -0.740544
     10          6           0       -0.782117   -0.926753   -0.541399
     11          6           0       -2.033582   -1.303062   -0.056605
     12          6           0       -3.053561   -0.352113    0.060371
     13          6           0       -2.823311    0.990768   -0.276739
     14          6           0       -3.918690    2.021258   -0.107714
     15          6           0       -5.015678    1.495607    0.823551
     16          6           0       -5.368771    0.069776    0.420382
     17          8           0       -4.247798   -0.808703    0.552751
     18          6           0       -1.554684    1.341284   -0.756522
     19          6           0       -0.538968    0.405041   -0.909830
     20          1           0        5.648164    2.565904   -1.054594
     21          1           0        5.605613    2.930521    0.675929
     22          1           0        6.704505    1.692457    0.063039
     23          1           0        3.781299    1.289918   -1.840586
     24          1           0        3.364159   -1.160294    2.368778
     25          1           0        5.149868    0.551137    2.159301
     26          1           0        1.439058   -2.125441    1.392180
     27          1           0       -2.238003   -2.327936    0.234346
     28          1           0       -4.356518    2.263500   -1.086893
     29          1           0       -3.495786    2.955999    0.278640
     30          1           0       -5.909399    2.127921    0.777913
     31          1           0       -4.664067    1.491757    1.862359
     32          1           0       -6.144841   -0.359279    1.058652
     33          1           0       -5.722428    0.044664   -0.621371
     34          1           0       -1.370137    2.380662   -1.020523
     35          1           0        0.436164    0.681103   -1.293055
 ---------------------------------------------------------------------

 SCF Done:  E(UB3LYP) =  -1164.43171337     A.U. after   33 cycles
 SCF Done:  E(UB3LYP) =  -1164.43215570     a.u. after    9 cycles

 The electronic state is 2-A.
 Alpha  occ. eigenvalues --  -88.76887 -19.05400 -14.24662 -14.20707 -10.15334
 Alpha  occ. eigenvalues --  -10.13297 -10.13240 -10.11213 -10.09476 -10.09476
 Alpha  occ. eigenvalues --  -10.09037 -10.08915 -10.08675 -10.08361 -10.08153
 Alpha  occ. eigenvalues --  -10.07931 -10.07556 -10.07350 -10.06739  -7.85202
 Alpha  occ. eigenvalues --   -5.81777  -5.81205  -5.80456  -0.97163  -0.87647
 Alpha  occ. eigenvalues --   -0.81443  -0.76149  -0.72294  -0.71671  -0.68942
 Alpha  occ. eigenvalues --   -0.66840  -0.64832  -0.62038  -0.59311  -0.56736
 Alpha  occ. eigenvalues --   -0.54541  -0.53227  -0.51551  -0.50564  -0.46176
 Alpha  occ. eigenvalues --   -0.44868  -0.42778  -0.40626  -0.39926  -0.39298
 Alpha  occ. eigenvalues --   -0.38127  -0.36124  -0.35314  -0.34605  -0.34448
 Alpha  occ. eigenvalues --   -0.34310  -0.33411  -0.32654  -0.32053  -0.31024
 Alpha  occ. eigenvalues --   -0.30666  -0.30274  -0.30092  -0.28239  -0.27847
 Alpha  occ. eigenvalues --   -0.26469  -0.25140  -0.24861  -0.22810  -0.21795
 Alpha  occ. eigenvalues --   -0.20481  -0.19390  -0.17193  -0.16262  -0.13708
 Alpha  occ. eigenvalues --   -0.12518  -0.12208   0.03864
 Alpha virt. eigenvalues --    0.05051   0.05712   0.05943   0.06438   0.07559
 Alpha virt. eigenvalues --    0.07666   0.07834   0.08269   0.08778   0.08932
 Alpha virt. eigenvalues --    0.09119   0.09854   0.10171   0.10414   0.11135

  Beta  occ. eigenvalues --  -88.76878 -19.05406 -14.24597 -14.20658 -10.15329
  Beta  occ. eigenvalues --  -10.13300 -10.13218 -10.11202 -10.09426 -10.09416
  Beta  occ. eigenvalues --  -10.09039 -10.08899 -10.08651 -10.08356 -10.08123
  Beta  occ. eigenvalues --  -10.07830 -10.07553 -10.07311 -10.06719  -7.85192
  Beta  occ. eigenvalues --   -5.81755  -5.81199  -5.80449  -0.97161  -0.87578
  Beta  occ. eigenvalues --   -0.81348  -0.76043  -0.72229  -0.71588  -0.68861
  Beta  occ. eigenvalues --   -0.66750  -0.64753  -0.61961  -0.59244  -0.56663
  Beta  occ. eigenvalues --   -0.54448  -0.53169  -0.51474  -0.50497  -0.46090
  Beta  occ. eigenvalues --   -0.44803  -0.42714  -0.40572  -0.39873  -0.39241
  Beta  occ. eigenvalues --   -0.38060  -0.36054  -0.35259  -0.34550  -0.34395
  Beta  occ. eigenvalues --   -0.34245  -0.33362  -0.32583  -0.31965  -0.30979
  Beta  occ. eigenvalues --   -0.30597  -0.30146  -0.30053  -0.28188  -0.27785
  Beta  occ. eigenvalues --   -0.26397  -0.25035  -0.24796  -0.22741  -0.21723
  Beta  occ. eigenvalues --   -0.20397  -0.19187  -0.17129  -0.15972  -0.13565
  Beta  occ. eigenvalues --   -0.12351  -0.12026
  Beta virt. eigenvalues --    0.05600   0.06016   0.06288   0.06728   0.07039
  Beta virt. eigenvalues --    0.07593   0.08011   0.08051   0.08434   0.08979
  Beta virt. eigenvalues --    0.09123   0.09506   0.09928   0.10275   0.10595

 Mulliken charges and spin densities:
               1          2
     1  C    0.740599  -1.314936
     2  C    0.369621   0.641053
     3  C   -0.779452  -0.067919
     4  N   -0.057700   0.053837
     5  C    0.361975  -1.329897
     6  C   -0.434018   1.430643
     7  C   -0.005297  -0.808696
     8  N   -0.093556  -0.008488
     9  S    0.169407  -0.293590
    10  C    0.723954   0.017365
    11  C   -0.313005  -0.280237
    12  C   -0.383403  -1.007115
    13  C    1.360913   0.410142
    14  C   -0.532005  -0.094719
    15  C    0.237400  -0.565773
    16  C    0.048105  -0.242016
    17  O   -0.142147   0.047531
    18  C   -0.435623   0.327530
    19  C   -0.881172   0.355769
    20  H   -0.000189   0.130506
    21  H   -0.041099   0.194165
    22  H    0.059210   0.086290
    23  H    0.095615   0.047590
    24  H   -0.589835   0.767763
    25  H   -0.315169   0.478063
    26  H    0.156892   0.144543
    27  H    0.140488   0.056110
    28  H   -0.106272   0.293480
    29  H    0.125374   0.014813
    30  H   -0.791919   0.979237
    31  H    0.183736  -0.039087
    32  H   -0.165599   0.347963
    33  H    0.007083   0.146516
    34  H    0.076244   0.082080
    35  H    0.210844  -0.000518
 Sum of Mulliken charges =  -1.00000   1.00000

 Dipole moment (field-independent basis, Debye):
    X=              3.3681    Y=             -0.5624    Z=             -1.0245  Tot=              3.5651
 Quadrupole moment (field-independent basis, Debye-Ang):
   XX=           -243.0533   YY=           -154.2313   ZZ=           -150.0194
   XY=             13.8375   XZ=             -8.7524   YZ=             -1.5461

 Summary of Natural Population Analysis:

                                       Natural Population
                Natural  -----------------------------------------------
    Atom  No    Charge         Core      Valence    Rydberg      Total
 -----------------------------------------------------------------------
      C    1   -0.28905      0.99964     2.28478    0.00463     3.28905
      C    2   -0.06132      0.99951     2.05233    0.00948     3.06132
      C    3    0.03584      0.99953     1.95170    0.01294     2.96416
      N    4   -0.24819      0.99966     2.73832    0.01021     3.74819
      C    5    0.19802      0.99951     1.78590    0.01657     2.80198
      C    6   -0.13063      0.99952     2.12154    0.00957     3.13063
      C    7   -0.06947      0.99952     2.06020    0.00975     3.06947
      N    8   -0.37776      0.99967     2.86608    0.01201     3.87776
      S    9    0.21242      4.99949     2.76393    0.02416     7.78758
      C   10   -0.08680      0.99940     2.07622    0.01118     3.08680
      C   11   -0.11170      0.99946     2.10193    0.01032     3.11170
      C   12    0.15674      0.99933     1.83172    0.01221     2.84326
      C   13   -0.02944      0.99948     2.02137    0.00859     3.02944
      C   14   -0.19729      0.99961     2.18831    0.00938     3.19729
      C   15   -0.20359      0.99964     2.19568    0.00828     3.20359
      C   16   -0.00753      0.99957     1.99495    0.01301     3.00753
      O   17   -0.28081      0.99986     3.27221    0.00873     4.28081
      C   18   -0.09105      0.99953     2.08370    0.00782     3.09105
      C   19   -0.10881      0.99950     2.09968    0.00963     3.10881
      H   20    0.10072      0.00000     0.39834    0.00094     0.39928
      H   21    0.10277      0.00000     0.39577    0.00146     0.39723
      H   22    0.10036      0.00000     0.39838    0.00126     0.39964
      H   23    0.08617      0.00000     0.41265    0.00118     0.41383
      H   24    0.10367      0.00000     0.39477    0.00156     0.39633
      H   25    0.10023      0.00000     0.39866    0.00111     0.39977
      H   26    0.19197      0.00000     0.30563    0.00240     0.30803
      H   27    0.10613      0.00000     0.39200    0.00187     0.39387
      H   28    0.10573      0.00000     0.39249    0.00178     0.39427
      H   29    0.10276      0.00000     0.39628    0.00096     0.39724
      H   30    0.10705      0.00000     0.38998    0.00297     0.39295
      H   31    0.09735      0.00000     0.40150    0.00115     0.40265
      H   32    0.09210      0.00000     0.40667    0.00123     0.40790
      H   33    0.08253      0.00000     0.41591    0.00157     0.41747
      H   34    0.09656      0.00000     0.40223    0.00121     0.40344
      H   35    0.11434      0.00000     0.38377    0.00189     0.38566
 =======================================================================
   * Total *   -0.00000     22.99142    48.77559    0.23299    72.00000

 Normal termination of Gaussian 16 at Fri Dec 18 00:55:51 2020.
