 Gaussian 16, Revision A.03,

 -----------------------------------------------------------
 # opt freq B3LYP/6-31G(d) empiricaldispersion=gd3bj scf=xqc
 -----------------------------------------------------------

 ------------------------------
 CID_89485632_JID_7568_neutraal
 ------------------------------
 Symbolic Z-matrix:
 Charge =  0 Multiplicity = 1

 SCF Done:  E(RB3LYP) =  -786.122088451     A.U. after   14 cycles
 SCF Done:  E(RB3LYP) =  -786.126222627     A.U. after   12 cycles
 SCF Done:  E(RB3LYP) =  -786.126642490     A.U. after   13 cycles
 SCF Done:  E(RB3LYP) =  -786.127042645     A.U. after   11 cycles
 SCF Done:  E(RB3LYP) =  -786.127197466     A.U. after   11 cycles
 SCF Done:  E(RB3LYP) =  -786.127230872     A.U. after   12 cycles
 SCF Done:  E(RB3LYP) =  -786.127307058     A.U. after   10 cycles
 SCF Done:  E(RB3LYP) =  -786.127358494     A.U. after   10 cycles
 SCF Done:  E(RB3LYP) =  -786.127371928     A.U. after   11 cycles
 SCF Done:  E(RB3LYP) =  -786.127376719     A.U. after   10 cycles
 SCF Done:  E(RB3LYP) =  -786.127383448     A.U. after    9 cycles
 SCF Done:  E(RB3LYP) =  -786.127385280     A.U. after    9 cycles
 SCF Done:  E(RB3LYP) =  -786.127386011     A.U. after    9 cycles
 SCF Done:  E(RB3LYP) =  -786.127386154     A.U. after    7 cycles
 SCF Done:  E(RB3LYP) =  -786.127386180     A.U. after    7 cycles
 Optimization completed.
    -- Stationary point found.
 Normal termination of Gaussian 16 at Sun Dec 13 12:34:34 2020.

 --------------------------------------------------------------------
 #N Geom=AllCheck Guess=TCheck SCRF=Check GenChk RB3LYP/6-31G(d) Freq
 --------------------------------------------------------------------

 Structure from the checkpoint file:  "JID_7568.chk"
 ------------------------------
 CID_89485632_JID_7568_neutraal
 ------------------------------
 Charge =  0 Multiplicity = 1

 SCF Done:  E(RB3LYP) =  -786.127386180     A.U. after    1 cycles

  Exact polarizability: 170.294  11.979 146.011  10.705 -11.230 109.434
 Approx polarizability: 228.714  21.657 230.263  20.245 -20.049 181.549

                      1                      2                      3
                      A                      A                      A
 Frequencies --     23.0337                38.3420                59.1163
 Red. masses --      4.5177                 5.2056                 5.3269
 Frc consts  --      0.0014                 0.0045                 0.0110
 IR Inten    --      0.0093                 0.1220                 0.4863

                      4                      5                      6
                      A                      A                      A
 Frequencies --     76.2642                86.0815               111.7279
 Red. masses --      4.6696                 7.3514                 4.6067
 Frc consts  --      0.0160                 0.0321                 0.0339
 IR Inten    --      2.5497                 0.9651                 0.0946

                      7                      8                      9
                      A                      A                      A
 Frequencies --    149.3497               210.1487               234.7837
 Red. masses --      2.3659                 4.5138                 5.1768
 Frc consts  --      0.0311                 0.1174                 0.1681
 IR Inten    --      7.0698                 3.1143                 0.4404

                     10                     11                     12
                      A                      A                      A
 Frequencies --    249.3932               288.2684               317.1686
 Red. masses --      4.5199                 1.3307                 2.7506
 Frc consts  --      0.1656                 0.0652                 0.1630
 IR Inten    --      3.7822               108.1248                12.6401

                     13                     14                     15
                      A                      A                      A
 Frequencies --    347.4636               379.5586               399.0959
 Red. masses --      3.0380                 2.8966                 2.9629
 Frc consts  --      0.2161                 0.2459                 0.2780
 IR Inten    --     11.2558                 1.2469                 1.2577

                     16                     17                     18
                      A                      A                      A
 Frequencies --    416.1437               419.2328               477.0995
 Red. masses --      2.9739                 2.5096                 3.2279
 Frc consts  --      0.3034                 0.2599                 0.4329
 IR Inten    --      0.0843                 3.8505                 4.0344

                     19                     20                     21
                      A                      A                      A
 Frequencies --    494.8111               546.1312               548.2414
 Red. masses --      2.8685                 2.4822                 1.4196
 Frc consts  --      0.4138                 0.4362                 0.2514
 IR Inten    --     13.5262                23.5399                65.5913

                     22                     23                     24
                      A                      A                      A
 Frequencies --    582.2274               589.7490               637.0698
 Red. masses --      3.8550                 4.5398                 6.3203
 Frc consts  --      0.7699                 0.9303                 1.5113
 IR Inten    --     30.0460                23.3954                 0.1991

                     25                     26                     27
                      A                      A                      A
 Frequencies --    656.0067               687.4449               713.1965
 Red. masses --      3.6775                 2.8788                 2.0176
 Frc consts  --      0.9324                 0.8016                 0.6046
 IR Inten    --      5.7290                 5.0380                22.1324

                     28                     29                     30
                      A                      A                      A
 Frequencies --    744.3915               759.6785               779.8112
 Red. masses --      1.9981                 8.9503                 2.8716
 Frc consts  --      0.6523                 3.0433                 1.0289
 IR Inten    --     19.0235                34.2257                 5.4774

                     31                     32                     33
                      A                      A                      A
 Frequencies --    814.3857               837.6507               859.9245
 Red. masses --      2.9465                 2.3660                 1.2518
 Frc consts  --      1.1514                 0.9781                 0.5454
 IR Inten    --      3.1213                19.1067                 0.0205

                     34                     35                     36
                      A                      A                      A
 Frequencies --    878.2962               918.7701               927.9999
 Red. masses --      1.8703                 2.2975                 1.4279
 Frc consts  --      0.8500                 1.1427                 0.7245
 IR Inten    --      1.9142                 3.5575                 6.0881

                     37                     38                     39
                      A                      A                      A
 Frequencies --    958.4335               969.5902               989.2973
 Red. masses --      2.1807                 1.3500                 1.8061
 Frc consts  --      1.1803                 0.7478                 1.0415
 IR Inten    --     16.1861                 0.2380                17.5488

                     40                     41                     42
                      A                      A                      A
 Frequencies --    996.7913              1022.1496              1023.9940
 Red. masses --      1.2853                 4.3187                 2.7276
 Frc consts  --      0.7524                 2.6585                 1.6851
 IR Inten    --      1.1191                 5.1901                 1.9873

                     43                     44                     45
                      A                      A                      A
 Frequencies --   1051.3220              1065.0110              1084.0927
 Red. masses --      2.4548                 2.2034                 4.0854
 Frc consts  --      1.5986                 1.4725                 2.8289
 IR Inten    --     74.0996                 2.5611               105.7109

                     46                     47                     48
                      A                      A                      A
 Frequencies --   1086.5679              1105.6203              1121.2017
 Red. masses --      2.3731                 1.8034                 1.5440
 Frc consts  --      1.6507                 1.2989                 1.1436
 IR Inten    --     18.3699                 2.7344                 6.9360

                     49                     50                     51
                      A                      A                      A
 Frequencies --   1143.6563              1164.0684              1184.8434
 Red. masses --      1.8864                 1.8025                 1.4236
 Frc consts  --      1.4537                 1.4391                 1.1775
 IR Inten    --     61.1280                36.1077                93.1017

                     52                     53                     54
                      A                      A                      A
 Frequencies --   1195.0953              1216.7379              1221.9588
 Red. masses --      1.0964                 1.6101                 1.1888
 Frc consts  --      0.9226                 1.4044                 1.0459
 IR Inten    --      0.2585               128.6577                 5.7616

                     55                     56                     57
                      A                      A                      A
 Frequencies --   1224.1498              1266.8814              1285.0158
 Red. masses --      1.7948                 1.4757                 2.0435
 Frc consts  --      1.5847                 1.3955                 1.9881
 IR Inten    --      9.4881                50.3504                39.0152

                     58                     59                     60
                      A                      A                      A
 Frequencies --   1310.5882              1336.5401              1345.7497
 Red. masses --      1.4072                 1.7718                 1.5256
 Frc consts  --      1.4241                 1.8648                 1.6278
 IR Inten    --     16.9925                 6.6410                 5.0211

                     61                     62                     63
                      A                      A                      A
 Frequencies --   1360.1612              1370.2887              1373.5787
 Red. masses --      1.8409                 1.5341                 1.5227
 Frc consts  --      2.0067                 1.6972                 1.6927
 IR Inten    --      6.1982                 1.6548                15.5326

                     64                     65                     66
                      A                      A                      A
 Frequencies --   1385.7745              1389.0993              1410.8968
 Red. masses --      1.4510                 1.5261                 1.2589
 Frc consts  --      1.6417                 1.7350                 1.4765
 IR Inten    --      9.6144                 1.5161                35.6926

                     67                     68                     69
                      A                      A                      A
 Frequencies --   1416.4023              1423.7200              1447.1619
 Red. masses --      1.3882                 1.3882                 1.3514
 Frc consts  --      1.6408                 1.6579                 1.6675
 IR Inten    --      9.7081                 5.4712                20.3370

                     70                     71                     72
                      A                      A                      A
 Frequencies --   1495.7562              1497.6908              1521.5624
 Red. masses --      2.2518                 2.3028                 1.1094
 Frc consts  --      2.9682                 3.0433                 1.5133
 IR Inten    --    114.8892                76.8236                 3.6408

                     73                     74                     75
                      A                      A                      A
 Frequencies --   1528.0346              1537.3687              1540.2796
 Red. masses --      1.1905                 1.1718                 1.1400
 Frc consts  --      1.6378                 1.6318                 1.5935
 IR Inten    --     13.6600                39.8060                11.1460

                     76                     77                     78
                      A                      A                      A
 Frequencies --   1550.5246              1645.7793              1668.0861
 Red. masses --      1.9678                 5.4962                 5.5422
 Frc consts  --      2.7873                 8.7711                 9.0859
 IR Inten    --      6.4892                 1.1462                 4.7342

                     79                     80                     81
                      A                      A                      A
 Frequencies --   1815.5409              3025.3082              3047.1130
 Red. masses --      8.6686                 1.0686                 1.0734
 Frc consts  --     16.8350                 5.7627                 5.8720
 IR Inten    --    473.5813                29.2765                 7.2147

                     82                     83                     84
                      A                      A                      A
 Frequencies --   3055.9233              3059.3853              3065.9684
 Red. masses --      1.0680                 1.0683                 1.0743
 Frc consts  --      5.8765                 5.8910                 5.9497
 IR Inten    --     36.6434                23.1514                42.5602

                     85                     86                     87
                      A                      A                      A
 Frequencies --   3087.5474              3101.0297              3103.8438
 Red. masses --      1.0988                 1.0975                 1.0997
 Frc consts  --      6.1717                 6.2183                 6.2422
 IR Inten    --     43.6083                65.9230                16.3600

                     88                     89                     90
                      A                      A                      A
 Frequencies --   3109.5363              3169.2261              3183.4072
 Red. masses --      1.0837                 1.0935                 1.0849
 Frc consts  --      6.1739                 6.4710                 6.4776
 IR Inten    --      9.3991                 6.6261                 0.9779

                     91                     92                     93
                      A                      A                      A
 Frequencies --   3191.9175              3204.4053              3211.6718
 Red. masses --      1.0884                 1.0917                 1.0932
 Frc consts  --      6.5334                 6.6043                 6.6437
 IR Inten    --      8.2661                28.4184                29.0291

                     94                     95                     96
                      A                      A                      A
 Frequencies --   3216.9100              3738.1224              3761.4932
 Red. masses --      1.0953                 1.0646                 1.0663
 Frc consts  --      6.6781                 8.7650                 8.8887
 IR Inten    --      8.6600                96.0534                 9.6222

 - Thermochemistry -
 -------------------
 Temperature   298.150 Kelvin.  Pressure   1.00000 Atm.
 Atom     1 has atomic number  6 and mass  12.00000

 Molecular mass:   235.12084 amu.
 Principal axes and moments of inertia in atomic units:
                           1         2         3
     Eigenvalues --  2464.690845343.655066724.21608
           X            0.99999  -0.00355   0.00235
           Y            0.00361   0.99965  -0.02636
           Z           -0.00226   0.02637   0.99965
 This molecule is an asymmetric top.
 Rotational symmetry number  1.
 Warning -- assumption of classical behavior for rotation
           may cause significant error
 Rotational temperatures (Kelvin)      0.03514     0.01621     0.01288
 Rotational constants (GHZ):           0.73224     0.33774     0.26839
 Zero-point vibrational energy     761650.0 (Joules/Mol)
                                  182.03871 (Kcal/Mol)
 Warning -- explicit consideration of  23 degrees of freedom as
           vibrations may cause significant error
 Vibrational temperatures:     33.14    55.17    85.06   109.73   123.85
          (Kelvin)            160.75   214.88   302.36   337.80   358.82
                              414.75   456.33   499.92   546.10   574.21
                              598.74   603.18   686.44   711.92   785.76
                              788.80   837.70   848.52   916.60   943.85
                              989.08  1026.13  1071.01  1093.01  1121.97
                             1171.72  1205.19  1237.24  1263.67  1321.91
                             1335.18  1378.97  1395.02  1423.38  1434.16
                             1470.65  1473.30  1512.62  1532.31  1559.77
                             1563.33  1590.74  1613.16  1645.47  1674.83
                             1704.73  1719.48  1750.61  1758.13  1761.28
                             1822.76  1848.85  1885.64  1922.98  1936.23
                             1956.97  1971.54  1976.27  1993.82  1998.60
                             2029.97  2037.89  2048.42  2082.14  2152.06
                             2154.84  2189.19  2198.50  2211.93  2216.12
                             2230.86  2367.91  2400.00  2612.16  4352.74
                             4384.12  4396.79  4401.77  4411.24  4442.29
                             4461.69  4465.74  4473.93  4559.81  4580.21
                             4592.46  4610.42  4620.88  4628.42  5378.32
                             5411.95

 Zero-point correction=                           0.290097 (Hartree/Particle)
 Thermal correction to Energy=                    0.305349
 Thermal correction to Enthalpy=                  0.306293
 Thermal correction to Gibbs Free Energy=         0.246190
 Sum of electronic and zero-point Energies=           -785.837289
 Sum of electronic and thermal Energies=              -785.822037
 Sum of electronic and thermal Enthalpies=            -785.821093
 Sum of electronic and thermal Free Energies=         -785.881196

                     E (Thermal)             CV                S
                      KCal/Mol        Cal/Mol-Kelvin    Cal/Mol-Kelvin
 Total                  191.610             59.534            126.499
 Electronic               0.000              0.000              0.000
 Translational            0.889              2.981             42.266
 Rotational               0.889              2.981             32.849
 Vibrational            189.832             53.572             51.384
 Vibration     1          0.593              1.985              6.354
 Vibration     2          0.594              1.982              5.343
 Vibration     3          0.596              1.974              4.486
 Vibration     4          0.599              1.965              3.985
 Vibration     5          0.601              1.959              3.747
 Vibration     6          0.607              1.940              3.239
 Vibration     7          0.618              1.903              2.680
 Vibration     8          0.642              1.825              2.042
 Vibration     9          0.655              1.788              1.842
 Vibration    10          0.662              1.764              1.735
 Vibration    11          0.685              1.696              1.484
 Vibration    12          0.704              1.641              1.325
 Vibration    13          0.725              1.580              1.178
 Vibration    14          0.750              1.514              1.041
 Vibration    15          0.765              1.472              0.966
 Vibration    16          0.779              1.435              0.905
 Vibration    17          0.782              1.428              0.895
 Vibration    18          0.834              1.301              0.718
 Vibration    19          0.850              1.262              0.671
 Vibration    20          0.901              1.148              0.552
 Vibration    21          0.903              1.144              0.548
 Vibration    22          0.939              1.070              0.481
 Vibration    23          0.947              1.054              0.468

 Optimization completed.
    -- Stationary point found.
 Normal termination of Gaussian 16 at Sun Dec 13 12:48:15 2020.

 ----------------------------------------------------------------------
 # B3LYP/6-311++G(d,p) empiricaldispersion=gd3bj scf=xqc pop=npa geom=c
 heck
 ----------------------------------------------------------------------

 --------------------------------------
 CID_89485632_JID_7568_Energie_neutraal
 --------------------------------------
 Structure from the checkpoint file:  "JID_7568.chk"
 Charge =  0 Multiplicity = 1

 SCF Done:  E(RB3LYP) =  -786.363375665     A.U. after   15 cycles
 Normal termination of Gaussian 16 at Sun Dec 13 12:54:55 2020.

 ----------------------------------------------------------------------
 # B3LYP/6-311++G(d,p) empiricaldispersion=gd3bj scf=xqc pop=npa geom=c
 heck
 ----------------------------------------------------------------------

 ------------------------------------
 CID_89485632_JID_7568_Energie_kation
 ------------------------------------
 Structure from the checkpoint file:  "JID_7568.chk"
 Charge =  1 Multiplicity = 2

 SCF Done:  E(UB3LYP) =  -786.051571687     A.U. after   28 cycles
 Normal termination of Gaussian 16 at Sun Dec 13 13:13:05 2020.
 Gaussian 16:  ES64L-G16RevA.03 25-Dec-2016

 ----------------------------------------------------------------------
 # B3LYP/6-311++G(d,p) empiricaldispersion=gd3bj scf=xqc pop=npa geom=c
 heck
 ----------------------------------------------------------------------

 -----------------------------------
 CID_89485632_JID_7568_Energie_anion
 -----------------------------------
 Structure from the checkpoint file:  "JID_7568.chk"
 Charge = -1 Multiplicity = 2

                         Standard orientation:
 ---------------------------------------------------------------------
 Center     Atomic      Atomic             Coordinates (Angstroms)
 Number     Number       Type             X           Y           Z
 ---------------------------------------------------------------------
      1          6           0        0.899788   -1.963690    0.112716
      2          6           0        0.497203   -1.126927    1.335817
      3          6           0       -0.261460    0.150957    0.932281
      4          7           0        0.563794    0.879697   -0.042345
      5          6           0        0.918637    0.141713   -1.256982
      6          6           0        1.696164   -1.140195   -0.917718
      7          6           0        3.122199   -0.806122   -0.453669
      8          8           0        3.900625   -1.964161   -0.171720
      9          6           0        1.136377    2.052842    0.337779
     10          8           0        0.925003    2.643635    1.386405
     11          8           0        2.003341    2.539459   -0.601306
     12          6           0       -1.671531   -0.063928    0.383775
     13          6           0       -2.272788    0.956867   -0.365193
     14          6           0       -3.573428    0.824248   -0.845757
     15          6           0       -4.303112   -0.337115   -0.585226
     16          6           0       -3.718262   -1.357693    0.161750
     17          6           0       -2.413945   -1.221260    0.641645
     18          1           0        1.482413   -2.840232    0.420801
     19          1           0       -0.003212   -2.353071   -0.372334
     20          1           0       -0.096751   -1.722675    2.036030
     21          1           0        1.388814   -0.808124    1.889005
     22          1           0       -0.332067    0.809098    1.801733
     23          1           0        1.492744    0.798341   -1.909321
     24          1           0       -0.012720   -0.117777   -1.774089
     25          1           0        1.789092   -1.733694   -1.836388
     26          1           0        3.647592   -0.282113   -1.258483
     27          1           0        3.101981   -0.125113    0.409293
     28          1           0        3.607250   -2.315915    0.681485
     29          1           0        2.321263    3.375988   -0.220849
     30          1           0       -1.708255    1.860605   -0.572675
     31          1           0       -4.017960    1.629573   -1.424034
     32          1           0       -5.316676   -0.444104   -0.960944
     33          1           0       -4.273780   -2.267482    0.371970
     34          1           0       -1.983086   -2.030830    1.220868
 ---------------------------------------------------------------------

 SCF Done:  E(UB3LYP) =  -786.354085640     A.U. after   33 cycles
 SCF Done:  E(UB3LYP) =  -786.354085641     a.u. after    1 cycles

 The electronic state is 2-A.
 Alpha  occ. eigenvalues --  -19.07377 -19.02827 -19.00342 -14.25410 -10.22857
 Alpha  occ. eigenvalues --  -10.12289 -10.12014 -10.11642 -10.09333 -10.08701
 Alpha  occ. eigenvalues --  -10.08566 -10.08521 -10.08435 -10.08344 -10.08253
 Alpha  occ. eigenvalues --  -10.07757 -10.07540  -1.01823  -0.92908  -0.92064
 Alpha  occ. eigenvalues --   -0.86347  -0.76925  -0.71983  -0.69941  -0.65851
 Alpha  occ. eigenvalues --   -0.65096  -0.60287  -0.59497  -0.54743  -0.52211
 Alpha  occ. eigenvalues --   -0.51325  -0.49646  -0.46313  -0.44775  -0.42635
 Alpha  occ. eigenvalues --   -0.41573  -0.39669  -0.38815  -0.37544  -0.36730
 Alpha  occ. eigenvalues --   -0.36289  -0.36201  -0.34581  -0.34210  -0.33637
 Alpha  occ. eigenvalues --   -0.33085  -0.31305  -0.31124  -0.30225  -0.29083
 Alpha  occ. eigenvalues --   -0.27688  -0.26615  -0.26068  -0.25014  -0.24957
 Alpha  occ. eigenvalues --   -0.23905  -0.23028  -0.22581  -0.19226  -0.18527
 Alpha  occ. eigenvalues --   -0.16739  -0.16238  -0.15388   0.03939
 Alpha virt. eigenvalues --    0.05774   0.06002   0.06925   0.07246   0.07406
 Alpha virt. eigenvalues --    0.07942   0.08314   0.09457   0.09908   0.10379
 Alpha virt. eigenvalues --    0.10844   0.11421   0.12195   0.12486   0.12988

  Beta  occ. eigenvalues --  -19.07341 -19.02793 -19.00333 -14.25401 -10.22852
  Beta  occ. eigenvalues --  -10.12289 -10.11997 -10.11635 -10.09315 -10.08697
  Beta  occ. eigenvalues --  -10.08564 -10.08503 -10.08410 -10.08330 -10.08239
  Beta  occ. eigenvalues --  -10.07726 -10.07515  -1.01774  -0.92836  -0.92026
  Beta  occ. eigenvalues --   -0.86326  -0.76886  -0.71948  -0.69904  -0.65809
  Beta  occ. eigenvalues --   -0.65051  -0.60246  -0.59444  -0.54685  -0.52153
  Beta  occ. eigenvalues --   -0.51283  -0.49602  -0.46260  -0.44733  -0.42576
  Beta  occ. eigenvalues --   -0.41521  -0.39640  -0.38782  -0.37508  -0.36683
  Beta  occ. eigenvalues --   -0.36251  -0.36163  -0.34549  -0.34178  -0.33596
  Beta  occ. eigenvalues --   -0.33052  -0.31277  -0.31090  -0.30195  -0.29053
  Beta  occ. eigenvalues --   -0.27627  -0.26584  -0.26033  -0.24978  -0.24920
  Beta  occ. eigenvalues --   -0.23866  -0.22995  -0.22551  -0.19198  -0.18493
  Beta  occ. eigenvalues --   -0.16689  -0.16172  -0.15340
  Beta virt. eigenvalues --    0.06019   0.06613   0.07100   0.07125   0.07330
  Beta virt. eigenvalues --    0.08026   0.08152   0.08783   0.09836   0.10285
  Beta virt. eigenvalues --    0.10693   0.11032   0.11433   0.12418   0.12692

 Mulliken charges and spin densities:
               1          2
     1  C    0.771929  -1.427829
     2  C    0.638517  -0.858867
     3  C    0.626557  -0.969005
     4  N    0.019802   0.043454
     5  C    0.133448  -0.751406
     6  C   -1.238697   1.582882
     7  C    0.572223  -1.135441
     8  O   -0.248719   0.003702
     9  C    0.295833  -0.079355
    10  O   -0.314727   0.020369
    11  O   -0.215255   0.038166
    12  C   -0.273514   0.888466
    13  C    0.063075  -0.172389
    14  C   -0.531696   0.173420
    15  C    0.890237  -1.285388
    16  C    0.699088  -0.995738
    17  C   -1.597427   1.350221
    18  H   -0.305408   0.484466
    19  H    0.090115   0.019406
    20  H   -0.541315   0.731670
    21  H   -0.038258   0.226099
    22  H    0.153264   0.127765
    23  H    0.201386   0.039486
    24  H    0.128775   0.008894
    25  H    0.019135   0.183034
    26  H    0.098389   0.075365
    27  H   -0.038187   0.228970
    28  H   -0.081924   0.340442
    29  H   -0.150743   0.461756
    30  H    0.064462   0.114670
    31  H   -0.157070   0.334931
    32  H   -0.151192   0.295683
    33  H   -0.638000   0.824762
    34  H    0.055895   0.077337
 Sum of Mulliken charges =  -1.00000   1.00000

 Dipole moment (field-independent basis, Debye):
    X=             -0.7015    Y=              2.0856    Z=             -3.2299  Tot=              3.9082
 Quadrupole moment (field-independent basis, Debye-Ang):
   XX=           -180.9519   YY=           -157.9051   ZZ=           -134.3529
   XY=             -1.5425   XZ=             -2.2811   YZ=              2.7031

 Summary of Natural Population Analysis:

                                       Natural Population
                Natural  -----------------------------------------------
    Atom  No    Charge         Core      Valence    Rydberg      Total
 -----------------------------------------------------------------------
      C    1   -0.19606      0.99961     2.18615    0.01030     3.19606
      C    2   -0.19628      0.99961     2.18629    0.01038     3.19628
      C    3   -0.01375      0.99954     2.00079    0.01342     3.01375
      N    4   -0.26695      0.99962     2.75443    0.01291     3.76695
      C    5   -0.08567      0.99958     2.07641    0.00968     3.08567
      C    6   -0.12686      0.99958     2.11669    0.01059     3.12686
      C    7   -0.00921      0.99956     1.99644    0.01321     3.00921
      O    8   -0.36914      0.99990     3.36298    0.00626     4.36914
      C    9    0.46155      0.99965     1.51360    0.02520     2.53845
      O   10   -0.33884      0.99987     3.33382    0.00515     4.33884
      O   11   -0.35555      0.99988     3.34970    0.00598     4.35555
      C   12   -0.01709      0.99949     2.00692    0.01069     3.01709
      C   13   -0.09743      0.99951     2.08989    0.00802     3.09743
      C   14   -0.09985      0.99956     2.09085    0.00944     3.09985
      C   15   -0.10323      0.99956     2.09348    0.01019     3.10323
      C   16   -0.09631      0.99956     2.08644    0.01031     3.09631
      C   17   -0.10218      0.99951     2.09340    0.00927     3.10218
      H   18    0.10413      0.00000     0.39414    0.00173     0.39587
      H   19    0.10166      0.00000     0.39676    0.00158     0.39834
      H   20    0.10637      0.00000     0.39197    0.00166     0.39363
      H   21    0.10325      0.00000     0.39516    0.00159     0.39675
      H   22    0.12617      0.00000     0.37233    0.00150     0.37383
      H   23    0.11285      0.00000     0.38570    0.00145     0.38715
      H   24    0.10095      0.00000     0.39782    0.00123     0.39905
      H   25    0.10151      0.00000     0.39747    0.00101     0.39849
      H   26    0.08676      0.00000     0.41207    0.00117     0.41324
      H   27    0.08027      0.00000     0.41821    0.00152     0.41973
      H   28    0.23075      0.00000     0.26502    0.00423     0.26925
      H   29    0.24585      0.00000     0.24836    0.00579     0.25415
      H   30    0.10524      0.00000     0.39345    0.00131     0.39476
      H   31    0.09988      0.00000     0.39929    0.00083     0.40012
      H   32    0.10054      0.00000     0.39847    0.00098     0.39946
      H   33    0.10217      0.00000     0.39653    0.00130     0.39783
      H   34    0.10451      0.00000     0.39366    0.00184     0.39549
 =======================================================================
   * Total *    0.00000     16.99359    45.79468    0.21173    63.00000

 Normal termination of Gaussian 16 at Sun Dec 13 13:33:50 2020.
