 Gaussian 16, Revision A.03,

 -----------------------------------------------------------
 # opt freq B3LYP/6-31G(d) empiricaldispersion=gd3bj scf=xqc
 -----------------------------------------------------------

 --------------------------------
 CID_114387209_JID_10687_neutraal
 --------------------------------
 Symbolic Z-matrix:
 Charge =  0 Multiplicity = 1

 SCF Done:  E(RB3LYP) =  -896.350856975     A.U. after   15 cycles
 SCF Done:  E(RB3LYP) =  -896.367803957     A.U. after   12 cycles
 SCF Done:  E(RB3LYP) =  -896.365287130     A.U. after   13 cycles
 SCF Done:  E(RB3LYP) =  -896.363675852     A.U. after   13 cycles
 SCF Done:  E(RB3LYP) =  -896.363387346     A.U. after   12 cycles
 SCF Done:  E(RB3LYP) =  -896.368290243     A.U. after   10 cycles
 SCF Done:  E(RB3LYP) =  -896.370235209     A.U. after   13 cycles
 SCF Done:  E(RB3LYP) =  -896.369528128     A.U. after   13 cycles
 SCF Done:  E(RB3LYP) =  -896.370964805     A.U. after   12 cycles
 SCF Done:  E(RB3LYP) =  -896.371126478     A.U. after   12 cycles
 SCF Done:  E(RB3LYP) =  -896.371236719     A.U. after    9 cycles
 SCF Done:  E(RB3LYP) =  -896.371239116     A.U. after    9 cycles
 SCF Done:  E(RB3LYP) =  -896.371239770     A.U. after    8 cycles
 SCF Done:  E(RB3LYP) =  -896.371240022     A.U. after    8 cycles
 SCF Done:  E(RB3LYP) =  -896.371240134     A.U. after    7 cycles
 Optimization completed.
    -- Stationary point found.
 Normal termination of Gaussian 16 at Sun Dec 13 16:58:43 2020.

 --------------------------------------------------------------------
 #N Geom=AllCheck Guess=TCheck SCRF=Check GenChk RB3LYP/6-31G(d) Freq
 --------------------------------------------------------------------

 Structure from the checkpoint file:  "JID_10687.chk"
 --------------------------------
 CID_114387209_JID_10687_neutraal
 --------------------------------
 Charge =  0 Multiplicity = 1

 SCF Done:  E(RB3LYP) =  -896.371240134     A.U. after    1 cycles

  Exact polarizability: 247.878  13.180 174.140  -2.393   7.094 137.418
 Approx polarizability: 322.344  29.573 280.480  -9.941  27.618 205.957

                      1                      2                      3
                      A                      A                      A
 Frequencies --     22.3716                32.2987                58.7657
 Red. masses --      4.1702                 3.6089                 3.1216
 Frc consts  --      0.0012                 0.0022                 0.0064
 IR Inten    --      0.6560                 0.0204                 0.1371

                      4                      5                      6
                      A                      A                      A
 Frequencies --     62.3729                73.0719                80.2863
 Red. masses --      3.8122                 3.1069                 4.9191
 Frc consts  --      0.0087                 0.0098                 0.0187
 IR Inten    --      0.5260                 0.1330                 0.6643

                      7                      8                      9
                      A                      A                      A
 Frequencies --     87.6464               111.9145               137.9316
 Red. masses --      3.0497                 5.1784                 3.1206
 Frc consts  --      0.0138                 0.0382                 0.0350
 IR Inten    --      0.3144                 2.3510                 1.0441

                     10                     11                     12
                      A                      A                      A
 Frequencies --    139.2529               172.9757               202.9817
 Red. masses --      4.1272                 3.0868                 2.2752
 Frc consts  --      0.0472                 0.0544                 0.0552
 IR Inten    --      0.2974                 0.3236                 1.2708

                     13                     14                     15
                      A                      A                      A
 Frequencies --    208.3022               216.5217               228.7341
 Red. masses --      1.8678                 1.4473                 1.5064
 Frc consts  --      0.0478                 0.0400                 0.0464
 IR Inten    --      1.6324                 0.6250                 0.3648

                     16                     17                     18
                      A                      A                      A
 Frequencies --    241.6925               253.0568               286.2923
 Red. masses --      1.3600                 2.2584                 3.1269
 Frc consts  --      0.0468                 0.0852                 0.1510
 IR Inten    --      1.6854                 1.8041                 2.1498

                     19                     20                     21
                      A                      A                      A
 Frequencies --    297.7018               320.0117               332.2175
 Red. masses --      3.5077                 2.0591                 1.8077
 Frc consts  --      0.1832                 0.1242                 0.1175
 IR Inten    --      2.2600                 4.9334                26.6685

                     22                     23                     24
                      A                      A                      A
 Frequencies --    343.8076               366.1014               392.8052
 Red. masses --      1.6502                 2.6647                 2.9696
 Frc consts  --      0.1149                 0.2104                 0.2700
 IR Inten    --     16.7396                14.6204                 1.9477

                     25                     26                     27
                      A                      A                      A
 Frequencies --    419.6438               440.7961               455.9646
 Red. masses --      3.3537                 2.1552                 4.7628
 Frc consts  --      0.3480                 0.2467                 0.5834
 IR Inten    --      8.7775                 1.2790                 1.5507

                     28                     29                     30
                      A                      A                      A
 Frequencies --    487.4353               493.5841               574.2312
 Red. masses --      3.4505                 5.7317                 3.5199
 Frc consts  --      0.4830                 0.8227                 0.6838
 IR Inten    --      8.9371                17.0288                 3.4520

                     31                     32                     33
                      A                      A                      A
 Frequencies --    582.5916               622.5845               664.7450
 Red. masses --      4.2312                 3.8176                 4.2588
 Frc consts  --      0.8461                 0.8718                 1.1088
 IR Inten    --      6.2060                25.3497                 5.8211

                     34                     35                     36
                      A                      A                      A
 Frequencies --    685.0898               711.5429               719.7527
 Red. masses --      2.1662                 2.6909                 4.6843
 Frc consts  --      0.5990                 0.8027                 1.4297
 IR Inten    --      9.2200                28.6018                 3.2488

                     37                     38                     39
                      A                      A                      A
 Frequencies --    746.4237               769.8373               803.7791
 Red. masses --      3.4741                 2.5616                 1.2390
 Frc consts  --      1.1404                 0.8945                 0.4716
 IR Inten    --     15.4560                40.1201                 1.9489

                     40                     41                     42
                      A                      A                      A
 Frequencies --    815.1211               822.6480               833.5444
 Red. masses --      1.3390                 2.4096                 6.8340
 Frc consts  --      0.5242                 0.9608                 2.7976
 IR Inten    --      0.3915                10.8993                 4.6130

                     43                     44                     45
                      A                      A                      A
 Frequencies --    840.4597               868.4177               894.6736
 Red. masses --      1.4020                 3.6017                 1.3687
 Frc consts  --      0.5835                 1.6004                 0.6455
 IR Inten    --      5.4726                 9.9771                67.1329

                     46                     47                     48
                      A                      A                      A
 Frequencies --    918.5194               921.6328               956.3508
 Red. masses --      2.1905                 2.7120                 1.5962
 Frc consts  --      1.0889                 1.3572                 0.8601
 IR Inten    --      1.2475                 1.1535                33.7848

                     49                     50                     51
                      A                      A                      A
 Frequencies --    971.0627               985.6189               987.0987
 Red. masses --      2.2694                 2.3613                 1.6123
 Frc consts  --      1.2608                 1.3515                 0.9256
 IR Inten    --      8.6361                 6.1183                33.1056

                     52                     53                     54
                      A                      A                      A
 Frequencies --   1019.4261              1042.8831              1075.3221
 Red. masses --      3.0742                 2.1453                 1.9330
 Frc consts  --      1.8823                 1.3747                 1.3169
 IR Inten    --     33.5443                 0.5811                28.0095

                     55                     56                     57
                      A                      A                      A
 Frequencies --   1083.6691              1085.2944              1086.1336
 Red. masses --      1.6954                 2.2822                 1.6081
 Frc consts  --      1.1731                 1.5838                 1.1177
 IR Inten    --      6.2265                11.8774                10.5379

                     58                     59                     60
                      A                      A                      A
 Frequencies --   1094.6408              1106.1130              1116.2913
 Red. masses --      1.7779                 1.8202                 2.2402
 Frc consts  --      1.2552                 1.3121                 1.6447
 IR Inten    --      8.2077                26.1590                 1.7710

                     61                     62                     63
                      A                      A                      A
 Frequencies --   1166.2858              1168.2152              1174.8562
 Red. masses --      1.6204                 4.9933                 2.9754
 Frc consts  --      1.2986                 4.0150                 2.4197
 IR Inten    --      1.1069                69.2238                75.8025

                     64                     65                     66
                      A                      A                      A
 Frequencies --   1204.9702              1208.1699              1236.5434
 Red. masses --      2.5981                 2.9365                 1.6176
 Frc consts  --      2.2226                 2.5255                 1.4572
 IR Inten    --     22.5735                53.3047                38.1662

                     67                     68                     69
                      A                      A                      A
 Frequencies --   1261.5374              1266.0980              1290.7295
 Red. masses --      1.7772                 1.3380                 1.5009
 Frc consts  --      1.6664                 1.2637                 1.4733
 IR Inten    --    143.0834                 2.4288                 0.8962

                     70                     71                     72
                      A                      A                      A
 Frequencies --   1298.4592              1301.9059              1310.2830
 Red. masses --      1.3280                 1.6911                 1.3698
 Frc consts  --      1.3192                 1.6888                 1.3856
 IR Inten    --      4.2020                22.6674                10.1338

                     73                     74                     75
                      A                      A                      A
 Frequencies --   1322.6716              1343.3470              1350.9642
 Red. masses --      2.0546                 2.2149                 1.7134
 Frc consts  --      2.1178                 2.3550                 1.8424
 IR Inten    --    207.6688                 2.5057                71.8019

                     76                     77                     78
                      A                      A                      A
 Frequencies --   1375.4866              1376.8694              1378.6541
 Red. masses --      1.3509                 1.7877                 1.8275
 Frc consts  --      1.5059                 1.9968                 2.0466
 IR Inten    --      4.2356                29.4040                 0.8289

                     79                     80                     81
                      A                      A                      A
 Frequencies --   1401.7150              1429.0738              1436.2083
 Red. masses --      1.4376                 1.5530                 1.2407
 Frc consts  --      1.6642                 1.8687                 1.5078
 IR Inten    --     29.2057                54.3834                 7.1035

                     82                     83                     84
                      A                      A                      A
 Frequencies --   1438.1257              1444.8483              1447.7619
 Red. masses --      1.3067                 1.3700                 2.4631
 Frc consts  --      1.5923                 1.6851                 3.0417
 IR Inten    --      4.1673                14.6519               101.6334

                     85                     86                     87
                      A                      A                      A
 Frequencies --   1489.7979              1503.7589              1513.9722
 Red. masses --      1.0887                 1.1027                 1.1369
 Frc consts  --      1.4237                 1.4691                 1.5354
 IR Inten    --      3.9306                 5.4653                14.9291

                     88                     89                     90
                      A                      A                      A
 Frequencies --   1522.9075              1525.6078              1526.3873
 Red. masses --      1.0609                 1.0480                 1.0474
 Frc consts  --      1.4496                 1.4372                 1.4377
 IR Inten    --      1.1938                13.5609                 6.1157

                     91                     92                     93
                      A                      A                      A
 Frequencies --   1528.2567              1529.0412              1533.1376
 Red. masses --      1.0506                 1.0472                 1.2488
 Frc consts  --      1.4456                 1.4424                 1.7294
 IR Inten    --      2.0037                 2.2229                47.1118

                     94                     95                     96
                      A                      A                      A
 Frequencies --   1535.9312              1536.9725              1547.3201
 Red. masses --      1.1133                 1.0888                 2.3361
 Frc consts  --      1.5474                 1.5155                 3.2953
 IR Inten    --     38.0425                 8.9489               293.8131

                     97                     98                     99
                      A                      A                      A
 Frequencies --   1584.5345              1606.5690              1692.0412
 Red. masses --      4.7668                 8.3877                 1.0882
 Frc consts  --      7.0515                12.7553                 1.8356
 IR Inten    --    166.2154                85.4134                18.6905

                    100                    101                    102
                      A                      A                      A
 Frequencies --   1784.9471              3011.5845              3034.7459
 Red. masses --      9.0440                 1.0661                 1.0350
 Frc consts  --     16.9770                 5.6967                 5.6164
 IR Inten    --    321.1298                84.0209                38.3445

                    103                    104                    105
                      A                      A                      A
 Frequencies --   3051.1117              3053.6857              3057.5207
 Red. masses --      1.0849                 1.0355                 1.0352
 Frc consts  --      5.9507                 5.6890                 5.7016
 IR Inten    --     13.1000                24.7756                19.0148

                    106                    107                    108
                      A                      A                      A
 Frequencies --   3062.3076              3069.1861              3077.8976
 Red. masses --      1.0956                 1.0614                 1.0616
 Frc consts  --      6.0532                 5.8907                 5.9252
 IR Inten    --     42.5354                28.3879                37.2899

                    109                    110                    111
                      A                      A                      A
 Frequencies --   3081.6500              3093.0396              3098.8439
 Red. masses --      1.0595                 1.0600                 1.1017
 Frc consts  --      5.9279                 5.9746                 6.2330
 IR Inten    --     12.4082                25.6102                38.7563

                    112                    113                    114
                      A                      A                      A
 Frequencies --   3104.8038              3108.5017              3116.9013
 Red. masses --      1.1021                 1.1015                 1.1032
 Frc consts  --      6.2596                 6.2713                 6.3150
 IR Inten    --     38.9547                 1.7663                 1.3781

                    115                    116                    117
                      A                      A                      A
 Frequencies --   3126.1790              3132.5607              3135.3959
 Red. masses --      1.1020                 1.1033                 1.1040
 Frc consts  --      6.3452                 6.3788                 6.3947
 IR Inten    --     50.3990                34.1971                15.7083

                    118                    119                    120
                      A                      A                      A
 Frequencies --   3140.9508              3148.1312              3153.5666
 Red. masses --      1.1045                 1.1053                 1.1064
 Frc consts  --      6.4201                 6.4542                 6.4828
 IR Inten    --     29.4290                13.4751                19.1944

                    121                    122                    123
                      A                      A                      A
 Frequencies --   3467.4593              3552.5392              3582.7988
 Red. masses --      1.0497                 1.0923                 1.0756
 Frc consts  --      7.4358                 8.1224                 8.1349
 IR Inten    --      5.3376                 2.7576                46.6054

 - Thermochemistry -
 -------------------
 Temperature   298.150 Kelvin.  Pressure   1.00000 Atm.
 Atom     1 has atomic number  6 and mass  12.00000

 Molecular mass:   277.19026 amu.
 Principal axes and moments of inertia in atomic units:
                           1         2         3
     Eigenvalues --  2935.358219797.39962**********
           X            0.99994  -0.01052   0.00086
           Y            0.01054   0.99939  -0.03323
           Z           -0.00051   0.03324   0.99945
 This molecule is an asymmetric top.
 Rotational symmetry number  1.
 Warning -- assumption of classical behavior for rotation
           may cause significant error
 Rotational temperatures (Kelvin)      0.02951     0.00884     0.00794
 Rotational constants (GHZ):           0.61483     0.18421     0.16550
 Zero-point vibrational energy     977518.7 (Joules/Mol)
                                  233.63257 (Kcal/Mol)
 Warning -- explicit consideration of  31 degrees of freedom as
           vibrations may cause significant error
 Vibrational temperatures:     32.19    46.47    84.55    89.74   105.13
          (Kelvin)            115.51   126.10   161.02   198.45   200.35
                              248.87   292.05   299.70   311.53   329.10
                              347.74   364.09   411.91   428.33   460.43
                              477.99   494.66   526.74   565.16   603.77
                              634.21   656.03   701.31   710.16   826.19
                              838.22   895.76   956.42   985.69  1023.75
                             1035.56  1073.94  1107.62  1156.46  1172.78
                             1183.61  1199.28  1209.23  1249.46  1287.24
                             1321.54  1326.02  1375.98  1397.14  1418.09
                             1420.21  1466.73  1500.48  1547.15  1559.16
                             1561.50  1562.70  1574.94  1591.45  1606.09
                             1678.03  1680.80  1690.36  1733.68  1738.29
                             1779.11  1815.07  1821.63  1857.07  1868.19
                             1873.15  1885.21  1903.03  1932.78  1943.74
                             1979.02  1981.01  1983.58  2016.76  2056.12
                             2066.38  2069.14  2078.81  2083.01  2143.49
                             2163.57  2178.27  2191.12  2195.01  2196.13
                             2198.82  2199.95  2205.84  2209.86  2211.36
                             2226.25  2279.79  2311.49  2434.47  2568.14
                             4333.00  4366.32  4389.87  4393.57  4399.09
                             4405.98  4415.87  4428.41  4433.81  4450.19
                             4458.55  4467.12  4472.44  4484.53  4497.87
                             4507.06  4511.14  4519.13  4529.46  4537.28
                             4988.90  5111.31  5154.85

 Zero-point correction=                           0.372317 (Hartree/Particle)
 Thermal correction to Energy=                    0.393040
 Thermal correction to Enthalpy=                  0.393985
 Thermal correction to Gibbs Free Energy=         0.322040
 Sum of electronic and zero-point Energies=           -895.998923
 Sum of electronic and thermal Energies=              -895.978200
 Sum of electronic and thermal Enthalpies=            -895.977255
 Sum of electronic and thermal Free Energies=         -896.049200

                     E (Thermal)             CV                S
                      KCal/Mol        Cal/Mol-Kelvin    Cal/Mol-Kelvin
 Total                  246.637             77.968            151.421
 Electronic               0.000              0.000              0.000
 Translational            0.889              2.981             42.757
 Rotational               0.889              2.981             34.105
 Vibrational            244.859             72.007             74.559
 Vibration     1          0.593              1.985              6.412
 Vibration     2          0.594              1.983              5.683
 Vibration     3          0.596              1.974              4.498
 Vibration     4          0.597              1.972              4.381
 Vibration     5          0.599              1.967              4.069
 Vibration     6          0.600              1.963              3.884
 Vibration     7          0.601              1.958              3.712
 Vibration     8          0.607              1.940              3.235
 Vibration     9          0.614              1.915              2.832
 Vibration    10          0.615              1.914              2.814
 Vibration    11          0.626              1.876              2.403
 Vibration    12          0.639              1.836              2.106
 Vibration    13          0.642              1.828              2.059
 Vibration    14          0.645              1.816              1.988
 Vibration    15          0.651              1.797              1.889
 Vibration    16          0.658              1.776              1.790
 Vibration    17          0.664              1.758              1.709
 Vibration    18          0.684              1.699              1.496
 Vibration    19          0.691              1.678              1.430
 Vibration    20          0.706              1.635              1.310
 Vibration    21          0.714              1.611              1.249
 Vibration    22          0.723              1.588              1.194
 Vibration    23          0.739              1.542              1.096
 Vibration    24          0.760              1.486              0.989
 Vibration    25          0.782              1.428              0.893
 Vibration    26          0.801              1.381              0.824
 Vibration    27          0.814              1.348              0.778
 Vibration    28          0.843              1.278              0.690
 Vibration    29          0.849              1.264              0.674
 Vibration    30          0.931              1.087              0.496
 Vibration    31          0.939              1.069              0.481

                           ! Non-Optimized Parameters !
 Normal termination of Gaussian 16 at Sun Dec 13 17:20:51 2020.

 ----------------------------------------------------------------------
 # B3LYP/6-311++G(d,p) empiricaldispersion=gd3bj scf=xqc pop=npa geom=c
 heck
 ----------------------------------------------------------------------

 ----------------------------------------
 CID_114387209_JID_10687_Energie_neutraal
 ----------------------------------------
 Structure from the checkpoint file:  "JID_10687.chk"
 Charge =  0 Multiplicity = 1

 SCF Done:  E(RB3LYP) =  -896.622287610     A.U. after   16 cycles
 Normal termination of Gaussian 16 at Sun Dec 13 17:30:42 2020.

 ----------------------------------------------------------------------
 # B3LYP/6-311++G(d,p) empiricaldispersion=gd3bj scf=xqc pop=npa geom=c
 heck
 ----------------------------------------------------------------------

 --------------------------------------
 CID_114387209_JID_10687_Energie_kation
 --------------------------------------
 Structure from the checkpoint file:  "JID_10687.chk"
 Charge =  1 Multiplicity = 2

 SCF Done:  E(UB3LYP) =  -896.315585509     A.U. after   33 cycles
 SCF Done:  E(UB3LYP) =  -896.315585780     a.u. after    2 cycles
 Normal termination of Gaussian 16 at Sun Dec 13 18:24:14 2020.
 Gaussian 16:  ES64L-G16RevA.03 25-Dec-2016

 ----------------------------------------------------------------------
 # B3LYP/6-311++G(d,p) empiricaldispersion=gd3bj scf=xqc pop=npa geom=c
 heck
 ----------------------------------------------------------------------

 -------------------------------------
 CID_114387209_JID_10687_Energie_anion
 -------------------------------------
 Structure from the checkpoint file:  "JID_10687.chk"
 Charge = -1 Multiplicity = 2

                         Standard orientation:
 ---------------------------------------------------------------------
 Center     Atomic      Atomic             Coordinates (Angstroms)
 Number     Number       Type             X           Y           Z
 ---------------------------------------------------------------------
      1          6           0        4.818602   -1.778206    0.451195
      2          6           0        4.144496   -1.082291   -0.745312
      3          6           0        2.804488   -0.514658   -0.357589
      4          6           0        2.640926    0.784831    0.187147
      5          7           0        1.433415    1.198350    0.570506
      6          7           0        0.373556    0.403074    0.439620
      7          6           0        0.566286   -0.811006   -0.090259
      8          7           0        1.753900   -1.312643   -0.489738
      9          7           0       -0.491513   -1.682544   -0.259938
     10          6           0       -1.889618   -1.606668   -0.096735
     11          8           0       -2.523742   -2.605958   -0.391124
     12          6           0       -2.504815   -0.318308    0.407652
     13          6           0       -4.028267   -0.272083    0.124186
     14          6           0       -3.759569    0.511481   -1.183779
     15          6           0       -2.338587    0.827631   -0.651861
     16          6           0       -4.669878    1.678903   -1.528887
     17          6           0       -2.113442   -0.086468    1.888321
     18          7           0       -2.140842    1.335434    2.221947
     19          6           0        3.761220    1.782387    0.331665
     20          6           0        3.989696    2.586592   -0.959368
     21          1           0        4.998831   -1.075956    1.272502
     22          1           0        5.780363   -2.207164    0.152887
     23          1           0        4.182814   -2.585010    0.828965
     24          1           0        4.795259   -0.293540   -1.134752
     25          1           0        3.981000   -1.808815   -1.546674
     26          1           0       -0.204947   -2.580842   -0.633819
     27          1           0       -4.537738   -1.235367    0.054326
     28          1           0       -4.516139    0.362611    0.871190
     29          1           0       -3.700741   -0.185768   -2.028686
     30          1           0       -2.301583    1.796702   -0.150940
     31          1           0       -1.503127    0.753466   -1.352424
     32          1           0       -4.297824    2.233304   -2.399627
     33          1           0       -5.686376    1.336791   -1.759562
     34          1           0       -4.733189    2.379280   -0.687062
     35          1           0       -2.869647   -0.597956    2.497105
     36          1           0       -1.149506   -0.564424    2.113479
     37          1           0       -2.100312    1.444784    3.233571
     38          1           0       -1.286797    1.751739    1.851684
     39          1           0        3.489959    2.465561    1.142093
     40          1           0        4.686970    1.276349    0.626998
     41          1           0        3.079051    3.128312   -1.234192
     42          1           0        4.796423    3.314671   -0.824895
     43          1           0        4.258356    1.934415   -1.798214
 ---------------------------------------------------------------------

 SCF Done:  E(UB3LYP) =  -896.646339037     A.U. after   27 cycles

 The electronic state is 2-A.
 Alpha  occ. eigenvalues --  -18.98551 -14.22343 -14.18247 -14.16082 -14.15795
 Alpha  occ. eigenvalues --  -14.14158 -10.16661 -10.12226 -10.08240 -10.07700
 Alpha  occ. eigenvalues --  -10.06717 -10.06630 -10.05457 -10.05412 -10.05249
 Alpha  occ. eigenvalues --  -10.05205 -10.05172 -10.04890 -10.04787 -10.04632
 Alpha  occ. eigenvalues --   -0.93824  -0.87516  -0.80909  -0.77935  -0.75762
 Alpha  occ. eigenvalues --   -0.73969  -0.69146  -0.64860  -0.64119  -0.62688
 Alpha  occ. eigenvalues --   -0.57969  -0.55828  -0.54319  -0.54079  -0.51306
 Alpha  occ. eigenvalues --   -0.48637  -0.47640  -0.46091  -0.42129  -0.40603
 Alpha  occ. eigenvalues --   -0.38993  -0.38250  -0.36787  -0.35177  -0.34062
 Alpha  occ. eigenvalues --   -0.33899  -0.33549  -0.32466  -0.32169  -0.31820
 Alpha  occ. eigenvalues --   -0.31394  -0.30894  -0.30325  -0.28690  -0.28250
 Alpha  occ. eigenvalues --   -0.27590  -0.27236  -0.26035  -0.25798  -0.25536
 Alpha  occ. eigenvalues --   -0.23917  -0.23163  -0.23015  -0.22387  -0.21847
 Alpha  occ. eigenvalues --   -0.20125  -0.19578  -0.19086  -0.16866  -0.16725
 Alpha  occ. eigenvalues --   -0.15376  -0.14757  -0.13562  -0.10557  -0.07069
 Alpha  occ. eigenvalues --    0.03569
 Alpha virt. eigenvalues --    0.07327   0.07457   0.08488   0.08582   0.09525
 Alpha virt. eigenvalues --    0.09858   0.10087   0.10339   0.11085   0.11267
 Alpha virt. eigenvalues --    0.11481   0.11715   0.12168   0.12290   0.12774

  Beta  occ. eigenvalues --  -18.98567 -14.22347 -14.18248 -14.15685 -14.15000
  Beta  occ. eigenvalues --  -14.13621 -10.16667 -10.12323 -10.08235 -10.07699
  Beta  occ. eigenvalues --  -10.06715 -10.06630 -10.05464 -10.05412 -10.05330
  Beta  occ. eigenvalues --  -10.05247 -10.05171 -10.04833 -10.04668 -10.04370
  Beta  occ. eigenvalues --   -0.93845  -0.86793  -0.80521  -0.77913  -0.74832
  Beta  occ. eigenvalues --   -0.73941  -0.68858  -0.64721  -0.64090  -0.62278
  Beta  occ. eigenvalues --   -0.57946  -0.55727  -0.54175  -0.53625  -0.51249
  Beta  occ. eigenvalues --   -0.48540  -0.47362  -0.45983  -0.41869  -0.40408
  Beta  occ. eigenvalues --   -0.38965  -0.38182  -0.36689  -0.35133  -0.34032
  Beta  occ. eigenvalues --   -0.33825  -0.33465  -0.32217  -0.32080  -0.31654
  Beta  occ. eigenvalues --   -0.31241  -0.30818  -0.30124  -0.28523  -0.27954
  Beta  occ. eigenvalues --   -0.27561  -0.26955  -0.25979  -0.25477  -0.25266
  Beta  occ. eigenvalues --   -0.23860  -0.22968  -0.22902  -0.22374  -0.21819
  Beta  occ. eigenvalues --   -0.19672  -0.19069  -0.18509  -0.16317  -0.15224
  Beta  occ. eigenvalues --   -0.14120  -0.14026  -0.13485  -0.09258  -0.06276
  Beta virt. eigenvalues --    0.07304   0.07417   0.08469   0.08483   0.09561
  Beta virt. eigenvalues --    0.09723   0.10063   0.10405   0.11050   0.11209
  Beta virt. eigenvalues --    0.11463   0.11676   0.12129   0.12187   0.12313

 Mulliken charges and spin densities:
               1          2
     1  C   -0.323188  -0.262735
     2  C   -0.545501   0.213519
     3  C    0.454465   0.155207
     4  C   -0.329800  -0.086365
     5  N    0.675804   0.417723
     6  N   -0.678325   0.132120
     7  C   -0.258872  -0.009228
     8  N   -0.111843   0.270496
     9  N   -0.339451  -0.004372
    10  C   -0.382656  -0.006947
    11  O   -0.273423  -0.005614
    12  C    1.431989  -0.004128
    13  C   -0.804704  -0.008440
    14  C    0.481377   0.001634
    15  C   -0.644880   0.000637
    16  C   -0.714021   0.001529
    17  C   -0.823795  -0.009588
    18  N   -0.422967   0.000796
    19  C   -0.208871  -0.085852
    20  C   -0.581155   0.007243
    21  H    0.089901   0.029299
    22  H   -0.044528   0.166957
    23  H    0.168567  -0.023346
    24  H    0.108359   0.013891
    25  H    0.069800   0.082384
    26  H    0.330808  -0.002770
    27  H    0.202006   0.000236
    28  H    0.141134  -0.000124
    29  H    0.179277  -0.000113
    30  H    0.141727  -0.000428
    31  H    0.192430   0.002919
    32  H    0.129005   0.000088
    33  H    0.121697   0.000007
    34  H    0.138860   0.000177
    35  H    0.143165   0.002212
    36  H    0.186145   0.004161
    37  H    0.216007   0.000050
    38  H    0.250561   0.000285
    39  H    0.147185   0.000172
    40  H    0.118048   0.010896
    41  H    0.147752  -0.002980
    42  H    0.102646   0.000707
    43  H    0.119264  -0.002316
 Sum of Mulliken charges =  -1.00000   1.00000

 Dipole moment (field-independent basis, Debye):
    X=             -1.9654    Y=              1.9492    Z=              0.4465  Tot=              2.8038
 Quadrupole moment (field-independent basis, Debye-Ang):
   XX=           -175.7850   YY=           -152.6793   ZZ=           -129.8763
   XY=             -0.4477   XZ=             -0.1869   YZ=             -4.4394

 Summary of Natural Population Analysis:

                                       Natural Population
                Natural  -----------------------------------------------
    Atom  No    Charge         Core      Valence    Rydberg      Total
 -----------------------------------------------------------------------
      C    1   -0.27482      0.99966     2.27068    0.00447     3.27482
      C    2   -0.21080      0.99962     2.20044    0.01075     3.21080
      C    3    0.17885      0.99950     1.80773    0.01392     2.82115
      C    4    0.03357      0.99950     1.95227    0.01467     2.96643
      N    5   -0.02063      0.99967     2.50241    0.01854     3.52063
      N    6   -0.14292      0.99968     2.62591    0.01733     3.64292
      C    7    0.25889      0.99960     1.72399    0.01752     2.74111
      N    8   -0.19927      0.99964     2.68802    0.01162     3.69927
      N    9   -0.31363      0.99962     2.80237    0.01164     3.81363
      C   10    0.35440      0.99959     1.62140    0.02462     2.64560
      O   11   -0.32662      0.99987     3.32059    0.00616     4.32662
      C   12   -0.07775      0.99952     2.06246    0.01576     3.07775
      C   13   -0.18241      0.99961     2.17459    0.00822     3.18241
      C   14   -0.11629      0.99962     2.10884    0.00783     3.11629
      C   15   -0.17350      0.99960     2.16550    0.00840     3.17350
      C   16   -0.28375      0.99965     2.27971    0.00438     3.28375
      C   17   -0.07814      0.99957     2.06860    0.00997     3.07814
      N   18   -0.43041      0.99976     2.92156    0.00909     3.93041
      C   19   -0.19933      0.99961     2.19212    0.00760     3.19933
      C   20   -0.28144      0.99967     2.27805    0.00372     3.28144
      H   21    0.09264      0.00000     0.40594    0.00142     0.40736
      H   22    0.08936      0.00000     0.40909    0.00154     0.41064
      H   23    0.09870      0.00000     0.39983    0.00147     0.40130
      H   24    0.09423      0.00000     0.40436    0.00141     0.40577
      H   25    0.10189      0.00000     0.39574    0.00237     0.39811
      H   26    0.20135      0.00000     0.29671    0.00194     0.29865
      H   27    0.10619      0.00000     0.39284    0.00097     0.39381
      H   28    0.09716      0.00000     0.40176    0.00108     0.40284
      H   29    0.09269      0.00000     0.40554    0.00177     0.40731
      H   30    0.10728      0.00000     0.39158    0.00114     0.39272
      H   31    0.10715      0.00000     0.39201    0.00085     0.39285
      H   32    0.09549      0.00000     0.40368    0.00083     0.40451
      H   33    0.09343      0.00000     0.40573    0.00084     0.40657
      H   34    0.09675      0.00000     0.40233    0.00092     0.40325
      H   35    0.08285      0.00000     0.41606    0.00109     0.41715
      H   36    0.09483      0.00000     0.40391    0.00126     0.40517
      H   37    0.16906      0.00000     0.32924    0.00169     0.33094
      H   38    0.19009      0.00000     0.30829    0.00162     0.30991
      H   39    0.10047      0.00000     0.39708    0.00245     0.39953
      H   40    0.09206      0.00000     0.40654    0.00140     0.40794
      H   41    0.10046      0.00000     0.39860    0.00094     0.39954
      H   42    0.08763      0.00000     0.41133    0.00104     0.41237
      H   43    0.09424      0.00000     0.40474    0.00102     0.40576
 =======================================================================
   * Total *    0.00000     19.99257    54.75018    0.25725    75.00000

 Normal termination of Gaussian 16 at Sun Dec 13 18:45:51 2020.
