 Gaussian 16, Revision A.03,

 -----------------------------------------------------------
 # opt freq B3LYP/6-31G(d) empiricaldispersion=gd3bj scf=xqc
 -----------------------------------------------------------

 --------------------------
 CID_67580_JID_970_neutraal
 --------------------------
 Symbolic Z-matrix:
 Charge =  0 Multiplicity = 1

 SCF Done:  E(RB3LYP) =  -434.023014361     A.U. after   15 cycles
 SCF Done:  E(RB3LYP) =  -434.029550286     A.U. after   13 cycles
 SCF Done:  E(RB3LYP) =  -434.030256770     A.U. after   11 cycles
 SCF Done:  E(RB3LYP) =  -434.030315043     A.U. after   10 cycles
 SCF Done:  E(RB3LYP) =  -434.030320464     A.U. after    9 cycles
 Optimization completed.
    -- Stationary point found.
 Normal termination of Gaussian 16 at Tue Dec  8 13:28:37 2020.

 --------------------------------------------------------------------
 #N Geom=AllCheck Guess=TCheck SCRF=Check GenChk RB3LYP/6-31G(d) Freq
 --------------------------------------------------------------------

 Structure from the checkpoint file:  "JID_970.chk"
 --------------------------
 CID_67580_JID_970_neutraal
 --------------------------
 Charge =  0 Multiplicity = 1

 SCF Done:  E(RB3LYP) =  -434.030320464     A.U. after    1 cycles

  Exact polarizability: 141.568  -0.937  85.620  -0.000   0.000  31.868
 Approx polarizability: 246.066   0.360 167.585   0.000   0.000  50.475

                      1                      2                      3
                      A                      A                      A
 Frequencies --    162.4936               190.0962               417.0340
 Red. masses --      4.6292                 4.2293                 5.6179
 Frc consts  --      0.0720                 0.0900                 0.5757
 IR Inten    --      1.2455                 5.5774                 3.2453

                      4                      5                      6
                      A                      A                      A
 Frequencies --    431.1054               482.7992               507.8070
 Red. masses --      5.1578                 2.9291                 5.0080
 Frc consts  --      0.5648                 0.4023                 0.7609
 IR Inten    --      7.3133                 0.5598                 4.9852

                      7                      8                      9
                      A                      A                      A
 Frequencies --    549.4787               557.0299               607.0966
 Red. masses --      8.3868                 8.1431                 9.3856
 Frc consts  --      1.4919                 1.4887                 2.0381
 IR Inten    --      0.0476                 0.1843                 4.8436

                     10                     11                     12
                      A                      A                      A
 Frequencies --    665.9585               777.1950               802.6055
 Red. masses --      3.7257                 7.3439                 1.3620
 Frc consts  --      0.9735                 2.6136                 0.5169
 IR Inten    --      3.2390                 3.0737                24.6236

                     13                     14                     15
                      A                      A                      A
 Frequencies --    848.1953               877.7999               893.5586
 Red. masses --      5.4131                 6.0597                 1.2371
 Frc consts  --      2.2945                 2.7510                 0.5820
 IR Inten    --      0.6412                 4.7522                24.0703

                     16                     17                     18
                      A                      A                      A
 Frequencies --    964.1230               976.9091               991.6628
 Red. masses --      6.5177                 1.4026                 1.4716
 Frc consts  --      3.5695                 0.7886                 0.8526
 IR Inten    --      8.0113                 0.1065                 0.0051

                     19                     20                     21
                      A                      A                      A
 Frequencies --   1005.4991              1051.4547              1070.8783
 Red. masses --      1.3401                 2.8057                 2.2447
 Frc consts  --      0.7983                 1.8276                 1.5167
 IR Inten    --      1.2061                12.6600                 7.7773

                     22                     23                     24
                      A                      A                      A
 Frequencies --   1148.0833              1224.8268              1248.4205
 Red. masses --      1.3850                 3.3091                 2.6289
 Frc consts  --      1.0756                 2.9249                 2.4141
 IR Inten    --      9.9395                18.7895                 1.7284

                     25                     26                     27
                      A                      A                      A
 Frequencies --   1309.2464              1340.1399              1384.7159
 Red. masses --      1.8114                 2.4107                 3.5277
 Frc consts  --      1.8294                 2.5509                 3.9853
 IR Inten    --      2.5084                 1.5181                 2.6353

                     28                     29                     30
                      A                      A                      A
 Frequencies --   1431.3703              1446.3433              1517.3617
 Red. masses --      1.6847                 2.5890                 2.9251
 Frc consts  --      2.0337                 3.1909                 3.9679
 IR Inten    --      0.4850                 2.4101                16.9199

                     31                     32                     33
                      A                      A                      A
 Frequencies --   1535.0779              1604.0580              1622.8174
 Red. masses --      3.3779                 6.5406                 7.0654
 Frc consts  --      4.6898                 9.9153                10.9629
 IR Inten    --     41.1741                14.9340                 2.4810

                     34                     35                     36
                      A                      A                      A
 Frequencies --   1663.4035              3166.2194              3168.2768
 Red. masses --      6.0150                 1.0883                 1.0897
 Frc consts  --      9.8058                 6.4281                 6.4449
 IR Inten    --     13.7698                 9.2564                27.0459

                     37                     38                     39
                      A                      A                      A
 Frequencies --   3185.2775              3208.2149              3223.9390
 Red. masses --      1.0950                 1.0889                 1.0975
 Frc consts  --      6.5460                 6.6033                 6.7207
 IR Inten    --     44.8786                 6.3081                11.8671

 - Thermochemistry -
 -------------------
 Temperature   298.150 Kelvin.  Pressure   1.00000 Atm.
 Atom     1 has atomic number  6 and mass  12.00000

 Molecular mass:   131.04835 amu.
 Principal axes and moments of inertia in atomic units:
                           1         2         3
     Eigenvalues --   563.793501338.081541901.87504
           X            0.99993  -0.01149  -0.00000
           Y            0.01149   0.99993   0.00000
           Z            0.00000  -0.00000   1.00000
 This molecule is an asymmetric top.
 Rotational symmetry number  1.
 Warning -- assumption of classical behavior for rotation
           may cause significant error
 Rotational temperatures (Kelvin)      0.15363     0.06473     0.04554
 Rotational constants (GHZ):           3.20107     1.34875     0.94893
 Zero-point vibrational energy     294631.7 (Joules/Mol)
                                   70.41867 (Kcal/Mol)
 Warning -- explicit consideration of   9 degrees of freedom as
           vibrations may cause significant error
 Vibrational temperatures:    233.79   273.51   600.02   620.26   694.64
          (Kelvin)            730.62   790.58   801.44   873.48   958.17
                             1118.21  1154.77  1220.36  1262.96  1285.63
                             1387.16  1405.55  1426.78  1446.69  1512.81
                             1540.76  1651.84  1762.25  1796.20  1883.71
                             1928.16  1992.30  2059.42  2080.97  2183.15
                             2208.63  2307.88  2334.87  2393.27  4555.48
                             4558.44  4582.90  4615.91  4638.53

 Zero-point correction=                           0.112219 (Hartree/Particle)
 Thermal correction to Energy=                    0.118603
 Thermal correction to Enthalpy=                  0.119547
 Thermal correction to Gibbs Free Energy=         0.081208
 Sum of electronic and zero-point Energies=           -433.918101
 Sum of electronic and thermal Energies=              -433.911718
 Sum of electronic and thermal Enthalpies=            -433.910774
 Sum of electronic and thermal Free Energies=         -433.949113

                     E (Thermal)             CV                S
                      KCal/Mol        Cal/Mol-Kelvin    Cal/Mol-Kelvin
 Total                   74.424             25.852             80.691
 Electronic               0.000              0.000              0.000
 Translational            0.889              2.981             40.524
 Rotational               0.889              2.981             28.752
 Vibrational             72.647             19.890             11.415
 Vibration     1          0.623              1.888              2.521
 Vibration     2          0.633              1.854              2.227
 Vibration     3          0.780              1.433              0.902
 Vibration     4          0.792              1.402              0.855
 Vibration     5          0.839              1.288              0.703
 Vibration     6          0.863              1.233              0.639
 Vibration     7          0.905              1.141              0.545
 Vibration     8          0.913              1.124              0.530
 Vibration     9          0.966              1.017              0.438

 Optimization completed.
    -- Stationary point found.
 Normal termination of Gaussian 16 at Tue Dec  8 13:31:13 2020.

 ----------------------------------------------------------------------
 # B3LYP/6-311++G(d,p) empiricaldispersion=gd3bj scf=xqc pop=npa geom=c
 heck
 ----------------------------------------------------------------------

 ----------------------------------
 CID_67580_JID_970_Energie_neutraal
 ----------------------------------
 Structure from the checkpoint file:  "JID_970.chk"
 Charge =  0 Multiplicity = 1

 SCF Done:  E(RB3LYP) =  -434.138701290     A.U. after   15 cycles
 Normal termination of Gaussian 16 at Tue Dec  8 13:32:24 2020.

 ----------------------------------------------------------------------
 # B3LYP/6-311++G(d,p) empiricaldispersion=gd3bj scf=xqc pop=npa geom=c
 heck
 ----------------------------------------------------------------------

 --------------------------------
 CID_67580_JID_970_Energie_kation
 --------------------------------
 Structure from the checkpoint file:  "JID_970.chk"
 Charge =  1 Multiplicity = 2

 SCF Done:  E(UB3LYP) =  -433.807433586     A.U. after   22 cycles
 Normal termination of Gaussian 16 at Tue Dec  8 13:35:50 2020.
 Gaussian 16:  ES64L-G16RevA.03 25-Dec-2016

 ----------------------------------------------------------------------
 # B3LYP/6-311++G(d,p) empiricaldispersion=gd3bj scf=xqc pop=npa geom=c
 heck
 ----------------------------------------------------------------------

 -------------------------------
 CID_67580_JID_970_Energie_anion
 -------------------------------
 Structure from the checkpoint file:  "JID_970.chk"
 Charge = -1 Multiplicity = 2

                         Standard orientation:
 ---------------------------------------------------------------------
 Center     Atomic      Atomic             Coordinates (Angstroms)
 Number     Number       Type             X           Y           Z
 ---------------------------------------------------------------------
      1          6           0       -2.368597    0.657282   -0.000000
      2          6           0       -1.212926    1.399226    0.000002
      3          6           0        0.027497    0.715596    0.000001
      4          7           0        1.192332    1.423017   -0.000001
      5          6           0        2.297858    0.709729   -0.000001
      6          6           0        2.287544   -0.712584    0.000001
      7          7           0        1.178809   -1.420471    0.000003
      8          6           0        0.013768   -0.714441   -0.000000
      9          7           0       -1.139364   -1.434004   -0.000002
     10          6           0       -2.271453   -0.759589   -0.000001
     11          1           0       -3.345951    1.129559   -0.000002
     12          1           0       -1.207244    2.484770    0.000007
     13          1           0        3.243497    1.248977   -0.000014
     14          1           0        3.229196   -1.260061   -0.000003
     15          1           0       -3.184088   -1.354356   -0.000007
 ---------------------------------------------------------------------

 SCF Done:  E(UB3LYP) =  -434.171308195     A.U. after   19 cycles

 The electronic state is 2-A.
 Alpha  occ. eigenvalues --  -14.13844 -14.13777 -14.13240 -10.07228 -10.05234
 Alpha  occ. eigenvalues --  -10.04713 -10.04076 -10.04010 -10.02466 -10.01905
 Alpha  occ. eigenvalues --   -0.81963  -0.76862  -0.73508  -0.64028  -0.60272
 Alpha  occ. eigenvalues --   -0.51300  -0.49440  -0.45684  -0.39393  -0.37362
 Alpha  occ. eigenvalues --   -0.35335  -0.30932  -0.28841  -0.27973  -0.27621
 Alpha  occ. eigenvalues --   -0.24981  -0.21681  -0.21409  -0.18619  -0.14196
 Alpha  occ. eigenvalues --   -0.11715  -0.11569  -0.10695  -0.07481   0.03335
 Alpha virt. eigenvalues --    0.09627   0.10181   0.11431   0.12394   0.12765
 Alpha virt. eigenvalues --    0.13277   0.13650   0.16816   0.16947   0.18013
 Alpha virt. eigenvalues --    0.18698   0.19026   0.19380   0.20509   0.21179

  Beta  occ. eigenvalues --  -14.13495 -14.13301 -14.12733 -10.07308 -10.05328
  Beta  occ. eigenvalues --  -10.04593 -10.03982 -10.03898 -10.02425 -10.01607
  Beta  occ. eigenvalues --   -0.81396  -0.76218  -0.72640  -0.63512  -0.59964
  Beta  occ. eigenvalues --   -0.50504  -0.49292  -0.45270  -0.39021  -0.37089
  Beta  occ. eigenvalues --   -0.35110  -0.30803  -0.28603  -0.27431  -0.26869
  Beta  occ. eigenvalues --   -0.24793  -0.21466  -0.19763  -0.16622  -0.13562
  Beta  occ. eigenvalues --   -0.11073  -0.09741  -0.09509  -0.07024
  Beta virt. eigenvalues --    0.09587   0.09681   0.10144   0.11401   0.12342
  Beta virt. eigenvalues --    0.13003   0.13249   0.15520   0.16788   0.17031
  Beta virt. eigenvalues --    0.17979   0.18957   0.19004   0.19922   0.20739

 Mulliken charges and spin densities:
               1          2
     1  C   -0.173977   0.067566
     2  C   -0.074151   0.187864
     3  C    0.085690  -0.067627
     4  N   -0.139735   0.234525
     5  C   -0.055060   0.108131
     6  C   -0.056975   0.108730
     7  N   -0.099774   0.225310
     8  C   -0.800786  -0.031253
     9  N   -0.101160   0.128018
    10  C   -0.214062   0.088529
    11  H    0.104956  -0.002269
    12  H    0.135250  -0.019295
    13  H    0.124277  -0.008329
    14  H    0.129419  -0.010232
    15  H    0.136087  -0.009669
 Sum of Mulliken charges =  -1.00000   1.00000

 Dipole moment (field-independent basis, Debye):
    X=             -0.9833    Y=              2.0083    Z=             -0.0000  Tot=              2.2361
 Quadrupole moment (field-independent basis, Debye-Ang):
   XX=            -70.8260   YY=            -79.4583   ZZ=            -64.9076
   XY=             -2.5642   XZ=             -0.0000   YZ=              0.0000

 Summary of Natural Population Analysis:

                                       Natural Population
                Natural  -----------------------------------------------
    Atom  No    Charge         Core      Valence    Rydberg      Total
 -----------------------------------------------------------------------
      C    1   -0.13099      0.99957     2.12263    0.00879     3.13099
      C    2   -0.02963      0.99954     2.02038    0.00971     3.02963
      C    3    0.02965      0.99947     1.95734    0.01353     2.97035
      N    4   -0.15701      0.99969     2.64163    0.01569     3.65701
      C    5    0.01578      0.99962     1.96972    0.01488     2.98422
      C    6    0.02394      0.99962     1.96146    0.01497     2.97606
      N    7   -0.15518      0.99968     2.64076    0.01474     3.65518
      C    8    0.15108      0.99948     1.83156    0.01788     2.84892
      N    9   -0.20024      0.99968     2.68627    0.01429     3.70024
      C   10    0.04625      0.99962     1.93889    0.01524     2.95375
      H   11    0.08961      0.00000     0.40902    0.00137     0.41039
      H   12    0.09150      0.00000     0.40617    0.00232     0.40850
      H   13    0.07581      0.00000     0.42228    0.00191     0.42419
      H   14    0.07515      0.00000     0.42282    0.00203     0.42485
      H   15    0.07428      0.00000     0.42400    0.00171     0.42572
 =======================================================================
   * Total *    0.00000      9.99598    23.85494    0.14908    34.00000

 Normal termination of Gaussian 16 at Tue Dec  8 13:38:49 2020.
