 Gaussian 16, Revision A.03,

 -----------------------------------------------------------
 # opt freq B3LYP/6-31G(d) empiricaldispersion=gd3bj scf=xqc
 -----------------------------------------------------------

 -----------------------------
 CID_53426114_JID_119_neutraal
 -----------------------------
 Symbolic Z-matrix:
 Charge =  0 Multiplicity = 1

 SCF Done:  E(RB3LYP) =  -401.839467110     A.U. after   15 cycles
 SCF Done:  E(RB3LYP) =  -401.860008652     A.U. after   13 cycles
 SCF Done:  E(RB3LYP) =  -401.861774264     A.U. after   14 cycles
 SCF Done:  E(RB3LYP) =  -401.850674184     A.U. after   15 cycles
 SCF Done:  E(RB3LYP) =  -401.861501329     A.U. after   14 cycles
 SCF Done:  E(RB3LYP) =  -401.862122304     A.U. after   11 cycles
 SCF Done:  E(RB3LYP) =  -401.862474299     A.U. after   13 cycles
 SCF Done:  E(RB3LYP) =  -401.862620511     A.U. after   12 cycles
 SCF Done:  E(RB3LYP) =  -401.862127461     A.U. after   13 cycles
 SCF Done:  E(RB3LYP) =  -401.862853779     A.U. after   12 cycles
 SCF Done:  E(RB3LYP) =  -401.862867916     A.U. after   11 cycles
 SCF Done:  E(RB3LYP) =  -401.862872716     A.U. after   10 cycles
 SCF Done:  E(RB3LYP) =  -401.862873280     A.U. after    9 cycles
 SCF Done:  E(RB3LYP) =  -401.862873412     A.U. after    8 cycles
 SCF Done:  E(RB3LYP) =  -401.862873428     A.U. after    7 cycles
 Optimization completed.
    -- Stationary point found.
 Normal termination of Gaussian 16 at Tue Dec  8 10:17:14 2020.

 --------------------------------------------------------------------
 #N Geom=AllCheck Guess=TCheck SCRF=Check GenChk RB3LYP/6-31G(d) Freq
 --------------------------------------------------------------------

 Structure from the checkpoint file:  "JID_119.chk"
 -----------------------------
 CID_53426114_JID_119_neutraal
 -----------------------------
 Charge =  0 Multiplicity = 1

 SCF Done:  E(RB3LYP) =  -401.862873428     A.U. after    1 cycles

  Exact polarizability: 198.377   2.783  89.477   0.001   0.000  33.154
 Approx polarizability: 323.701   9.638 153.571   0.002   0.000  49.908

                      1                      2                      3
                      A                      A                      A
 Frequencies --     45.9017                90.7085               107.6354
 Red. masses --      2.7695                 3.8274                 4.4287
 Frc consts  --      0.0034                 0.0186                 0.0302
 IR Inten    --      0.4764                 0.0146                 0.2863

                      4                      5                      6
                      A                      A                      A
 Frequencies --    239.3572               247.2641               377.5908
 Red. masses --      5.2245                 3.8475                 6.2212
 Frc consts  --      0.1764                 0.1386                 0.5226
 IR Inten    --      1.3643                 2.6009                 1.1632

                      7                      8                      9
                      A                      A                      A
 Frequencies --    386.4044               437.4459               494.7410
 Red. masses --      2.5939                 4.3048                 5.0617
 Frc consts  --      0.2282                 0.4853                 0.7300
 IR Inten    --      0.0018                 1.0418                 4.5312

                     10                     11                     12
                      A                      A                      A
 Frequencies --    558.2971               581.6467               629.0350
 Red. masses --      3.5961                 1.2412                 2.2103
 Frc consts  --      0.6604                 0.2474                 0.5153
 IR Inten    --      1.4144                59.5626                23.2046

                     13                     14                     15
                      A                      A                      A
 Frequencies --    632.5136               686.6385               751.9300
 Red. masses --      1.9802                 6.9441                 3.6031
 Frc consts  --      0.4668                 1.9289                 1.2003
 IR Inten    --     43.4502                 0.3234                 0.4892

                     16                     17                     18
                      A                      A                      A
 Frequencies --    819.2199               870.6389               877.8221
 Red. masses --      1.3909                 1.4600                 4.4714
 Frc consts  --      0.5500                 0.6520                 2.0301
 IR Inten    --     23.0816                 0.3380                 4.2470

                     19                     20                     21
                      A                      A                      A
 Frequencies --    892.1176               973.7801               991.2217
 Red. masses --      1.7499                 1.2791                 1.4466
 Frc consts  --      0.8206                 0.7146                 0.8374
 IR Inten    --      1.0789                 1.9064                 0.0245

                     22                     23                     24
                      A                      A                      A
 Frequencies --   1001.7202              1013.2842              1049.7995
 Red. masses --      1.1356                 7.5998                 4.2838
 Frc consts  --      0.6714                 4.5975                 2.7816
 IR Inten    --     32.6291                 8.8263                 5.3167

                     25                     26                     27
                      A                      A                      A
 Frequencies --   1103.8313              1126.4973              1244.1327
 Red. masses --      1.9747                 1.5608                 1.7657
 Frc consts  --      1.4176                 1.1669                 1.6102
 IR Inten    --      0.0348                 0.9609                 0.0602

                     28                     29                     30
                      A                      A                      A
 Frequencies --   1264.6588              1298.4123              1337.2167
 Red. masses --      1.3764                 5.7478                 1.8395
 Frc consts  --      1.2970                 5.7092                 1.9380
 IR Inten    --      7.0281                 2.1969                 2.0220

                     31                     32                     33
                      A                      A                      A
 Frequencies --   1349.9658              1382.8536              1462.6074
 Red. masses --      1.4322                 1.2970                 2.0556
 Frc consts  --      1.5378                 1.4613                 2.5908
 IR Inten    --      0.8858                 0.8914                19.6528

                     34                     35                     36
                      A                      A                      A
 Frequencies --   1545.3003              1605.5715              1652.4168
 Red. masses --      2.1416                 6.5633                 5.2146
 Frc consts  --      3.0130                 9.9686                 8.3891
 IR Inten    --      5.0008                17.3350                99.2632

                     37                     38                     39
                      A                      A                      A
 Frequencies --   1689.9747              2219.4980              3169.8220
 Red. masses --      5.2447                 6.1957                 1.0891
 Frc consts  --      8.8253                17.9824                 6.4476
 IR Inten    --      2.7861                 0.2821                 8.2567

                     40                     41                     42
                      A                      A                      A
 Frequencies --   3172.9021              3175.6300              3182.9310
 Red. masses --      1.0874                 1.0903                 1.0876
 Frc consts  --      6.4501                 6.4783                 6.4921
 IR Inten    --     29.5175                25.4278                12.1651

                     43                     44                     45
                      A                      A                      A
 Frequencies --   3200.7759              3213.2798              3495.7754
 Red. masses --      1.0938                 1.0925                 1.1555
 Frc consts  --      6.6025                 6.6460                 8.3197
 IR Inten    --     21.6935                12.0734                87.7278

 - Thermochemistry -
 -------------------
 Temperature   298.150 Kelvin.  Pressure   1.00000 Atm.
 Atom     1 has atomic number  6 and mass  12.00000

 Molecular mass:   129.05785 amu.
 Principal axes and moments of inertia in atomic units:
                           1         2         3
     Eigenvalues --   333.968722995.444153329.41287
           X            1.00000   0.00022   0.00000
           Y           -0.00022   1.00000  -0.00000
           Z           -0.00000   0.00000   1.00000
 This molecule is an asymmetric top.
 Rotational symmetry number  1.
 Rotational temperatures (Kelvin)      0.25935     0.02892     0.02601
 Rotational constants (GHZ):           5.40392     0.60250     0.54206
 Zero-point vibrational energy     344828.2 (Joules/Mol)
                                   82.41591 (Kcal/Mol)
 Warning -- explicit consideration of  11 degrees of freedom as
           vibrations may cause significant error
 Vibrational temperatures:     66.04   130.51   154.86   344.38   355.76
          (Kelvin)            543.27   555.95   629.39   711.82   803.26
                              836.86   905.04   910.05   987.92  1081.86
                             1178.67  1252.66  1262.99  1283.56  1401.05
                             1426.15  1441.25  1457.89  1510.43  1588.17
                             1620.78  1790.03  1819.56  1868.13  1923.96
                             1942.30  1989.62  2104.37  2223.34  2310.06
                             2377.46  2431.50  3193.36  4560.67  4565.10
                             4569.02  4579.53  4605.20  4623.19  5029.64

 Zero-point correction=                           0.131338 (Hartree/Particle)
 Thermal correction to Energy=                    0.140048
 Thermal correction to Enthalpy=                  0.140993
 Thermal correction to Gibbs Free Energy=         0.096833
 Sum of electronic and zero-point Energies=           -401.731535
 Sum of electronic and thermal Energies=              -401.722825
 Sum of electronic and thermal Enthalpies=            -401.721881
 Sum of electronic and thermal Free Energies=         -401.766040

                     E (Thermal)             CV                S
                      KCal/Mol        Cal/Mol-Kelvin    Cal/Mol-Kelvin
 Total                   87.882             32.514             92.941
 Electronic               0.000              0.000              0.000
 Translational            0.889              2.981             40.478
 Rotational               0.889              2.981             29.589
 Vibrational             86.104             26.553             22.874
 Vibration     1          0.595              1.979              4.987
 Vibration     2          0.602              1.956              3.645
 Vibration     3          0.606              1.943              3.311
 Vibration     4          0.657              1.780              1.808
 Vibration     5          0.661              1.767              1.750
 Vibration     6          0.748              1.518              1.049
 Vibration     7          0.755              1.499              1.014
 Vibration     8          0.798              1.389              0.835
 Vibration     9          0.850              1.262              0.671
 Vibration    10          0.914              1.122              0.527
 Vibration    11          0.938              1.071              0.482

 Optimization completed.
    -- Stationary point found.
 Normal termination of Gaussian 16 at Tue Dec  8 10:19:27 2020.

 ----------------------------------------------------------------------
 # B3LYP/6-311++G(d,p) empiricaldispersion=gd3bj scf=xqc pop=npa geom=c
 heck
 ----------------------------------------------------------------------

 -------------------------------------
 CID_53426114_JID_119_Energie_neutraal
 -------------------------------------
 Structure from the checkpoint file:  "JID_119.chk"
 Charge =  0 Multiplicity = 1

 SCF Done:  E(RB3LYP) =  -401.970493730     A.U. after   15 cycles
 Normal termination of Gaussian 16 at Tue Dec  8 10:20:06 2020.

 ----------------------------------------------------------------------
 # B3LYP/6-311++G(d,p) empiricaldispersion=gd3bj scf=xqc pop=npa geom=c
 heck
 ----------------------------------------------------------------------

 -----------------------------------
 CID_53426114_JID_119_Energie_kation
 -----------------------------------
 Structure from the checkpoint file:  "JID_119.chk"
 Charge =  1 Multiplicity = 2

 SCF Done:  E(UB3LYP) =  -401.656928799     A.U. after   22 cycles
 Normal termination of Gaussian 16 at Tue Dec  8 10:21:32 2020.
 Gaussian 16:  ES64L-G16RevA.03 25-Dec-2016

 ----------------------------------------------------------------------
 # B3LYP/6-311++G(d,p) empiricaldispersion=gd3bj scf=xqc pop=npa geom=c
 heck
 ----------------------------------------------------------------------

 ----------------------------------
 CID_53426114_JID_119_Energie_anion
 ----------------------------------
 Structure from the checkpoint file:  "JID_119.chk"
 Charge = -1 Multiplicity = 2

                         Standard orientation:
 ---------------------------------------------------------------------
 Center     Atomic      Atomic             Coordinates (Angstroms)
 Number     Number       Type             X           Y           Z
 ---------------------------------------------------------------------
      1          6           0       -4.599048    0.130985   -0.000093
      2          6           0       -3.414215   -0.120678   -0.000010
      3          6           0       -2.036269   -0.450089    0.000061
      4          6           0       -1.049590    0.471719    0.000097
      5          6           0        0.386324    0.198917    0.000050
      6          6           0        0.943308   -1.091728    0.000035
      7          6           0        2.326019   -1.235645   -0.000034
      8          7           0        3.191115   -0.210410   -0.000054
      9          6           0        2.660734    1.018020   -0.000040
     10          6           0        1.291180    1.272084    0.000009
     11          1           0       -5.638810    0.366597   -0.000143
     12          1           0       -1.796567   -1.511911   -0.000040
     13          1           0       -1.330175    1.522700    0.000105
     14          1           0        0.314599   -1.976034    0.000093
     15          1           0        2.767755   -2.230443   -0.000037
     16          1           0        3.368514    1.845052   -0.000047
     17          1           0        0.926225    2.295399   -0.000002
 ---------------------------------------------------------------------

 SCF Done:  E(UB3LYP) =  -401.996587035     A.U. after   19 cycles

 The electronic state is 2-A.
 Alpha  occ. eigenvalues --  -14.14420 -10.05612 -10.05264 -10.03179 -10.03008
 Alpha  occ. eigenvalues --  -10.02572 -10.02240 -10.01851 -10.01457 -10.01134
 Alpha  occ. eigenvalues --   -0.78820  -0.67668  -0.63513  -0.61061  -0.58069
 Alpha  occ. eigenvalues --   -0.50192  -0.47991  -0.43656  -0.38713  -0.36563
 Alpha  occ. eigenvalues --   -0.34437  -0.32388  -0.30980  -0.27987  -0.26727
 Alpha  occ. eigenvalues --   -0.25479  -0.22757  -0.20621  -0.19997  -0.15756
 Alpha  occ. eigenvalues --   -0.13465  -0.12110  -0.11061  -0.08522   0.03457
 Alpha virt. eigenvalues --    0.09156   0.09817   0.10358   0.12169   0.12419
 Alpha virt. eigenvalues --    0.12451   0.13839   0.14508   0.14873   0.16554
 Alpha virt. eigenvalues --    0.16747   0.17271   0.17671   0.18351   0.18933

  Beta  occ. eigenvalues --  -14.14034 -10.05673 -10.05243 -10.03078 -10.02995
  Beta  occ. eigenvalues --  -10.02503 -10.02095 -10.01500 -10.01256 -10.00884
  Beta  occ. eigenvalues --   -0.78322  -0.67026  -0.63021  -0.60806  -0.57614
  Beta  occ. eigenvalues --   -0.49379  -0.47829  -0.43274  -0.38392  -0.36365
  Beta  occ. eigenvalues --   -0.34208  -0.32211  -0.30769  -0.27916  -0.26452
  Beta  occ. eigenvalues --   -0.24409  -0.22500  -0.20492  -0.18380  -0.14198
  Beta  occ. eigenvalues --   -0.13326  -0.11339  -0.10619  -0.06606
  Beta virt. eigenvalues --    0.09130   0.09208   0.09786   0.10313   0.12128
  Beta virt. eigenvalues --    0.12377   0.12668   0.14462   0.14663   0.14826
  Beta virt. eigenvalues --    0.16555   0.17045   0.17267   0.18348   0.18411

 Mulliken charges and spin densities:
               1          2
     1  C   -1.310814   0.261708
     2  C    1.257924  -0.061690
     3  C   -0.540640   0.283611
     4  C   -0.491870   0.067020
     5  C    0.791507   0.092306
     6  C   -0.652482   0.150012
     7  C   -0.515978  -0.042599
     8  N   -0.146918   0.178683
     9  C   -0.714975   0.004398
    10  C    0.663932   0.125655
    11  H    0.089059  -0.011973
    12  H    0.078719  -0.017692
    13  H    0.056071  -0.016739
    14  H    0.079358  -0.009419
    15  H    0.122153   0.001516
    16  H    0.101792  -0.004202
    17  H    0.133161  -0.000595
 Sum of Mulliken charges =  -1.00000   1.00000

 Dipole moment (field-independent basis, Debye):
    X=              0.6426    Y=              0.3473    Z=             -0.0000  Tot=              0.7305
 Quadrupole moment (field-independent basis, Debye-Ang):
   XX=           -112.5134   YY=            -61.8681   ZZ=            -69.3854
   XY=              0.6361   XZ=              0.0005   YZ=              0.0001

 Summary of Natural Population Analysis:

                                       Natural Population
                Natural  -----------------------------------------------
    Atom  No    Charge         Core      Valence    Rydberg      Total
 -----------------------------------------------------------------------
      C    1   -0.10044      0.99917     2.09744    0.00382     3.10044
      C    2   -0.02408      0.99941     2.01714    0.00754     3.02408
      C    3   -0.07505      0.99947     2.06823    0.00735     3.07505
      C    4   -0.04674      0.99952     2.03825    0.00897     3.04674
      C    5    0.00916      0.99951     1.98262    0.00870     2.99084
      C    6   -0.09134      0.99952     2.08414    0.00767     3.09134
      C    7    0.00145      0.99960     1.98311    0.01584     2.99855
      N    8   -0.20162      0.99971     2.68787    0.01404     3.70162
      C    9    0.01522      0.99960     1.96928    0.01590     2.98478
      C   10   -0.10472      0.99953     2.09720    0.00800     3.10472
      H   11    0.09804      0.00000     0.40100    0.00095     0.40196
      H   12    0.09324      0.00000     0.40504    0.00172     0.40676
      H   13    0.08584      0.00000     0.41268    0.00147     0.41416
      H   14    0.09360      0.00000     0.40488    0.00152     0.40640
      H   15    0.07849      0.00000     0.42009    0.00141     0.42151
      H   16    0.07747      0.00000     0.42111    0.00143     0.42253
      H   17    0.09147      0.00000     0.40691    0.00162     0.40853
 =======================================================================
   * Total *    0.00000      9.99505    23.89699    0.10796    34.00000

 Normal termination of Gaussian 16 at Tue Dec  8 10:22:46 2020.
