 Gaussian 16, Revision A.03,

 -----------------------------------------------------------
 # opt freq B3LYP/6-31G(d) empiricaldispersion=gd3bj scf=xqc
 -----------------------------------------------------------

 -------------------------------
 CID_136451594_JID_5595_neutraal
 -------------------------------
 Symbolic Z-matrix:
 Charge =  0 Multiplicity = 1

 SCF Done:  E(RB3LYP) =  -1026.58903818     A.U. after   15 cycles
 SCF Done:  E(RB3LYP) =  -1026.59663220     A.U. after   14 cycles
 SCF Done:  E(RB3LYP) =  -1026.59604995     A.U. after   14 cycles
 SCF Done:  E(RB3LYP) =  -1026.59943504     A.U. after   12 cycles
 SCF Done:  E(RB3LYP) =  -1026.60207193     A.U. after   13 cycles
 SCF Done:  E(RB3LYP) =  -1026.60465565     A.U. after   13 cycles
 SCF Done:  E(RB3LYP) =  -1026.60572766     A.U. after   11 cycles
 SCF Done:  E(RB3LYP) =  -1026.60634965     A.U. after   12 cycles
 SCF Done:  E(RB3LYP) =  -1026.60652649     A.U. after   11 cycles
 SCF Done:  E(RB3LYP) =  -1026.60672636     A.U. after   12 cycles
 SCF Done:  E(RB3LYP) =  -1026.60794218     A.U. after   11 cycles
 SCF Done:  E(RB3LYP) =  -1026.60794618     A.U. after   10 cycles
 SCF Done:  E(RB3LYP) =  -1026.60794802     A.U. after    9 cycles
 SCF Done:  E(RB3LYP) =  -1026.60794832     A.U. after    8 cycles
 SCF Done:  E(RB3LYP) =  -1026.60794839     A.U. after    7 cycles
 Optimization completed.
    -- Stationary point found.
 Normal termination of Gaussian 16 at Thu Dec 10 16:52:47 2020.

 --------------------------------------------------------------------
 #N Geom=AllCheck Guess=TCheck SCRF=Check GenChk RB3LYP/6-31G(d) Freq
 --------------------------------------------------------------------

 Structure from the checkpoint file:  "JID_5595.chk"
 -------------------------------
 CID_136451594_JID_5595_neutraal
 -------------------------------
 Charge =  0 Multiplicity = 1

 SCF Done:  E(RB3LYP) =  -1026.60794839     A.U. after    1 cycles

  Exact polarizability: 204.452  -8.603 136.776  -5.699   8.476  89.920
 Approx polarizability: 282.083 -19.194 225.625 -10.360  22.548 143.264

                      1                      2                      3
                      A                      A                      A
 Frequencies --     33.0218                43.3120                55.7168
 Red. masses --      6.5592                 3.7332                 4.5986
 Frc consts  --      0.0042                 0.0041                 0.0084
 IR Inten    --      0.7185                 0.0948                 0.6970

                      4                      5                      6
                      A                      A                      A
 Frequencies --     67.7407               100.8668               120.6104
 Red. masses --      4.2127                 4.9116                 6.0630
 Frc consts  --      0.0114                 0.0294                 0.0520
 IR Inten    --      0.0757                 1.2496                 2.8255

                      7                      8                      9
                      A                      A                      A
 Frequencies --    129.4553               178.3840               228.0063
 Red. masses --      3.8398                 4.7446                 1.4568
 Frc consts  --      0.0379                 0.0890                 0.0446
 IR Inten    --      1.9392                 4.2092                 0.3659

                     10                     11                     12
                      A                      A                      A
 Frequencies --    236.4253               254.0401               274.5633
 Red. masses --      2.0658                 3.6103                 5.8847
 Frc consts  --      0.0680                 0.1373                 0.2614
 IR Inten    --      0.8544                 0.2757                 2.0608

                     13                     14                     15
                      A                      A                      A
 Frequencies --    302.3557               321.7022               419.7477
 Red. masses --      1.7256                 2.0547                 3.1378
 Frc consts  --      0.0929                 0.1253                 0.3257
 IR Inten    --     17.8096                 9.1226                 0.7005

                     16                     17                     18
                      A                      A                      A
 Frequencies --    425.5687               462.0687               488.7966
 Red. masses --      3.2683                 5.9344                 8.8754
 Frc consts  --      0.3488                 0.7465                 1.2494
 IR Inten    --      8.0737                20.5335                12.0512

                     19                     20                     21
                      A                      A                      A
 Frequencies --    528.5318               559.0650               604.2020
 Red. masses --      3.1705                 1.2030                 7.5021
 Frc consts  --      0.5218                 0.2215                 1.6136
 IR Inten    --      8.3050               103.7686                 7.9855

                     22                     23                     24
                      A                      A                      A
 Frequencies --    629.5173               644.7507               667.5258
 Red. masses --      4.7111                 3.7145                 1.6351
 Frc consts  --      1.1000                 0.9098                 0.4293
 IR Inten    --      5.6980                12.3720                75.8489

                     25                     26                     27
                      A                      A                      A
 Frequencies --    706.2968               717.6183               756.2383
 Red. masses --      3.8501                 1.9058                 6.7235
 Frc consts  --      1.1316                 0.5783                 2.2655
 IR Inten    --     16.5234                16.4159                30.4097

                     28                     29                     30
                      A                      A                      A
 Frequencies --    773.3777               801.5210               834.1835
 Red. masses --      2.0843                 3.1329                 1.7947
 Frc consts  --      0.7345                 1.1858                 0.7358
 IR Inten    --     18.7109                15.1426                14.2585

                     31                     32                     33
                      A                      A                      A
 Frequencies --    840.7299               851.4947               914.8946
 Red. masses --      2.4081                 1.2461                 1.5276
 Frc consts  --      1.0028                 0.5323                 0.7533
 IR Inten    --      3.3022                 0.3268                 2.4517

                     34                     35                     36
                      A                      A                      A
 Frequencies --    916.8278               961.8607               974.8641
 Red. masses --      2.9505                 1.3285                 2.0424
 Frc consts  --      1.4613                 0.7242                 1.1436
 IR Inten    --     32.7463                 0.1772                43.0290

                     37                     38                     39
                      A                      A                      A
 Frequencies --    985.7958              1001.4571              1018.4493
 Red. masses --      1.2264                 1.7145                 5.8521
 Frc consts  --      0.7022                 1.0131                 3.5764
 IR Inten    --      0.2975                20.6179                 1.1970

                     40                     41                     42
                      A                      A                      A
 Frequencies --   1028.6711              1057.5905              1095.1734
 Red. masses --      2.1607                 2.0611                 1.7737
 Frc consts  --      1.3471                 1.3583                 1.2534
 IR Inten    --     13.3653                 4.5213                11.6061

                     43                     44                     45
                      A                      A                      A
 Frequencies --   1107.5007              1123.7627              1190.9238
 Red. masses --      1.5268                 1.5665                 1.0957
 Frc consts  --      1.1034                 1.1655                 0.9156
 IR Inten    --      4.8140                 9.4517                 0.3802

                     46                     47                     48
                      A                      A                      A
 Frequencies --   1203.4304              1258.0513              1284.7336
 Red. masses --      1.1418                 3.6299                 1.7714
 Frc consts  --      0.9743                 3.3848                 1.7226
 IR Inten    --      7.4009               144.3118               157.3000

                     49                     50                     51
                      A                      A                      A
 Frequencies --   1329.0212              1341.5503              1362.8697
 Red. masses --      2.0940                 1.6043                 2.0676
 Frc consts  --      2.1792                 1.7012                 2.2626
 IR Inten    --      6.5598                60.0116                 0.3712

                     52                     53                     54
                      A                      A                      A
 Frequencies --   1374.9506              1391.2834              1415.0928
 Red. masses --      2.8265                 1.5987                 1.5331
 Frc consts  --      3.1483                 1.8233                 1.8088
 IR Inten    --    240.3336               138.0904                81.4215

                     55                     56                     57
                      A                      A                      A
 Frequencies --   1437.1261              1470.5472              1496.7166
 Red. masses --      1.2427                 1.9893                 2.2649
 Frc consts  --      1.5121                 2.5346                 2.9893
 IR Inten    --      3.4332                80.9254                 4.0574

                     58                     59                     60
                      A                      A                      A
 Frequencies --   1521.7337              1528.7672              1539.9457
 Red. masses --      1.0850                 1.0428                 1.1134
 Frc consts  --      1.4803                 1.4359                 1.5557
 IR Inten    --      6.1984                 1.8742                19.8636

                     61                     62                     63
                      A                      A                      A
 Frequencies --   1542.5665              1635.2603              1660.1540
 Red. masses --      2.1060                 5.6316                 5.6710
 Frc consts  --      2.9526                 8.8727                 9.2089
 IR Inten    --     10.5720                 5.3980                71.4305

                     64                     65                     66
                      A                      A                      A
 Frequencies --   1735.4007              1808.2125              2584.0068
 Red. masses --      8.4907                 8.0361                 1.0399
 Frc consts  --     15.0658                15.4808                 4.0908
 IR Inten    --    468.8264               508.0338                43.6026

                     67                     68                     69
                      A                      A                      A
 Frequencies --   3060.8566              3113.6630              3130.3131
 Red. masses --      1.0348                 1.0670                 1.0963
 Frc consts  --      5.7121                 6.0949                 6.3294
 IR Inten    --     24.7898                 2.3108                21.6820

                     70                     71                     72
                      A                      A                      A
 Frequencies --   3140.3735              3168.8976              3181.5093
 Red. masses --      1.1025                 1.1043                 1.0847
 Frc consts  --      6.4059                 6.5337                 6.4690
 IR Inten    --      9.6682                16.8849                 4.3328

                     73                     74                     75
                      A                      A                      A
 Frequencies --   3188.2710              3199.7210              3205.2601
 Red. masses --      1.0877                 1.0914                 1.0939
 Frc consts  --      6.5146                 6.5836                 6.6214
 IR Inten    --      5.3000                18.4082                28.7519

                     76                     77                     78
                      A                      A                      A
 Frequencies --   3213.1980              3571.1470              3601.6039
 Red. masses --      1.0979                 1.0758                 1.0758
 Frc consts  --      6.6785                 8.0834                 8.2216
 IR Inten    --     18.0281                52.5769                47.9192

 - Thermochemistry -
 -------------------
 Temperature   298.150 Kelvin.  Pressure   1.00000 Atm.
 Atom     1 has atomic number  6 and mass  12.00000

 Molecular mass:   223.07793 amu.
 Principal axes and moments of inertia in atomic units:
                           1         2         3
     Eigenvalues --  1654.296716318.878566987.92601
           X            0.99999   0.00258  -0.00183
           Y           -0.00266   0.99906  -0.04321
           Z            0.00172   0.04322   0.99906
 This molecule is an asymmetric top.
 Rotational symmetry number  1.
 Warning -- assumption of classical behavior for rotation
           may cause significant error
 Rotational temperatures (Kelvin)      0.05236     0.01371     0.01239
 Rotational constants (GHZ):           1.09094     0.28561     0.25827
 Zero-point vibrational energy     586956.4 (Joules/Mol)
                                  140.28594 (Kcal/Mol)
 Warning -- explicit consideration of  21 degrees of freedom as
           vibrations may cause significant error
 Vibrational temperatures:     47.51    62.32    80.16    97.46   145.12
          (Kelvin)            173.53   186.26   256.65   328.05   340.16
                              365.51   395.04   435.02   462.86   603.92
                              612.30   664.81   703.27   760.44   804.37
                              869.31   905.73   927.65   960.42  1016.20
                             1032.49  1088.06  1112.72  1153.21  1200.20
                             1209.62  1225.11  1316.33  1319.11  1383.90
                             1402.61  1418.34  1440.87  1465.32  1480.03
                             1521.64  1575.71  1593.45  1616.84  1713.47
                             1731.47  1810.06  1848.45  1912.17  1930.19
                             1960.87  1978.25  2001.75  2036.00  2067.70
                             2115.79  2153.44  2189.44  2199.56  2215.64
                             2219.41  2352.77  2388.59  2496.85  2601.61
                             3717.81  4403.89  4479.87  4503.82  4518.30
                             4559.34  4577.48  4587.21  4603.68  4611.65
                             4623.08  5138.08  5181.90

 Zero-point correction=                           0.223560 (Hartree/Particle)
 Thermal correction to Energy=                    0.238477
 Thermal correction to Enthalpy=                  0.239422
 Thermal correction to Gibbs Free Energy=         0.180025
 Sum of electronic and zero-point Energies=          -1026.384389
 Sum of electronic and thermal Energies=             -1026.369471
 Sum of electronic and thermal Enthalpies=           -1026.368527
 Sum of electronic and thermal Free Energies=        -1026.427923

                     E (Thermal)             CV                S
                      KCal/Mol        Cal/Mol-Kelvin    Cal/Mol-Kelvin
 Total                  149.647             55.426            125.010
 Electronic               0.000              0.000              0.000
 Translational            0.889              2.981             42.110
 Rotational               0.889              2.981             32.657
 Vibrational            147.869             49.464             50.244
 Vibration     1          0.594              1.983              5.639
 Vibration     2          0.595              1.980              5.102
 Vibration     3          0.596              1.975              4.603
 Vibration     4          0.598              1.970              4.218
 Vibration     5          0.604              1.948              3.437
 Vibration     6          0.609              1.932              3.091
 Vibration     7          0.612              1.924              2.954
 Vibration     8          0.629              1.869              2.345
 Vibration     9          0.651              1.798              1.895
 Vibration    10          0.655              1.785              1.830
 Vibration    11          0.665              1.756              1.702
 Vibration    12          0.677              1.720              1.567
 Vibration    13          0.694              1.669              1.404
 Vibration    14          0.707              1.632              1.301
 Vibration    15          0.782              1.427              0.893
 Vibration    16          0.787              1.415              0.873
 Vibration    17          0.820              1.334              0.760
 Vibration    18          0.845              1.275              0.687
 Vibration    19          0.883              1.187              0.590
 Vibration    20          0.915              1.120              0.526
 Vibration    21          0.963              1.023              0.442

 Optimization completed.
    -- Stationary point found.
 Normal termination of Gaussian 16 at Thu Dec 10 17:04:20 2020.

 ----------------------------------------------------------------------
 # B3LYP/6-311++G(d,p) empiricaldispersion=gd3bj scf=xqc pop=npa geom=c
 heck
 ----------------------------------------------------------------------

 ---------------------------------------
 CID_136451594_JID_5595_Energie_neutraal
 ---------------------------------------
 Structure from the checkpoint file:  "JID_5595.chk"
 Charge =  0 Multiplicity = 1

 SCF Done:  E(RB3LYP) =  -1026.81878983     A.U. after   16 cycles
 Normal termination of Gaussian 16 at Thu Dec 10 17:09:27 2020.

 ----------------------------------------------------------------------
 # B3LYP/6-311++G(d,p) empiricaldispersion=gd3bj scf=xqc pop=npa geom=c
 heck
 ----------------------------------------------------------------------

 -------------------------------------
 CID_136451594_JID_5595_Energie_kation
 -------------------------------------
 Structure from the checkpoint file:  "JID_5595.chk"
 Charge =  1 Multiplicity = 2

 SCF Done:  E(UB3LYP) =  -1026.52621286     A.U. after   25 cycles
 Normal termination of Gaussian 16 at Thu Dec 10 17:20:40 2020.
 Gaussian 16:  ES64L-G16RevA.03 25-Dec-2016

 ----------------------------------------------------------------------
 # B3LYP/6-311++G(d,p) empiricaldispersion=gd3bj scf=xqc pop=npa geom=c
 heck
 ----------------------------------------------------------------------

 ------------------------------------
 CID_136451594_JID_5595_Energie_anion
 ------------------------------------
 Structure from the checkpoint file:  "JID_5595.chk"
 Charge = -1 Multiplicity = 2

                         Standard orientation:
 ---------------------------------------------------------------------
 Center     Atomic      Atomic             Coordinates (Angstroms)
 Number     Number       Type             X           Y           Z
 ---------------------------------------------------------------------
      1          6           0       -0.149574   -1.581650    1.975082
      2          6           0        0.361486   -0.293371    1.303069
      3          6           0        0.436534   -0.499571   -0.196103
      4          7           0       -0.545380   -0.505010   -1.013832
      5          6           0       -1.839860   -0.139323   -0.601767
      6          6           0       -2.862443   -1.099567   -0.600597
      7          6           0       -4.161702   -0.741788   -0.246625
      8          6           0       -4.466427    0.578975    0.089395
      9          6           0       -3.456484    1.541979    0.065860
     10          6           0       -2.151872    1.189993   -0.276423
     11          7           0        1.655456   -0.958359   -0.728856
     12          6           0        2.973988   -0.708969   -0.395093
     13          8           0        3.879880   -1.449943   -0.736941
     14          7           0        3.250166    0.446609    0.354383
     15         16           0        2.471936    1.966791    0.134061
     16          1           0       -1.160522   -1.824807    1.636358
     17          1           0       -0.172885   -1.453387    3.062032
     18          1           0        0.505789   -2.428323    1.745369
     19          1           0       -0.318695    0.532997    1.517154
     20          1           0        1.340613   -0.037383    1.707572
     21          1           0       -2.620333   -2.121329   -0.876980
     22          1           0       -4.941357   -1.498687   -0.239684
     23          1           0       -5.481671    0.855880    0.357468
     24          1           0       -3.683417    2.575267    0.314481
     25          1           0       -1.364889    1.937888   -0.310290
     26          1           0        1.555229   -1.530962   -1.558449
     27          1           0        4.246173    0.501338    0.541798
     28          1           0        2.882376    2.259469   -1.128934
 ---------------------------------------------------------------------

 SCF Done:  E(UB3LYP) =  -1026.81857724     A.U. after   33 cycles
 SCF Done:  E(UB3LYP) =  -1026.81857724     a.u. after    1 cycles

 The electronic state is 2-A.
 Alpha  occ. eigenvalues --  -88.75130 -18.96535 -14.22755 -14.22261 -14.16657
 Alpha  occ. eigenvalues --  -10.17028 -10.11962 -10.09055 -10.06950 -10.06692
 Alpha  occ. eigenvalues --  -10.06150 -10.05871 -10.05840 -10.05727 -10.05517
 Alpha  occ. eigenvalues --   -7.83594  -5.80149  -5.79576  -5.78852  -0.93507
 Alpha  occ. eigenvalues --   -0.84383  -0.80376  -0.77541  -0.73149  -0.66157
 Alpha  occ. eigenvalues --   -0.63796  -0.62817  -0.60209  -0.54653  -0.52305
 Alpha  occ. eigenvalues --   -0.49858  -0.48132  -0.45606  -0.41528  -0.39371
 Alpha  occ. eigenvalues --   -0.37913  -0.37522  -0.35156  -0.34694  -0.33390
 Alpha  occ. eigenvalues --   -0.32736  -0.31659  -0.31450  -0.30690  -0.28507
 Alpha  occ. eigenvalues --   -0.27062  -0.26186  -0.25486  -0.24887  -0.24272
 Alpha  occ. eigenvalues --   -0.24094  -0.21213  -0.18483  -0.17325  -0.14809
 Alpha  occ. eigenvalues --   -0.14570  -0.13759  -0.13383  -0.10591   0.04581
 Alpha virt. eigenvalues --    0.07213   0.07803   0.08227   0.08819   0.09196
 Alpha virt. eigenvalues --    0.09316   0.10242   0.10925   0.11117   0.11685
 Alpha virt. eigenvalues --    0.11897   0.12720   0.13244   0.13391   0.13908

  Beta  occ. eigenvalues --  -88.75062 -18.96324 -14.22632 -14.22342 -14.16491
  Beta  occ. eigenvalues --  -10.16814 -10.11696 -10.09011 -10.06960 -10.06679
  Beta  occ. eigenvalues --  -10.06094 -10.05891 -10.05806 -10.05710 -10.05481
  Beta  occ. eigenvalues --   -7.83514  -5.80072  -5.79481  -5.78788  -0.93137
  Beta  occ. eigenvalues --   -0.84084  -0.80046  -0.77390  -0.73043  -0.66030
  Beta  occ. eigenvalues --   -0.63738  -0.62673  -0.59807  -0.54366  -0.52149
  Beta  occ. eigenvalues --   -0.49803  -0.47958  -0.45440  -0.41430  -0.39104
  Beta  occ. eigenvalues --   -0.37689  -0.37308  -0.34959  -0.34571  -0.33250
  Beta  occ. eigenvalues --   -0.32644  -0.31428  -0.31115  -0.30335  -0.28233
  Beta  occ. eigenvalues --   -0.26910  -0.26033  -0.25402  -0.24628  -0.24190
  Beta  occ. eigenvalues --   -0.24018  -0.20604  -0.18165  -0.16919  -0.14674
  Beta  occ. eigenvalues --   -0.14273  -0.13340  -0.12897  -0.10306
  Beta virt. eigenvalues --    0.07043   0.08054   0.08330   0.08648   0.09043
  Beta virt. eigenvalues --    0.09361   0.09497   0.10442   0.10989   0.11743
  Beta virt. eigenvalues --    0.12055   0.12328   0.12735   0.13326   0.13499

 Mulliken charges and spin densities:
               1          2
     1  C   -0.289858  -0.358894
     2  C   -0.167893   0.048535
     3  C    0.247721   0.128681
     4  N   -0.079244   0.135219
     5  C   -0.477718  -0.324831
     6  C    0.021444   0.009993
     7  C   -0.310933   0.090402
     8  C   -0.272385  -0.096025
     9  C   -0.200767   0.035049
    10  C    0.364828   0.003626
    11  N   -0.205720  -0.050650
    12  C    0.244085   0.113651
    13  O   -0.390857   0.073111
    14  N   -0.496046   0.079183
    15  S    0.148184  -0.302346
    16  H    0.117502   0.031367
    17  H   -0.086526   0.214243
    18  H    0.137120   0.015012
    19  H    0.065409   0.091165
    20  H    0.106427   0.050275
    21  H    0.164580  -0.009029
    22  H    0.092353   0.053116
    23  H    0.105230   0.003015
    24  H    0.076436   0.078930
    25  H   -0.153951   0.356917
    26  H    0.266765   0.046176
    27  H    0.363966   0.004700
    28  H   -0.390151   0.479409
 Sum of Mulliken charges =  -1.00000   1.00000

 Dipole moment (field-independent basis, Debye):
    X=             -3.2603    Y=             -1.5393    Z=              1.4349  Tot=              3.8804
 Quadrupole moment (field-independent basis, Debye-Ang):
   XX=           -147.3720   YY=           -125.8990   ZZ=           -118.7204
   XY=              3.7271   XZ=              4.3030   YZ=              0.5447

 Summary of Natural Population Analysis:

                                       Natural Population
                Natural  -----------------------------------------------
    Atom  No    Charge         Core      Valence    Rydberg      Total
 -----------------------------------------------------------------------
      C    1   -0.27943      0.99966     2.27443    0.00535     3.27943
      C    2   -0.23200      0.99959     2.22382    0.00859     3.23200
      C    3    0.28377      0.99954     1.69873    0.01796     2.71623
      N    4   -0.24530      0.99958     2.73432    0.01140     3.74530
      C    5    0.08582      0.99946     1.90181    0.01291     2.91418
      C    6   -0.11108      0.99951     2.10142    0.01016     3.11108
      C    7   -0.10586      0.99957     2.09705    0.00923     3.10586
      C    8   -0.11711      0.99957     2.10715    0.01040     3.11711
      C    9   -0.09912      0.99957     2.09054    0.00901     3.09912
      C   10   -0.11837      0.99951     2.10874    0.01012     3.11837
      N   11   -0.33601      0.99963     2.82668    0.00971     3.83601
      C   12    0.42943      0.99969     1.54650    0.02438     2.57057
      O   13   -0.31128      0.99987     3.30593    0.00547     4.31128
      N   14   -0.40087      0.99969     2.89106    0.01012     3.90087
      S   15    0.10205      4.99966     2.87780    0.02049     7.89795
      H   16    0.10124      0.00000     0.39781    0.00095     0.39876
      H   17    0.09562      0.00000     0.40346    0.00092     0.40438
      H   18    0.09591      0.00000     0.40320    0.00089     0.40409
      H   19    0.11080      0.00000     0.38761    0.00159     0.38920
      H   20    0.11123      0.00000     0.38714    0.00163     0.38877
      H   21    0.10037      0.00000     0.39855    0.00108     0.39963
      H   22    0.09479      0.00000     0.40428    0.00093     0.40521
      H   23    0.09444      0.00000     0.40479    0.00077     0.40556
      H   24    0.09662      0.00000     0.40258    0.00079     0.40338
      H   25    0.10682      0.00000     0.39152    0.00166     0.39318
      H   26    0.20446      0.00000     0.29398    0.00156     0.29554
      H   27    0.19266      0.00000     0.30589    0.00144     0.30734
      H   28    0.05038      0.00000     0.44507    0.00456     0.44962
 =======================================================================
   * Total *   -0.00000     18.99411    39.81184    0.19405    59.00000

 Normal termination of Gaussian 16 at Thu Dec 10 17:35:07 2020.
