 Gaussian 16, Revision A.03,

 -----------------------------------------------------------
 # opt freq B3LYP/6-31G(d) empiricaldispersion=gd3bj scf=xqc
 -----------------------------------------------------------

 -----------------------------
 CID_96634940_JID_939_neutraal
 -----------------------------
 Symbolic Z-matrix:
 Charge =  0 Multiplicity = 1

 SCF Done:  E(RB3LYP) =  -854.850965188     A.U. after   17 cycles
 SCF Done:  E(RB3LYP) =  -854.857059929     A.U. after   13 cycles
 SCF Done:  E(RB3LYP) =  -854.857549532     A.U. after   11 cycles
 SCF Done:  E(RB3LYP) =  -854.857581552     A.U. after   10 cycles
 SCF Done:  E(RB3LYP) =  -854.857585916     A.U. after    9 cycles
 Optimization completed.
    -- Stationary point found.
 Normal termination of Gaussian 16 at Mon Dec 14 13:05:15 2020.

 --------------------------------------------------------------------
 #N Geom=AllCheck Guess=TCheck SCRF=Check GenChk RB3LYP/6-31G(d) Freq
 --------------------------------------------------------------------

 Structure from the checkpoint file:  "JID_939.chk"
 -----------------------------
 CID_96634940_JID_939_neutraal
 -----------------------------
 Charge =  0 Multiplicity = 1

 SCF Done:  E(RB3LYP) =  -854.857585916     A.U. after    1 cycles

  Exact polarizability: 142.796   2.139  83.110   0.007   0.003  40.811
 Approx polarizability: 253.053  21.686 161.184  -0.009   0.012  62.867

 ******    1 imaginary frequencies (negative Signs) ******

                      1                      2                      3
                      A                      A                      A
 Frequencies --    -93.9111               106.6995               160.0920
 Red. masses --      2.3484                10.4464                 8.9225
 Frc consts  --      0.0122                 0.0701                 0.1347
 IR Inten    --      7.6130                 2.3060                 5.5507

                      4                      5                      6
                      A                      A                      A
 Frequencies --    203.7205               241.6717               251.0505
 Red. masses --      5.5013                 3.9510                 5.7880
 Frc consts  --      0.1345                 0.1360                 0.2149
 IR Inten    --      3.0162                 4.6476                 0.5561

                      7                      8                      9
                      A                      A                      A
 Frequencies --    374.4351               426.5121               485.2742
 Red. masses --      9.0378                 9.1751                 4.5679
 Frc consts  --      0.7466                 0.9834                 0.6338
 IR Inten    --      4.5445                 2.6101                 8.9443

                     10                     11                     12
                      A                      A                      A
 Frequencies --    547.0451               559.7323               623.9599
 Red. masses --     13.7041                 8.7531                 7.4955
 Frc consts  --      2.4163                 1.6157                 1.7193
 IR Inten    --     18.7951                23.6169                 0.4540

                     13                     14                     15
                      A                      A                      A
 Frequencies --    721.5266               791.1912               823.2481
 Red. masses --     10.4494                 9.1331                 3.8797
 Frc consts  --      3.2051                 3.3684                 1.5492
 IR Inten    --      8.7660                46.2579                 2.4048

                     16                     17                     18
                      A                      A                      A
 Frequencies --    859.1698               914.0895              1001.1042
 Red. masses --      1.3229                10.0307                 1.6743
 Frc consts  --      0.5754                 4.9381                 0.9887
 IR Inten    --     17.7664                46.8759                 0.0568

                     19                     20                     21
                      A                      A                      A
 Frequencies --   1046.0743              1083.5156              1131.7959
 Red. masses --      5.9575                 5.8329                 1.4768
 Frc consts  --      3.8410                 4.0346                 1.1146
 IR Inten    --    134.0976                75.8577                10.0618

                     22                     23                     24
                      A                      A                      A
 Frequencies --   1154.7621              1191.9703              1201.2778
 Red. masses --      5.2371                 1.5123                 1.0389
 Frc consts  --      4.1146                 1.2660                 0.8833
 IR Inten    --     59.0318                18.6169                 0.0028

                     25                     26                     27
                      A                      A                      A
 Frequencies --   1297.0367              1436.6178              1453.0582
 Red. masses --      4.7548                 1.7384                 1.3884
 Frc consts  --      4.7128                 2.1139                 1.7271
 IR Inten    --     85.7253               187.1596                 5.3015

                     28                     29                     30
                      A                      A                      A
 Frequencies --   1464.4088              1536.8366              1568.3928
 Red. masses --      4.7483                 4.5894                 1.1655
 Frc consts  --      5.9994                 6.3865                 1.6891
 IR Inten    --    687.0520                49.0223                 7.1130

                     31                     32                     33
                      A                      A                      A
 Frequencies --   1614.4753              1763.2870              2911.9513
 Red. masses --      8.0710                 8.9930                 1.0833
 Frc consts  --     12.3949                16.4740                 5.4119
 IR Inten    --     91.8342               316.5928               127.9190

                     34                     35                     36
                      A                      A                      A
 Frequencies --   3067.0455              3123.4828              3267.1978
 Red. masses --      1.0534                 1.1211                 1.0944
 Frc consts  --      5.8382                 6.4441                 6.8831
 IR Inten    --    108.1686                38.3850                 1.6617

 - Thermochemistry -
 -------------------
 Temperature   298.150 Kelvin.  Pressure   1.00000 Atm.
 Atom     1 has atomic number  6 and mass  12.00000

 Molecular mass:   155.98812 amu.
 Principal axes and moments of inertia in atomic units:
                           1         2         3
     Eigenvalues --   606.129872297.325102891.66190
           X            0.99995  -0.01034   0.00002
           Y            0.01034   0.99995  -0.00000
           Z           -0.00002   0.00000   1.00000
 This molecule is an asymmetric top.
 Rotational symmetry number  1.
 Warning -- assumption of classical behavior for rotation
           may cause significant error
 Rotational temperatures (Kelvin)      0.14290     0.03770     0.02995
 Rotational constants (GHZ):           2.97748     0.78558     0.62412
    1 imaginary frequencies ignored.
 Zero-point vibrational energy     241667.8 (Joules/Mol)
                                   57.76000 (Kcal/Mol)
 Warning -- explicit consideration of  10 degrees of freedom as
           vibrations may cause significant error
 Vibrational temperatures:    153.52   230.34   293.11   347.71   361.21
          (Kelvin)            538.73   613.66   698.20   787.08   805.33
                              897.74  1038.12  1138.35  1184.47  1236.15
                             1315.17  1440.37  1505.07  1558.94  1628.40
                             1661.45  1714.98  1728.37  1866.15  2066.97
                             2090.63  2106.96  2211.17  2256.57  2322.87
                             2536.98  4189.65  4412.79  4494.00  4700.77

 Zero-point correction=                           0.092046 (Hartree/Particle)
 Thermal correction to Energy=                    0.099726
 Thermal correction to Enthalpy=                  0.100670
 Thermal correction to Gibbs Free Energy=         0.058891
 Sum of electronic and zero-point Energies=           -854.765539
 Sum of electronic and thermal Energies=              -854.757860
 Sum of electronic and thermal Enthalpies=            -854.756916
 Sum of electronic and thermal Free Energies=         -854.798695

                     E (Thermal)             CV                S
                      KCal/Mol        Cal/Mol-Kelvin    Cal/Mol-Kelvin
 Total                   62.579             28.265             87.932
 Electronic               0.000              0.000              0.000
 Translational            0.889              2.981             41.043
 Rotational               0.889              2.981             29.778
 Vibrational             60.801             22.304             17.111
 Vibration     1          0.606              1.944              3.328
 Vibration     2          0.622              1.891              2.549
 Vibration     3          0.639              1.835              2.099
 Vibration     4          0.658              1.776              1.791
 Vibration     5          0.663              1.761              1.723
 Vibration     6          0.746              1.525              1.062
 Vibration     7          0.788              1.413              0.870
 Vibration     8          0.841              1.283              0.696
 Vibration     9          0.902              1.146              0.550
 Vibration    10          0.915              1.118              0.524

                           ! Non-Optimized Parameters !
 Normal termination of Gaussian 16 at Mon Dec 14 13:07:20 2020.

 ----------------------------------------------------------------------
 # B3LYP/6-311++G(d,p) empiricaldispersion=gd3bj scf=xqc pop=npa geom=c
 heck
 ----------------------------------------------------------------------

 -------------------------------------
 CID_96634940_JID_939_Energie_neutraal
 -------------------------------------
 Structure from the checkpoint file:  "JID_939.chk"
 Charge =  0 Multiplicity = 1

 SCF Done:  E(RB3LYP) =  -855.014538173     A.U. after   17 cycles
 Normal termination of Gaussian 16 at Mon Dec 14 13:08:13 2020.

 ----------------------------------------------------------------------
 # B3LYP/6-311++G(d,p) empiricaldispersion=gd3bj scf=xqc pop=npa geom=c
 heck
 ----------------------------------------------------------------------

 -----------------------------------
 CID_96634940_JID_939_Energie_kation
 -----------------------------------
 Structure from the checkpoint file:  "JID_939.chk"
 Charge =  1 Multiplicity = 2

 SCF Done:  E(UB3LYP) =  -854.717854783     A.U. after   21 cycles
 Normal termination of Gaussian 16 at Mon Dec 14 13:09:28 2020.
 Gaussian 16:  ES64L-G16RevA.03 25-Dec-2016

 ----------------------------------------------------------------------
 # B3LYP/6-311++G(d,p) empiricaldispersion=gd3bj scf=xqc pop=npa geom=c
 heck
 ----------------------------------------------------------------------

 ----------------------------------
 CID_96634940_JID_939_Energie_anion
 ----------------------------------
 Structure from the checkpoint file:  "JID_939.chk"
 Charge = -1 Multiplicity = 2

                         Standard orientation:
 ---------------------------------------------------------------------
 Center     Atomic      Atomic             Coordinates (Angstroms)
 Number     Number       Type             X           Y           Z
 ---------------------------------------------------------------------
      1          6           0        2.957198   -0.415687    0.001403
      2          8           0        1.956233   -1.446979   -0.000846
      3          6           0        0.753180   -0.774106   -0.000447
      4          6           0        0.975684    0.573120   -0.000221
      5          8           0        2.296171    0.883325   -0.000340
      6         16           0       -0.457802    1.513263   -0.000276
      7          6           0       -1.402917    0.004433    0.000123
      8          6           0       -0.600513   -1.131595   -0.000573
      9          6           0       -2.852529    0.053775    0.000714
     10          8           0       -3.562833   -0.940116    0.000303
     11          1           0        3.570043   -0.493013   -0.902208
     12          1           0        3.565859   -0.492747    0.907934
     13          1           0       -1.015349   -2.130875   -0.000770
     14          1           0       -3.292893    1.074957    0.000525
 ---------------------------------------------------------------------

 SCF Done:  E(UB3LYP) =  -855.027890454     A.U. after   27 cycles

 The electronic state is 2-A.
 Alpha  occ. eigenvalues --  -88.71917 -19.03657 -19.03627 -18.90247 -10.17726
 Alpha  occ. eigenvalues --  -10.07763 -10.07256 -10.04625 -10.02237 -10.00572
 Alpha  occ. eigenvalues --   -7.80534  -5.76864  -5.76511  -5.76088  -0.99473
 Alpha  occ. eigenvalues --   -0.90741  -0.83994  -0.72253  -0.61467  -0.58406
 Alpha  occ. eigenvalues --   -0.53552  -0.46840  -0.45687  -0.39909  -0.39226
 Alpha  occ. eigenvalues --   -0.34472  -0.34174  -0.30704  -0.26803  -0.26269
 Alpha  occ. eigenvalues --   -0.25542  -0.24639  -0.24546  -0.21856  -0.21593
 Alpha  occ. eigenvalues --   -0.19544  -0.16579  -0.10089  -0.06978  -0.05232
 Alpha  occ. eigenvalues --    0.05495
 Alpha virt. eigenvalues --    0.08219   0.10895   0.11851   0.12148   0.12777
 Alpha virt. eigenvalues --    0.14522   0.15054   0.15757   0.16461   0.17798
 Alpha virt. eigenvalues --    0.19079   0.19216   0.20153   0.20237   0.20732

  Beta  occ. eigenvalues --  -88.71853 -19.03694 -19.03510 -18.89711 -10.17728
  Beta  occ. eigenvalues --  -10.07446 -10.07285 -10.04301 -10.02201 -10.00164
  Beta  occ. eigenvalues --   -7.80476  -5.76841  -5.76481  -5.75871  -0.99365
  Beta  occ. eigenvalues --   -0.90643  -0.83012  -0.71892  -0.61329  -0.57846
  Beta  occ. eigenvalues --   -0.53035  -0.46097  -0.45479  -0.39770  -0.38895
  Beta  occ. eigenvalues --   -0.34268  -0.33783  -0.30381  -0.26018  -0.25904
  Beta  occ. eigenvalues --   -0.25480  -0.24270  -0.24110  -0.21518  -0.19596
  Beta  occ. eigenvalues --   -0.19255  -0.15142  -0.08534  -0.06496  -0.03467
  Beta virt. eigenvalues --    0.08213   0.10885   0.11858   0.12146   0.12482
  Beta virt. eigenvalues --    0.12786   0.14523   0.15067   0.16125   0.16553
  Beta virt. eigenvalues --    0.17784   0.19202   0.19717   0.20272   0.20315

 Mulliken charges and spin densities:
               1          2
     1  C    0.023011   0.001609
     2  O   -0.197500  -0.001954
     3  C   -0.247230  -0.155760
     4  C    0.145926   0.247262
     5  O   -0.157564   0.024609
     6  S   -0.508999   0.118509
     7  C    0.085107  -0.057548
     8  C    0.131434   0.404566
     9  C   -0.283364   0.285247
    10  O   -0.433150   0.183987
    11  H    0.142849  -0.001014
    12  H    0.142811  -0.001000
    13  H    0.160667  -0.025482
    14  H   -0.003998  -0.023031
 Sum of Mulliken charges =  -1.00000   1.00000

 Dipole moment (field-independent basis, Debye):
    X=              8.2900    Y=              1.5287    Z=              0.0030  Tot=              8.4298
 Quadrupole moment (field-independent basis, Debye-Ang):
   XX=            -99.7971   YY=            -78.4556   ZZ=            -70.2582
   XY=             -9.8529   XZ=              0.0101   YZ=             -0.0028

 Summary of Natural Population Analysis:

                                       Natural Population
                Natural  -----------------------------------------------
    Atom  No    Charge         Core      Valence    Rydberg      Total
 -----------------------------------------------------------------------
      C    1    0.15715      0.99964     1.82974    0.01348     2.84285
      O    2   -0.28579      0.99987     3.27819    0.00772     4.28579
      C    3    0.05106      0.99922     1.93584    0.01388     2.94894
      C    4    0.11029      0.99928     1.87204    0.01839     2.88971
      O    5   -0.27117      0.99986     3.26207    0.00924     4.27117
      S    6    0.19498      4.99940     2.78271    0.02291     7.80502
      C    7   -0.14490      0.99949     2.13434    0.01106     3.14490
      C    8   -0.04420      0.99944     2.03496    0.00981     3.04420
      C    9    0.22325      0.99961     1.75500    0.02214     2.77675
      O   10   -0.26047      0.99988     3.25203    0.00856     4.26047
      H   11    0.06769      0.00000     0.43062    0.00170     0.43231
      H   12    0.06759      0.00000     0.43070    0.00170     0.43241
      H   13    0.10742      0.00000     0.39129    0.00129     0.39258
      H   14    0.02711      0.00000     0.46972    0.00317     0.47289
 =======================================================================
   * Total *   -0.00000     13.99570    25.85924    0.14506    40.00000

 Normal termination of Gaussian 16 at Mon Dec 14 13:11:02 2020.
