 Gaussian 16, Revision A.03,

 -----------------------------------------------------------
 # opt freq B3LYP/6-31G(d) empiricaldispersion=gd3bj scf=xqc
 -----------------------------------------------------------

 -------------------------------
 CID_115246125_JID_5529_neutraal
 -------------------------------
 Symbolic Z-matrix:
 Charge =  0 Multiplicity = 1

 SCF Done:  E(RB3LYP) =  -634.153564861     A.U. after   14 cycles
 SCF Done:  E(RB3LYP) =  -634.163072182     A.U. after   11 cycles
 SCF Done:  E(RB3LYP) =  -634.162589454     A.U. after   12 cycles
 SCF Done:  E(RB3LYP) =  -634.163349715     A.U. after   11 cycles
 SCF Done:  E(RB3LYP) =  -634.164433732     A.U. after   11 cycles
 SCF Done:  E(RB3LYP) =  -634.164756742     A.U. after   11 cycles
 SCF Done:  E(RB3LYP) =  -634.165091086     A.U. after   12 cycles
 SCF Done:  E(RB3LYP) =  -634.165372862     A.U. after   12 cycles
 SCF Done:  E(RB3LYP) =  -634.165541083     A.U. after   12 cycles
 SCF Done:  E(RB3LYP) =  -634.165555522     A.U. after   10 cycles
 SCF Done:  E(RB3LYP) =  -634.166266007     A.U. after    9 cycles
 SCF Done:  E(RB3LYP) =  -634.166265563     A.U. after    8 cycles
 SCF Done:  E(RB3LYP) =  -634.166266149     A.U. after    8 cycles
 SCF Done:  E(RB3LYP) =  -634.166266209     A.U. after    7 cycles
 SCF Done:  E(RB3LYP) =  -634.166266233     A.U. after    7 cycles
 Optimization completed.
    -- Stationary point found.
 Normal termination of Gaussian 16 at Thu Dec 10 16:57:06 2020.

 --------------------------------------------------------------------
 #N Geom=AllCheck Guess=TCheck SCRF=Check GenChk RB3LYP/6-31G(d) Freq
 --------------------------------------------------------------------

 Structure from the checkpoint file:  "JID_5529.chk"
 -------------------------------
 CID_115246125_JID_5529_neutraal
 -------------------------------
 Charge =  0 Multiplicity = 1

 SCF Done:  E(RB3LYP) =  -634.166266233     A.U. after    1 cycles

  Exact polarizability: 168.602  11.011 131.566   9.223 -10.375 115.703
 Approx polarizability: 220.692  15.538 187.034  16.202 -24.237 191.949

                      1                      2                      3
                      A                      A                      A
 Frequencies --     20.5740                53.5329                65.4515
 Red. masses --      3.6005                 3.2007                 4.0916
 Frc consts  --      0.0009                 0.0054                 0.0103
 IR Inten    --      0.4863                 1.0925                 2.7299

                      4                      5                      6
                      A                      A                      A
 Frequencies --     75.6963               105.7161               138.0816
 Red. masses --      2.8328                 2.3046                 2.6053
 Frc consts  --      0.0096                 0.0152                 0.0293
 IR Inten    --      0.8358                 1.6727                 0.8705

                      7                      8                      9
                      A                      A                      A
 Frequencies --    154.7366               160.5893               219.1207
 Red. masses --      2.7891                 2.2959                 2.0918
 Frc consts  --      0.0393                 0.0349                 0.0592
 IR Inten    --      0.8306                 1.9951                 2.7361

                     10                     11                     12
                      A                      A                      A
 Frequencies --    239.9183               258.3754               273.5428
 Red. masses --      2.2109                 2.1932                 2.4136
 Frc consts  --      0.0750                 0.0863                 0.1064
 IR Inten    --      3.7920                 2.6610                 0.1672

                     13                     14                     15
                      A                      A                      A
 Frequencies --    284.0519               309.2638               343.0207
 Red. masses --      1.9476                 1.5334                 2.1168
 Frc consts  --      0.0926                 0.0864                 0.1467
 IR Inten    --      6.0087                 6.9664                19.8190

                     16                     17                     18
                      A                      A                      A
 Frequencies --    358.4818               390.7793               421.5590
 Red. masses --      1.8523                 2.1248                 1.9929
 Frc consts  --      0.1402                 0.1912                 0.2087
 IR Inten    --     23.1365                15.3722                20.4076

                     19                     20                     21
                      A                      A                      A
 Frequencies --    457.6701               478.1354               529.7830
 Red. masses --      2.1333                 3.4538                 2.9337
 Frc consts  --      0.2633                 0.4652                 0.4851
 IR Inten    --     13.7332                 2.4581                10.4987

                     22                     23                     24
                      A                      A                      A
 Frequencies --    616.7952               618.5922               639.6283
 Red. masses --      3.7414                 1.8701                 1.3322
 Frc consts  --      0.8386                 0.4216                 0.3211
 IR Inten    --     10.8475                18.9364                29.0123

                     25                     26                     27
                      A                      A                      A
 Frequencies --    650.6104               679.0245               702.5170
 Red. masses --      2.8928                 1.5842                 2.4781
 Frc consts  --      0.7215                 0.4304                 0.7206
 IR Inten    --      5.9983                68.2139                21.9909

                     28                     29                     30
                      A                      A                      A
 Frequencies --    745.9506               754.7107               812.7766
 Red. masses --      1.8368                 1.5228                 1.2872
 Frc consts  --      0.6022                 0.5110                 0.5010
 IR Inten    --     61.4089                35.6199                 0.5826

                     31                     32                     33
                      A                      A                      A
 Frequencies --    839.0446               862.5399               887.0737
 Red. masses --      1.2252                 2.2092                 2.0425
 Frc consts  --      0.5082                 0.9684                 0.9470
 IR Inten    --      0.6093                 3.5222                 7.6279

                     34                     35                     36
                      A                      A                      A
 Frequencies --    897.7397               905.1936               943.5224
 Red. masses --      2.8643                 3.0476                 2.6030
 Frc consts  --      1.3601                 1.4713                 1.3653
 IR Inten    --     10.3805                 0.5672                 5.7787

                     37                     38                     39
                      A                      A                      A
 Frequencies --    950.1743               953.8454               987.5288
 Red. masses --      2.6546                 2.3578                 2.5945
 Frc consts  --      1.4121                 1.2639                 1.4907
 IR Inten    --      5.5308                 3.0783                 7.0458

                     40                     41                     42
                      A                      A                      A
 Frequencies --    998.8128              1021.1688              1059.4650
 Red. masses --      1.9424                 2.0343                 1.4070
 Frc consts  --      1.1417                 1.2499                 0.9305
 IR Inten    --      3.7863                52.3576                14.4174

                     43                     44                     45
                      A                      A                      A
 Frequencies --   1061.3239              1087.3942              1112.5547
 Red. masses --      1.6955                 1.3485                 2.0261
 Frc consts  --      1.1253                 0.9395                 1.4776
 IR Inten    --      8.4703                 6.4854                23.3906

                     46                     47                     48
                      A                      A                      A
 Frequencies --   1125.0028              1141.2492              1151.6409
 Red. masses --      2.0670                 1.6389                 1.5920
 Frc consts  --      1.5414                 1.2576                 1.2440
 IR Inten    --      6.2055                 4.5808                 3.2330

                     49                     50                     51
                      A                      A                      A
 Frequencies --   1164.5660              1167.1683              1206.7878
 Red. masses --      1.3316                 1.6754                 1.9799
 Frc consts  --      1.0640                 1.3447                 1.6988
 IR Inten    --      6.0113                16.1705                21.6652

                     52                     53                     54
                      A                      A                      A
 Frequencies --   1212.6986              1222.9790              1227.8645
 Red. masses --      2.0826                 1.7003                 1.9834
 Frc consts  --      1.8045                 1.4984                 1.7618
 IR Inten    --      7.8283                 3.8824                 2.0274

                     55                     56                     57
                      A                      A                      A
 Frequencies --   1252.1497              1272.9552              1280.8207
 Red. masses --      2.3399                 1.3272                 1.5041
 Frc consts  --      2.1615                 1.2671                 1.4538
 IR Inten    --     18.2209                 0.3737                 8.7801

                     58                     59                     60
                      A                      A                      A
 Frequencies --   1289.5829              1292.3128              1313.2622
 Red. masses --      1.5717                 1.4297                 1.7668
 Frc consts  --      1.5400                 1.4068                 1.7953
 IR Inten    --      0.8965                 2.3041                12.0281

                     61                     62                     63
                      A                      A                      A
 Frequencies --   1333.8399              1350.0673              1389.8278
 Red. masses --      1.8143                 1.6563                 1.5811
 Frc consts  --      1.9018                 1.7787                 1.7994
 IR Inten    --      6.8638                 3.0789                 9.8480

                     64                     65                     66
                      A                      A                      A
 Frequencies --   1402.4667              1429.1598              1435.4248
 Red. masses --      1.2467                 1.3272                 2.4837
 Frc consts  --      1.4448                 1.5971                 3.0151
 IR Inten    --     16.0005                 4.8996                 1.9852

                     67                     68                     69
                      A                      A                      A
 Frequencies --   1478.0364              1482.5672              1487.4085
 Red. masses --      1.1776                 1.1367                 3.4807
 Frc consts  --      1.5157                 1.4721                 4.5371
 IR Inten    --     11.1007                 1.6264                24.7729

                     70                     71                     72
                      A                      A                      A
 Frequencies --   1506.0339              1509.9503              1513.5680
 Red. masses --      1.0861                 1.1155                 1.0813
 Frc consts  --      1.4514                 1.4984                 1.4595
 IR Inten    --      7.3243                 0.0678                 3.8845

                     73                     74                     75
                      A                      A                      A
 Frequencies --   1515.5616              1518.6600              1524.8712
 Red. masses --      1.2121                 1.0833                 1.0890
 Frc consts  --      1.6403                 1.4720                 1.4919
 IR Inten    --     25.7871                 6.0887                 9.6467

                     76                     77                     78
                      A                      A                      A
 Frequencies --   1532.3634              1544.2517              1546.2556
 Red. masses --      1.1050                 1.4469                 1.2662
 Frc consts  --      1.5287                 2.0329                 1.7837
 IR Inten    --     20.9348                12.8025                 8.7302

                     79                     80                     81
                      A                      A                      A
 Frequencies --   1552.2347              1561.8045              1638.6394
 Red. masses --      1.1389                 1.5305                 4.0315
 Frc consts  --      1.6168                 2.1996                 6.3781
 IR Inten    --      5.4791                41.6292               174.3069

                     82                     83                     84
                      A                      A                      A
 Frequencies --   2956.9221              2985.8541              3007.6281
 Red. masses --      1.0607                 1.0580                 1.0739
 Frc consts  --      5.4640                 5.5572                 5.7234
 IR Inten    --    100.5515                64.6310                43.8530

                     85                     86                     87
                      A                      A                      A
 Frequencies --   3049.1114              3065.3424              3066.9735
 Red. masses --      1.0578                 1.0671                 1.0708
 Frc consts  --      5.7945                 5.9074                 5.9347
 IR Inten    --     36.9825                49.8057                62.4129

                     88                     89                     90
                      A                      A                      A
 Frequencies --   3068.9252              3075.1644              3088.3298
 Red. masses --      1.0634                 1.0613                 1.0780
 Frc consts  --      5.9009                 5.9134                 6.0577
 IR Inten    --      9.2007                43.8398                41.1547

                     91                     92                     93
                      A                      A                      A
 Frequencies --   3095.3216              3104.9819              3105.6688
 Red. masses --      1.1057                 1.0945                 1.0994
 Frc consts  --      6.2418                 6.2172                 6.2479
 IR Inten    --     24.5447                 2.6653                45.7860

                     94                     95                     96
                      A                      A                      A
 Frequencies --   3110.8545              3124.0820              3148.5726
 Red. masses --      1.1002                 1.1069                 1.1003
 Frc consts  --      6.2733                 6.3652                 6.4267
 IR Inten    --     47.3367                55.5621                18.7692

                     97                     98                     99
                      A                      A                      A
 Frequencies --   3159.4505              3253.5310              3272.3314
 Red. masses --      1.0974                 1.0897                 1.0954
 Frc consts  --      6.4543                 6.7962                 6.9111
 IR Inten    --     10.6012                10.4635                 5.8697

                    100                    101                    102
                      A                      A                      A
 Frequencies --   3285.8203              3522.8887              3677.8537
 Red. masses --      1.1030                 1.0737                 1.0794
 Frc consts  --      7.0163                 7.8512                 8.6026
 IR Inten    --      3.7358                 0.3745                33.1509

 - Thermochemistry -
 -------------------
 Temperature   298.150 Kelvin.  Pressure   1.00000 Atm.
 Atom     1 has atomic number  6 and mass  12.00000

 Molecular mass:   207.17355 amu.
 Principal axes and moments of inertia in atomic units:
                           1         2         3
     Eigenvalues --  1772.481854434.579095453.87893
           X            0.99987   0.01528   0.00597
           Y           -0.01521   0.99981  -0.01182
           Z           -0.00615   0.01173   0.99991
 This molecule is an asymmetric top.
 Rotational symmetry number  1.
 Warning -- assumption of classical behavior for rotation
           may cause significant error
 Rotational temperatures (Kelvin)      0.04887     0.01953     0.01588
 Rotational constants (GHZ):           1.01820     0.40697     0.33091
 Zero-point vibrational energy     848904.3 (Joules/Mol)
                                  202.89299 (Kcal/Mol)
 Warning -- explicit consideration of  23 degrees of freedom as
           vibrations may cause significant error
 Vibrational temperatures:     29.60    77.02    94.17   108.91   152.10
          (Kelvin)            198.67   222.63   231.05   315.27   345.19
                              371.74   393.57   408.69   444.96   493.53
                              515.78   562.24   606.53   658.49   687.93
                              762.24   887.43   890.02   920.28   936.08
                              976.96  1010.77  1073.26  1085.86  1169.40
                             1207.20  1241.00  1276.30  1291.65  1302.37
                             1357.52  1367.09  1372.37  1420.83  1437.07
                             1469.23  1524.33  1527.01  1564.52  1600.72
                             1618.63  1642.00  1656.95  1675.55  1679.29
                             1736.30  1744.80  1759.59  1766.62  1801.56
                             1831.50  1842.82  1855.42  1859.35  1889.49
                             1919.10  1942.45  1999.65  2017.84  2056.24
                             2065.26  2126.56  2133.08  2140.05  2166.85
                             2172.48  2177.69  2180.56  2185.01  2193.95
                             2204.73  2221.83  2224.72  2233.32  2247.09
                             2357.64  4254.35  4295.98  4327.31  4386.99
                             4410.34  4412.69  4415.50  4424.48  4443.42
                             4453.48  4467.38  4468.36  4475.83  4494.86
                             4530.09  4545.74  4681.11  4708.16  4727.56
                             5068.65  5291.61

 Zero-point correction=                           0.323331 (Hartree/Particle)
 Thermal correction to Energy=                    0.339029
 Thermal correction to Enthalpy=                  0.339974
 Thermal correction to Gibbs Free Energy=         0.279859
 Sum of electronic and zero-point Energies=           -633.842936
 Sum of electronic and thermal Energies=              -633.827237
 Sum of electronic and thermal Enthalpies=            -633.826293
 Sum of electronic and thermal Free Energies=         -633.886407

                     E (Thermal)             CV                S
                      KCal/Mol        Cal/Mol-Kelvin    Cal/Mol-Kelvin
 Total                  212.744             60.366            126.521
 Electronic               0.000              0.000              0.000
 Translational            0.889              2.981             41.889
 Rotational               0.889              2.981             32.128
 Vibrational            210.967             54.404             52.505
 Vibration     1          0.593              1.986              6.578
 Vibration     2          0.596              1.976              4.682
 Vibration     3          0.597              1.971              4.286
 Vibration     4          0.599              1.965              3.999
 Vibration     5          0.605              1.945              3.346
 Vibration     6          0.614              1.915              2.830
 Vibration     7          0.620              1.897              2.613
 Vibration     8          0.622              1.891              2.543
 Vibration     9          0.647              1.812              1.966
 Vibration    10          0.657              1.779              1.803
 Vibration    11          0.667              1.749              1.673
 Vibration    12          0.676              1.722              1.574
 Vibration    13          0.682              1.703              1.509
 Vibration    14          0.699              1.656              1.366
 Vibration    15          0.722              1.589              1.198
 Vibration    16          0.733              1.558              1.129
 Vibration    17          0.758              1.490              0.997
 Vibration    18          0.784              1.423              0.887
 Vibration    19          0.816              1.344              0.773
 Vibration    20          0.835              1.299              0.715
 Vibration    21          0.885              1.184              0.588
 Vibration    22          0.976              0.996              0.422
 Vibration    23          0.978              0.993              0.419

 Optimization completed.
    -- Stationary point found.
 Normal termination of Gaussian 16 at Thu Dec 10 17:10:21 2020.

 ----------------------------------------------------------------------
 # B3LYP/6-311++G(d,p) empiricaldispersion=gd3bj scf=xqc pop=npa geom=c
 heck
 ----------------------------------------------------------------------

 ---------------------------------------
 CID_115246125_JID_5529_Energie_neutraal
 ---------------------------------------
 Structure from the checkpoint file:  "JID_5529.chk"
 Charge =  0 Multiplicity = 1

 SCF Done:  E(RB3LYP) =  -634.345804057     A.U. after   15 cycles
 Normal termination of Gaussian 16 at Thu Dec 10 17:16:41 2020.

 ----------------------------------------------------------------------
 # B3LYP/6-311++G(d,p) empiricaldispersion=gd3bj scf=xqc pop=npa geom=c
 heck
 ----------------------------------------------------------------------

 -------------------------------------
 CID_115246125_JID_5529_Energie_kation
 -------------------------------------
 Structure from the checkpoint file:  "JID_5529.chk"
 Charge =  1 Multiplicity = 2

 SCF Done:  E(UB3LYP) =  -634.102203365     A.U. after   23 cycles
 Normal termination of Gaussian 16 at Thu Dec 10 17:27:40 2020.
 Gaussian 16:  ES64L-G16RevA.03 25-Dec-2016

 ----------------------------------------------------------------------
 # B3LYP/6-311++G(d,p) empiricaldispersion=gd3bj scf=xqc pop=npa geom=c
 heck
 ----------------------------------------------------------------------

 ------------------------------------
 CID_115246125_JID_5529_Energie_anion
 ------------------------------------
 Structure from the checkpoint file:  "JID_5529.chk"
 Charge = -1 Multiplicity = 2

                         Standard orientation:
 ---------------------------------------------------------------------
 Center     Atomic      Atomic             Coordinates (Angstroms)
 Number     Number       Type             X           Y           Z
 ---------------------------------------------------------------------
      1          6           0       -3.608173   -1.648380   -0.424301
      2          7           0       -3.511474   -0.310708    0.135436
      3          6           0       -2.325345    0.034249    0.916166
      4          6           0       -1.179177    0.735613    0.164610
      5          6           0       -1.584993    2.115574   -0.457216
      6          6           0       -0.280356    2.726132    0.115373
      7          6           0       -0.168605    1.512081    1.068481
      8          6           0       -0.489273   -0.121372   -0.923455
      9          7           0        0.502511   -1.121295   -0.522725
     10          6           0        0.042096   -2.264460    0.242500
     11          6           0        1.791320   -0.689029   -0.200251
     12          6           0        2.650843   -1.065326    0.817849
     13          6           0        3.876443   -0.350206    0.628313
     14          6           0        3.735802    0.438408   -0.484958
     15          7           0        2.455974    0.233932   -0.982352
     16          1           0       -3.502731   -2.381764    0.383450
     17          1           0       -2.871385   -1.910445   -1.204956
     18          1           0       -4.606069   -1.782613   -0.857026
     19          1           0       -3.698133    0.398526   -0.567892
     20          1           0       -2.636481    0.720489    1.718013
     21          1           0       -1.973141   -0.873023    1.417404
     22          1           0       -1.735715    2.154597   -1.542794
     23          1           0       -2.474532    2.529986    0.030694
     24          1           0       -0.351829    3.719948    0.566667
     25          1           0        0.531073    2.740312   -0.619080
     26          1           0       -0.615137    1.725168    2.046466
     27          1           0        0.817361    1.072886    1.224143
     28          1           0       -1.260058   -0.632823   -1.509223
     29          1           0        0.006736    0.556643   -1.625172
     30          1           0        0.776681   -3.071504    0.153836
     31          1           0       -0.096558   -2.053126    1.315661
     32          1           0       -0.909786   -2.610891   -0.166397
     33          1           0        2.417981   -1.747202    1.622335
     34          1           0        4.752187   -0.403309    1.260661
     35          1           0        4.407312    1.138092   -0.959294
     36          1           0        2.129655    0.556833   -1.878669
 ---------------------------------------------------------------------

 SCF Done:  E(UB3LYP) =  -634.333977432     A.U. after   33 cycles
 SCF Done:  E(UB3LYP) =  -634.333977433     a.u. after    1 cycles

 The electronic state is 2-A.
 Alpha  occ. eigenvalues --  -14.24576 -14.22715 -14.20050 -10.12500 -10.10033
 Alpha  occ. eigenvalues --  -10.09949 -10.09392 -10.09245 -10.08556 -10.08214
 Alpha  occ. eigenvalues --  -10.06758 -10.06663 -10.06329 -10.05612 -10.04873
 Alpha  occ. eigenvalues --   -0.88507  -0.82734  -0.80606  -0.74951  -0.67354
 Alpha  occ. eigenvalues --   -0.63873  -0.62433  -0.61625  -0.56615  -0.56338
 Alpha  occ. eigenvalues --   -0.53488  -0.50874  -0.48445  -0.46890  -0.44696
 Alpha  occ. eigenvalues --   -0.42425  -0.40129  -0.38441  -0.37957  -0.36890
 Alpha  occ. eigenvalues --   -0.35593  -0.34790  -0.33699  -0.32859  -0.32584
 Alpha  occ. eigenvalues --   -0.30551  -0.30019  -0.29513  -0.28946  -0.28558
 Alpha  occ. eigenvalues --   -0.28144  -0.27722  -0.27572  -0.26402  -0.24309
 Alpha  occ. eigenvalues --   -0.22799  -0.20868  -0.20228  -0.16692  -0.14659
 Alpha  occ. eigenvalues --   -0.12259  -0.08056   0.04269
 Alpha virt. eigenvalues --    0.06366   0.06963   0.07372   0.08204   0.08547
 Alpha virt. eigenvalues --    0.09226   0.09585   0.09874   0.10298   0.10678
 Alpha virt. eigenvalues --    0.12090   0.12321   0.12501   0.13020   0.13065

  Beta  occ. eigenvalues --  -14.24535 -14.22713 -14.20040 -10.12500 -10.10002
  Beta  occ. eigenvalues --  -10.09933 -10.09387 -10.09213 -10.08542 -10.08213
  Beta  occ. eigenvalues --  -10.06734 -10.06645 -10.06325 -10.05611 -10.04867
  Beta  occ. eigenvalues --   -0.88472  -0.82710  -0.80587  -0.74935  -0.67307
  Beta  occ. eigenvalues --   -0.63842  -0.62408  -0.61586  -0.56571  -0.56301
  Beta  occ. eigenvalues --   -0.53438  -0.50832  -0.48366  -0.46861  -0.44664
  Beta  occ. eigenvalues --   -0.42379  -0.40091  -0.38402  -0.37934  -0.36851
  Beta  occ. eigenvalues --   -0.35560  -0.34758  -0.33667  -0.32833  -0.32554
  Beta  occ. eigenvalues --   -0.30525  -0.29997  -0.29488  -0.28923  -0.28535
  Beta  occ. eigenvalues --   -0.28122  -0.27697  -0.27543  -0.26375  -0.24284
  Beta  occ. eigenvalues --   -0.22779  -0.20840  -0.20207  -0.16678  -0.14637
  Beta  occ. eigenvalues --   -0.12240  -0.08045
  Beta virt. eigenvalues --    0.06444   0.07270   0.07365   0.07930   0.08695
  Beta virt. eigenvalues --    0.08974   0.09451   0.09954   0.10107   0.10681
  Beta virt. eigenvalues --    0.11260   0.12226   0.12396   0.12941   0.13119

 Mulliken charges and spin densities:
               1          2
     1  C    0.557631  -0.948519
     2  N   -0.173522   0.109616
     3  C   -0.023946  -0.582317
     4  C   -0.621845   1.662082
     5  C    0.166718  -0.551942
     6  C    0.189835  -0.707383
     7  C   -0.756367   0.448868
     8  C    1.071759  -2.156766
     9  N    0.177555   0.151588
    10  C    0.220708  -0.492444
    11  C   -0.160475  -0.835460
    12  C    0.237761   0.328038
    13  C    0.349952  -0.860877
    14  C   -0.284602   0.168887
    15  N   -0.247594   0.172439
    16  H   -0.068834   0.216334
    17  H   -0.237724   0.358534
    18  H   -0.334525   0.488855
    19  H    0.030329   0.198077
    20  H    0.082331   0.090123
    21  H    0.061583   0.074368
    22  H   -0.589476   0.784358
    23  H    0.083941   0.029372
    24  H   -0.144231   0.302021
    25  H    0.125062   0.016051
    26  H    0.041857   0.095999
    27  H    0.253425  -0.060156
    28  H   -0.107690   0.293756
    29  H   -0.037295   0.155304
    30  H   -0.011195   0.182646
    31  H    0.035391   0.089799
    32  H    0.080400   0.052595
    33  H   -0.013711   0.162448
    34  H    0.051518   0.083478
    35  H   -0.581121   0.733543
    36  H   -0.423600   0.746687
 Sum of Mulliken charges =  -1.00000   1.00000

 Dipole moment (field-independent basis, Debye):
    X=              0.4280    Y=             -1.3309    Z=              5.3710  Tot=              5.5500
 Quadrupole moment (field-independent basis, Debye-Ang):
   XX=           -168.0103   YY=           -135.9429   ZZ=           -136.9331
   XY=             -5.9306   XZ=              2.0138   YZ=              4.6024

 Summary of Natural Population Analysis:

                                       Natural Population
                Natural  -----------------------------------------------
    Atom  No    Charge         Core      Valence    Rydberg      Total
 -----------------------------------------------------------------------
      C    1   -0.17503      0.99965     2.16702    0.00836     3.17503
      N    2   -0.34494      0.99975     2.83280    0.01238     3.84494
      C    3   -0.08258      0.99955     2.07158    0.01145     3.08258
      C    4   -0.05246      0.99955     2.03912    0.01379     3.05246
      C    5   -0.18916      0.99960     2.18008    0.00948     3.18916
      C    6   -0.19035      0.99965     2.18218    0.00852     3.19035
      C    7   -0.18820      0.99960     2.18132    0.00729     3.18820
      C    8   -0.08148      0.99954     2.06577    0.01617     3.08148
      N    9   -0.26542      0.99966     2.75319    0.01257     3.76542
      C   10   -0.17500      0.99964     2.16723    0.00814     3.17500
      C   11    0.17568      0.99950     1.80932    0.01550     2.82432
      C   12   -0.18058      0.99950     2.17362    0.00746     3.18058
      C   13   -0.14504      0.99957     2.13661    0.00886     3.14504
      C   14   -0.03373      0.99957     2.01984    0.01432     3.03373
      N   15   -0.27977      0.99966     2.76912    0.01099     3.77977
      H   16    0.08955      0.00000     0.40931    0.00114     0.41045
      H   17    0.07733      0.00000     0.42097    0.00170     0.42267
      H   18    0.09502      0.00000     0.40389    0.00109     0.40498
      H   19    0.17437      0.00000     0.32232    0.00332     0.32563
      H   20    0.08934      0.00000     0.40922    0.00143     0.41066
      H   21    0.09445      0.00000     0.40393    0.00162     0.40555
      H   22    0.10142      0.00000     0.39674    0.00184     0.39858
      H   23    0.09603      0.00000     0.40277    0.00121     0.40397
      H   24    0.09371      0.00000     0.40537    0.00091     0.40629
      H   25    0.09993      0.00000     0.39793    0.00213     0.40007
      H   26    0.09359      0.00000     0.40533    0.00109     0.40641
      H   27    0.10877      0.00000     0.38979    0.00144     0.39123
      H   28    0.10118      0.00000     0.39655    0.00227     0.39882
      H   29    0.09998      0.00000     0.39672    0.00329     0.40002
      H   30    0.09887      0.00000     0.40010    0.00103     0.40113
      H   31    0.08256      0.00000     0.41625    0.00120     0.41744
      H   32    0.09942      0.00000     0.39946    0.00112     0.40058
      H   33    0.10443      0.00000     0.39476    0.00081     0.39557
      H   34    0.10062      0.00000     0.39874    0.00064     0.39938
      H   35    0.10042      0.00000     0.39846    0.00112     0.39958
      H   36    0.20707      0.00000     0.28539    0.00753     0.29293
 =======================================================================
   * Total *   -0.00000     14.99398    41.80281    0.20322    57.00000

 Normal termination of Gaussian 16 at Thu Dec 10 17:44:08 2020.
