 Gaussian 16, Revision A.03,

 -----------------------------------------------------------
 # opt freq B3LYP/6-31G(d) empiricaldispersion=gd3bj scf=xqc
 -----------------------------------------------------------

 ------------------------------
 CID_43507891_JID_9325_neutraal
 ------------------------------
 Symbolic Z-matrix:
 Charge =  0 Multiplicity = 1

 SCF Done:  E(RB3LYP) =  -808.936515660     A.U. after   15 cycles
 SCF Done:  E(RB3LYP) =  -808.940567265     A.U. after   12 cycles
 SCF Done:  E(RB3LYP) =  -808.939811103     A.U. after   13 cycles
 SCF Done:  E(RB3LYP) =  -808.941511822     A.U. after   11 cycles
 SCF Done:  E(RB3LYP) =  -808.942013130     A.U. after   12 cycles
 SCF Done:  E(RB3LYP) =  -808.942415557     A.U. after   13 cycles
 SCF Done:  E(RB3LYP) =  -808.942684378     A.U. after   11 cycles
 SCF Done:  E(RB3LYP) =  -808.942863817     A.U. after   12 cycles
 SCF Done:  E(RB3LYP) =  -808.942899783     A.U. after   11 cycles
 SCF Done:  E(RB3LYP) =  -808.942925130     A.U. after   11 cycles
 SCF Done:  E(RB3LYP) =  -808.942962793     A.U. after    6 cycles
 SCF Done:  E(RB3LYP) =  -808.942962799     A.U. after    7 cycles
 SCF Done:  E(RB3LYP) =  -808.942962784     A.U. after    7 cycles
 SCF Done:  E(RB3LYP) =  -808.942962756     A.U. after    7 cycles
 SCF Done:  E(RB3LYP) =  -808.942962731     A.U. after    7 cycles
 Optimization completed.
    -- Stationary point found.
 Normal termination of Gaussian 16 at Mon Dec 14 17:02:14 2020.

 --------------------------------------------------------------------
 #N Geom=AllCheck Guess=TCheck SCRF=Check GenChk RB3LYP/6-31G(d) Freq
 --------------------------------------------------------------------

 Structure from the checkpoint file:  "JID_9325.chk"
 ------------------------------
 CID_43507891_JID_9325_neutraal
 ------------------------------
 Charge =  0 Multiplicity = 1

 SCF Done:  E(RB3LYP) =  -808.942962731     A.U. after    1 cycles

  Exact polarizability: 229.644  -0.114 174.852  22.351   8.154 144.279
 Approx polarizability: 296.258  -1.934 271.858  54.365  23.922 225.794

                      1                      2                      3
                      A                      A                      A
 Frequencies --      7.9950                20.7761                41.2964
 Red. masses --      3.8712                 4.3358                 3.2181
 Frc consts  --      0.0001                 0.0011                 0.0032
 IR Inten    --      0.0462                 0.5341                 0.1834

                      4                      5                      6
                      A                      A                      A
 Frequencies --     43.4981                55.0607                61.8371
 Red. masses --      2.6886                 4.3179                 3.8447
 Frc consts  --      0.0030                 0.0077                 0.0087
 IR Inten    --      0.4614                 0.9039                 1.7188

                      7                      8                      9
                      A                      A                      A
 Frequencies --     78.3716                84.7581               146.2537
 Red. masses --      4.0604                 2.6981                 2.5229
 Frc consts  --      0.0147                 0.0114                 0.0318
 IR Inten    --      0.4056                 0.9975                 0.9361

                     10                     11                     12
                      A                      A                      A
 Frequencies --    157.7010               184.5920               200.8739
 Red. masses --      2.7591                 2.7767                 2.4056
 Frc consts  --      0.0404                 0.0557                 0.0572
 IR Inten    --      1.9714                 0.1939                 0.3525

                     13                     14                     15
                      A                      A                      A
 Frequencies --    218.5205               237.4292               251.9909
 Red. masses --      1.2746                 1.7591                 1.7138
 Frc consts  --      0.0359                 0.0584                 0.0641
 IR Inten    --      0.0889                 0.1691                 1.7714

                     16                     17                     18
                      A                      A                      A
 Frequencies --    262.3402               278.5147               289.2865
 Red. masses --      1.4471                 3.5331                 2.4621
 Frc consts  --      0.0587                 0.1615                 0.1214
 IR Inten    --      0.1811                 0.7516                 0.7340

                     19                     20                     21
                      A                      A                      A
 Frequencies --    305.5336               344.5654               361.6836
 Red. masses --      2.6416                 2.7205                 4.9579
 Frc consts  --      0.1453                 0.1903                 0.3821
 IR Inten    --      2.0050                 0.9827                 1.8566

                     22                     23                     24
                      A                      A                      A
 Frequencies --    366.8734               406.0862               416.0989
 Red. masses --      2.4150                 3.9915                 3.0662
 Frc consts  --      0.1915                 0.3878                 0.3128
 IR Inten    --      0.6057                 9.2485                 5.0139

                     25                     26                     27
                      A                      A                      A
 Frequencies --    444.2328               473.3466               542.6698
 Red. masses --      2.7448                 3.1254                 2.5081
 Frc consts  --      0.3191                 0.4126                 0.4352
 IR Inten    --      0.9690                 4.6292                 8.2462

                     28                     29                     30
                      A                      A                      A
 Frequencies --    560.0356               604.8295               620.1785
 Red. masses --      2.2313                 3.2097                 2.0000
 Frc consts  --      0.4123                 0.6918                 0.4532
 IR Inten    --     45.0534                16.3478                31.6335

                     31                     32                     33
                      A                      A                      A
 Frequencies --    623.2869               677.5134               708.7224
 Red. masses --      3.3644                 5.5273                 3.3095
 Frc consts  --      0.7701                 1.4949                 0.9794
 IR Inten    --      4.9281                 6.8450                 2.8361

                     34                     35                     36
                      A                      A                      A
 Frequencies --    720.3534               740.1350               762.4096
 Red. masses --      2.2586                 1.6338                 2.4979
 Frc consts  --      0.6905                 0.5273                 0.8555
 IR Inten    --     16.4540                86.5575                11.9639

                     37                     38                     39
                      A                      A                      A
 Frequencies --    784.6157               793.2954               806.1013
 Red. masses --      1.3345                 2.1320                 1.6303
 Frc consts  --      0.4840                 0.7905                 0.6242
 IR Inten    --     11.5501                12.2879                21.8427

                     40                     41                     42
                      A                      A                      A
 Frequencies --    821.2902               858.8470               891.9124
 Red. masses --      2.3478                 1.3773                 1.9769
 Frc consts  --      0.9330                 0.5986                 0.9266
 IR Inten    --     14.6870                 0.4237                 0.1645

                     43                     44                     45
                      A                      A                      A
 Frequencies --    896.1916               898.8721               905.2423
 Red. masses --      1.5012                 1.9334                 1.5896
 Frc consts  --      0.7104                 0.9204                 0.7675
 IR Inten    --      9.4022                 1.5341                 5.8511

                     46                     47                     48
                      A                      A                      A
 Frequencies --    918.6555               933.4054               951.7085
 Red. masses --      2.5780                 1.3218                 1.3238
 Frc consts  --      1.2819                 0.6785                 0.7064
 IR Inten    --      4.5673                12.2836                 3.2393

                     49                     50                     51
                      A                      A                      A
 Frequencies --    967.4339               986.4332              1022.7924
 Red. masses --      1.2672                 2.5896                 5.3965
 Frc consts  --      0.6988                 1.4846                 3.3261
 IR Inten    --      0.2560                15.9002                 0.4655

                     52                     53                     54
                      A                      A                      A
 Frequencies --   1027.2364              1046.0148              1051.6930
 Red. masses --      1.6840                 1.8574                 2.2396
 Frc consts  --      1.0470                 1.1974                 1.4595
 IR Inten    --      7.7606                 3.0461                 2.6745

                     55                     56                     57
                      A                      A                      A
 Frequencies --   1083.2802              1089.0353              1098.2514
 Red. masses --      2.5736                 1.4937                 1.9923
 Frc consts  --      1.7794                 1.0437                 1.4158
 IR Inten    --      7.0122                 5.0736                 3.8947

                     58                     59                     60
                      A                      A                      A
 Frequencies --   1102.7391              1114.7050              1132.1796
 Red. masses --      1.3389                 1.4057                 1.5892
 Frc consts  --      0.9593                 1.0291                 1.2002
 IR Inten    --      3.6489                23.4580                 3.7626

                     61                     62                     63
                      A                      A                      A
 Frequencies --   1151.0246              1158.5006              1160.6177
 Red. masses --      2.0476                 1.4834                 2.4877
 Frc consts  --      1.5983                 1.1730                 1.9744
 IR Inten    --     48.2255                 0.8387                30.7755

                     64                     65                     66
                      A                      A                      A
 Frequencies --   1198.6577              1206.3212              1208.3825
 Red. masses --      1.9224                 1.1469                 1.7171
 Frc consts  --      1.6274                 0.9834                 1.4772
 IR Inten    --      4.2812                 1.7726                21.5998

                     67                     68                     69
                      A                      A                      A
 Frequencies --   1215.1893              1234.4760              1271.0426
 Red. masses --      1.8194                 1.6060                 1.8328
 Frc consts  --      1.5829                 1.4420                 1.7445
 IR Inten    --     16.8255                 3.3598                12.3514

                     70                     71                     72
                      A                      A                      A
 Frequencies --   1287.4785              1312.7629              1324.4443
 Red. masses --      1.4898                 1.3209                 2.0003
 Frc consts  --      1.4550                 1.3411                 2.0674
 IR Inten    --      9.8755                 3.6476               242.0068

                     73                     74                     75
                      A                      A                      A
 Frequencies --   1337.7999              1365.6092              1373.3628
 Red. masses --      1.8804                 1.5648                 1.5258
 Frc consts  --      1.9829                 1.7193                 1.6955
 IR Inten    --     26.4498                14.2433                13.8265

                     76                     77                     78
                      A                      A                      A
 Frequencies --   1381.4982              1394.9535              1402.3202
 Red. masses --      1.7225                 1.3620                 1.8237
 Frc consts  --      1.9369                 1.5615                 2.1129
 IR Inten    --      9.2365                 4.8554                95.3174

                     79                     80                     81
                      A                      A                      A
 Frequencies --   1420.6731              1429.2131              1432.2884
 Red. masses --      1.3672                 1.7599                 1.2540
 Frc consts  --      1.6258                 2.1180                 1.5157
 IR Inten    --      2.4084                69.9892                 8.7113

                     82                     83                     84
                      A                      A                      A
 Frequencies --   1443.3374              1451.9888              1467.6942
 Red. masses --      1.2804                 1.4108                 2.1536
 Frc consts  --      1.5716                 1.7524                 2.7333
 IR Inten    --     13.7607                 6.4815                41.5589

                     85                     86                     87
                      A                      A                      A
 Frequencies --   1505.1115              1511.2052              1511.6885
 Red. masses --      1.1421                 2.2278                 1.0988
 Frc consts  --      1.5243                 2.9976                 1.4795
 IR Inten    --     17.3381                 9.9709                11.6935

                     88                     89                     90
                      A                      A                      A
 Frequencies --   1517.8445              1521.7071              1524.3684
 Red. masses --      1.2143                 1.0456                 1.1180
 Frc consts  --      1.6483                 1.4266                 1.5306
 IR Inten    --      8.9415                 5.0824                13.9167

                     91                     92                     93
                      A                      A                      A
 Frequencies --   1527.9708              1528.4523              1531.2628
 Red. masses --      1.0728                 1.1342                 1.0779
 Frc consts  --      1.4756                 1.5611                 1.4891
 IR Inten    --      6.4135                 0.9150                33.9472

                     94                     95                     96
                      A                      A                      A
 Frequencies --   1540.8971              1547.7245              1552.5082
 Red. masses --      1.0878                 1.0676                 2.4527
 Frc consts  --      1.5217                 1.5067                 3.4830
 IR Inten    --     12.5272                 9.1311                48.9788

                     97                     98                     99
                      A                      A                      A
 Frequencies --   1649.3235              1670.1862              1773.8394
 Red. masses --      5.5574                 6.0104                 8.4755
 Frc consts  --      8.9071                 9.8783                15.7125
 IR Inten    --     39.0647                66.6702               435.7813

                    100                    101                    102
                      A                      A                      A
 Frequencies --   2941.2182              3034.1033              3040.9837
 Red. masses --      1.0723                 1.0845                 1.0548
 Frc consts  --      5.4654                 5.8822                 5.7469
 IR Inten    --     76.9214                14.7472                22.0386

                    103                    104                    105
                      A                      A                      A
 Frequencies --   3041.9440              3050.6997              3050.7721
 Red. masses --      1.0484                 1.0359                 1.0360
 Frc consts  --      5.7158                 5.6803                 5.6808
 IR Inten    --     23.4024                23.7720                20.8990

                    106                    107                    108
                      A                      A                      A
 Frequencies --   3057.7128              3083.4002              3109.8164
 Red. masses --      1.0838                 1.1000                 1.1017
 Frc consts  --      5.9704                 6.1616                 6.2777
 IR Inten    --     53.5263                 8.1901                56.4741

                    109                    110                    111
                      A                      A                      A
 Frequencies --   3112.2278              3116.2119              3117.4983
 Red. masses --      1.1013                 1.1017                 1.1018
 Frc consts  --      6.2847                 6.3031                 6.3089
 IR Inten    --     25.5241                55.3381                25.4465

                    112                    113                    114
                      A                      A                      A
 Frequencies --   3126.8111              3126.9270              3147.6788
 Red. masses --      1.1020                 1.1015                 1.0549
 Frc consts  --      6.3481                 6.3457                 6.1583
 IR Inten    --     43.8619                13.0903                13.8135

                    115                    116                    117
                      A                      A                      A
 Frequencies --   3151.4720              3161.3900              3182.8939
 Red. masses --      1.0879                 1.0901                 1.0856
 Frc consts  --      6.3659                 6.4191                 6.4799
 IR Inten    --     23.1182                14.2100                 1.4330

                    118                    119                    120
                      A                      A                      A
 Frequencies --   3191.7750              3207.2710              3224.8143
 Red. masses --      1.0904                 1.0965                 1.0909
 Frc consts  --      6.5450                 6.6453                 6.6839
 IR Inten    --     23.1173                22.5872                 4.4219

                    121                    122                    123
                      A                      A                      A
 Frequencies --   3227.7184              3499.3506              3578.0921
 Red. masses --      1.1164                 1.0732                 1.0753
 Frc consts  --      6.8524                 7.7429                 8.1110
 IR Inten    --     10.8146                 0.3942                24.7694

 - Thermochemistry -
 -------------------
 Temperature   298.150 Kelvin.  Pressure   1.00000 Atm.
 Atom     1 has atomic number  6 and mass  12.00000

 Molecular mass:   260.18886 amu.
 Principal axes and moments of inertia in atomic units:
                           1         2         3
     Eigenvalues --  2660.60253********************
           X            0.99994  -0.00061  -0.01082
           Y            0.00038   0.99977  -0.02132
           Z            0.01083   0.02131   0.99971
 This molecule is an asymmetric top.
 Rotational symmetry number  1.
 Warning -- assumption of classical behavior for rotation
           may cause significant error
 Rotational temperatures (Kelvin)      0.03255     0.00771     0.00741
 Rotational constants (GHZ):           0.67832     0.16067     0.15437
 Zero-point vibrational energy     993547.0 (Joules/Mol)
                                  237.46344 (Kcal/Mol)
 Warning -- explicit consideration of  30 degrees of freedom as
           vibrations may cause significant error
 Vibrational temperatures:     11.50    29.89    59.42    62.58    79.22
          (Kelvin)             88.97   112.76   121.95   210.43   226.90
                              265.59   289.01   314.40   341.61   362.56
                              377.45   400.72   416.22   439.59   495.75
                              520.38   527.85   584.27   598.67   639.15
                              681.04   780.78   805.77   870.21   892.30
                              896.77   974.79  1019.69  1036.43  1064.89
                             1096.94  1128.89  1141.38  1159.80  1181.65
                             1235.69  1283.26  1289.42  1293.28  1302.44
                             1321.74  1342.96  1369.30  1391.92  1419.26
                             1471.57  1477.96  1504.98  1513.15  1558.60
                             1566.88  1580.14  1586.60  1603.81  1628.95
                             1656.07  1666.82  1669.87  1724.60  1735.63
                             1738.59  1748.39  1776.14  1828.75  1852.39
                             1888.77  1905.58  1924.80  1964.81  1975.96
                             1987.67  2007.03  2017.63  2044.03  2056.32
                             2060.74  2076.64  2089.09  2111.68  2165.52
                             2174.29  2174.98  2183.84  2189.40  2193.23
                             2198.41  2199.10  2203.15  2217.01  2226.83
                             2233.71  2373.01  2403.03  2552.16  4231.76
                             4365.40  4375.30  4376.68  4389.28  4389.38
                             4399.37  4436.33  4474.33  4477.80  4483.53
                             4485.38  4498.78  4498.95  4528.81  4534.27
                             4548.54  4579.47  4592.25  4614.55  4639.79
                             4643.97  5034.79  5148.08

 Zero-point correction=                           0.378422 (Hartree/Particle)
 Thermal correction to Energy=                    0.398613
 Thermal correction to Enthalpy=                  0.399557
 Thermal correction to Gibbs Free Energy=         0.326262
 Sum of electronic and zero-point Energies=           -808.564541
 Sum of electronic and thermal Energies=              -808.544350
 Sum of electronic and thermal Enthalpies=            -808.543406
 Sum of electronic and thermal Free Energies=         -808.616701

                     E (Thermal)             CV                S
                      KCal/Mol        Cal/Mol-Kelvin    Cal/Mol-Kelvin
 Total                  250.133             75.717            154.262
 Electronic               0.000              0.000              0.000
 Translational            0.889              2.981             42.568
 Rotational               0.889              2.981             34.212
 Vibrational            248.356             69.756             77.482
 Vibration     1          0.593              1.987              8.456
 Vibration     2          0.593              1.986              6.559
 Vibration     3          0.594              1.981              5.196
 Vibration     4          0.595              1.980              5.093
 Vibration     5          0.596              1.976              4.627
 Vibration     6          0.597              1.973              4.398
 Vibration     7          0.600              1.964              3.931
 Vibration     8          0.601              1.960              3.778
 Vibration     9          0.617              1.907              2.720
 Vibration    10          0.621              1.894              2.577
 Vibration    11          0.631              1.861              2.281
 Vibration    12          0.638              1.839              2.125
 Vibration    13          0.646              1.813              1.971
 Vibration    14          0.656              1.783              1.822
 Vibration    15          0.664              1.759              1.717
 Vibration    16          0.670              1.742              1.646
 Vibration    17          0.679              1.713              1.543
 Vibration    18          0.686              1.694              1.478
 Vibration    19          0.696              1.663              1.386
 Vibration    20          0.723              1.586              1.191
 Vibration    21          0.736              1.551              1.115
 Vibration    22          0.740              1.540              1.093
 Vibration    23          0.771              1.457              0.941
 Vibration    24          0.779              1.435              0.905
 Vibration    25          0.804              1.374              0.813
 Vibration    26          0.830              1.309              0.728
 Vibration    27          0.898              1.156              0.560
 Vibration    28          0.916              1.118              0.524
 Vibration    29          0.963              1.022              0.441
 Vibration    30          0.980              0.989              0.416

 Optimization completed.
    -- Stationary point found.
 Normal termination of Gaussian 16 at Mon Dec 14 17:25:16 2020.

 ----------------------------------------------------------------------
 # B3LYP/6-311++G(d,p) empiricaldispersion=gd3bj scf=xqc pop=npa geom=c
 heck
 ----------------------------------------------------------------------

 --------------------------------------
 CID_43507891_JID_9325_Energie_neutraal
 --------------------------------------
 Structure from the checkpoint file:  "JID_9325.chk"
 Charge =  0 Multiplicity = 1

 SCF Done:  E(RB3LYP) =  -809.170162247     A.U. after   15 cycles
 Normal termination of Gaussian 16 at Mon Dec 14 17:36:31 2020.

 ----------------------------------------------------------------------
 # B3LYP/6-311++G(d,p) empiricaldispersion=gd3bj scf=xqc pop=npa geom=c
 heck
 ----------------------------------------------------------------------

 ------------------------------------
 CID_43507891_JID_9325_Energie_kation
 ------------------------------------
 Structure from the checkpoint file:  "JID_9325.chk"
 Charge =  1 Multiplicity = 2

 SCF Done:  E(UB3LYP) =  -808.882565456     A.U. after   25 cycles
 Normal termination of Gaussian 16 at Mon Dec 14 18:03:15 2020.
 Gaussian 16:  ES64L-G16RevA.03 25-Dec-2016

 ----------------------------------------------------------------------
 # B3LYP/6-311++G(d,p) empiricaldispersion=gd3bj scf=xqc pop=npa geom=c
 heck
 ----------------------------------------------------------------------

 -----------------------------------
 CID_43507891_JID_9325_Energie_anion
 -----------------------------------
 Structure from the checkpoint file:  "JID_9325.chk"
 Charge = -1 Multiplicity = 2

                         Standard orientation:
 ---------------------------------------------------------------------
 Center     Atomic      Atomic             Coordinates (Angstroms)
 Number     Number       Type             X           Y           Z
 ---------------------------------------------------------------------
      1          6           0        5.971632    0.325502   -1.030762
      2          6           0        5.210239   -0.968840   -1.332599
      3          6           0        4.173363   -1.329163   -0.265643
      4          7           0        3.123566   -0.317037   -0.186790
      5          6           0        1.958092   -0.678544    0.631055
      6          6           0        2.270557   -1.035866    2.097409
      7          6           0        0.933070    0.439553    0.535841
      8          6           0       -0.222829    0.261451   -0.224155
      9          6           0       -1.182955    1.274829   -0.323723
     10          6           0       -0.953117    2.503691    0.306789
     11          6           0        0.214519    2.697946    1.040422
     12          6           0        1.146658    1.669659    1.170334
     13          7           0       -2.365555    1.112393   -1.076709
     14          6           0       -3.166584    0.004062   -1.282614
     15          8           0       -4.063502    0.052609   -2.114412
     16          6           0       -2.937658   -1.222911   -0.439618
     17          6           0       -2.722769   -1.174833    1.052730
     18          6           0       -4.037941   -1.666617    0.502207
     19          6           0       -5.293831   -0.839158    0.662986
     20          1           0        5.303665    1.194464   -1.041366
     21          1           0        6.751864    0.508550   -1.777379
     22          1           0        6.455961    0.280419   -0.046730
     23          1           0        4.700202   -0.880303   -2.299206
     24          1           0        5.923009   -1.799901   -1.415733
     25          1           0        3.691375   -2.278152   -0.535424
     26          1           0        4.693268   -1.504756    0.695160
     27          1           0        3.509907    0.559386    0.158388
     28          1           0        1.522634   -1.569686    0.159528
     29          1           0        2.757083   -0.200820    2.614888
     30          1           0        1.350389   -1.277450    2.640748
     31          1           0        2.938040   -1.901218    2.157385
     32          1           0       -0.374180   -0.672244   -0.752745
     33          1           0       -1.696423    3.292663    0.230521
     34          1           0        0.388074    3.652987    1.528128
     35          1           0        2.041312    1.830056    1.765412
     36          1           0       -2.687593    1.916985   -1.602829
     37          1           0       -2.439366   -2.018714   -0.989613
     38          1           0       -2.022960   -1.880511    1.491694
     39          1           0       -2.717102   -0.196833    1.525997
     40          1           0       -4.199850   -2.742378    0.535122
     41          1           0       -5.970558   -0.984713   -0.185004
     42          1           0       -5.819838   -1.110555    1.585591
     43          1           0       -5.059651    0.229794    0.713288
 ---------------------------------------------------------------------

 SCF Done:  E(UB3LYP) =  -809.162050375     A.U. after   33 cycles
 SCF Done:  E(UB3LYP) =  -809.162050375     a.u. after    1 cycles

 The electronic state is 2-A.
 Alpha  occ. eigenvalues --  -18.98966 -14.25121 -14.20030 -10.17425 -10.12035
 Alpha  occ. eigenvalues --  -10.10779 -10.09704 -10.08857 -10.08740 -10.08462
 Alpha  occ. eigenvalues --  -10.08354 -10.07988 -10.07731 -10.07654 -10.07641
 Alpha  occ. eigenvalues --  -10.07218 -10.07187 -10.07171 -10.06304  -0.94349
 Alpha  occ. eigenvalues --   -0.84148  -0.81648  -0.77312  -0.75491  -0.69699
 Alpha  occ. eigenvalues --   -0.66430  -0.65019  -0.62818  -0.62319  -0.58369
 Alpha  occ. eigenvalues --   -0.56618  -0.54107  -0.52478  -0.49715  -0.49263
 Alpha  occ. eigenvalues --   -0.48635  -0.45515  -0.43326  -0.41428  -0.39769
 Alpha  occ. eigenvalues --   -0.39585  -0.38371  -0.37823  -0.36417  -0.35002
 Alpha  occ. eigenvalues --   -0.33816  -0.33431  -0.33043  -0.32846  -0.32570
 Alpha  occ. eigenvalues --   -0.31868  -0.30813  -0.30334  -0.30007  -0.29120
 Alpha  occ. eigenvalues --   -0.28849  -0.27693  -0.26862  -0.26371  -0.26085
 Alpha  occ. eigenvalues --   -0.25386  -0.24872  -0.24352  -0.23540  -0.21021
 Alpha  occ. eigenvalues --   -0.20422  -0.19170  -0.16095  -0.15805  -0.13427
 Alpha  occ. eigenvalues --   -0.13029   0.03963
 Alpha virt. eigenvalues --    0.05640   0.06470   0.06549   0.07120   0.07600
 Alpha virt. eigenvalues --    0.07674   0.08026   0.08698   0.08889   0.09267
 Alpha virt. eigenvalues --    0.09963   0.10271   0.10490   0.10905   0.11082

  Beta  occ. eigenvalues --  -18.98876 -14.25153 -14.20016 -10.17323 -10.11943
  Beta  occ. eigenvalues --  -10.10773 -10.09689 -10.08838 -10.08742 -10.08477
  Beta  occ. eigenvalues --  -10.08322 -10.07947 -10.07711 -10.07650 -10.07645
  Beta  occ. eigenvalues --  -10.07211 -10.07162 -10.07082 -10.06277  -0.94185
  Beta  occ. eigenvalues --   -0.84075  -0.81613  -0.77266  -0.75414  -0.69656
  Beta  occ. eigenvalues --   -0.66367  -0.64905  -0.62764  -0.62274  -0.58323
  Beta  occ. eigenvalues --   -0.56473  -0.53992  -0.52417  -0.49654  -0.49198
  Beta  occ. eigenvalues --   -0.48578  -0.45453  -0.43280  -0.41319  -0.39688
  Beta  occ. eigenvalues --   -0.39542  -0.38307  -0.37776  -0.36359  -0.34948
  Beta  occ. eigenvalues --   -0.33775  -0.33312  -0.33007  -0.32755  -0.32521
  Beta  occ. eigenvalues --   -0.31825  -0.30687  -0.30293  -0.29913  -0.29024
  Beta  occ. eigenvalues --   -0.28800  -0.27592  -0.26759  -0.26324  -0.25919
  Beta  occ. eigenvalues --   -0.25355  -0.24839  -0.24309  -0.23492  -0.20987
  Beta  occ. eigenvalues --   -0.20132  -0.19105  -0.15973  -0.15657  -0.13226
  Beta  occ. eigenvalues --   -0.12863
  Beta virt. eigenvalues --    0.05955   0.06514   0.06580   0.07202   0.07476
  Beta virt. eigenvalues --    0.07821   0.07917   0.08267   0.08801   0.09163
  Beta virt. eigenvalues --    0.09441   0.10142   0.10387   0.10674   0.11209

 Mulliken charges and spin densities:
               1          2
     1  C    0.275575  -0.812351
     2  C   -0.211030  -0.092897
     3  C    0.179170  -0.297488
     4  N    0.272022  -0.026477
     5  C   -0.955810   0.020053
     6  C    0.373922  -1.035592
     7  C    0.564663   0.407710
     8  C   -0.045269   0.184176
     9  C   -0.385472   0.033422
    10  C   -0.042428  -0.163835
    11  C    0.071040  -0.287010
    12  C   -0.553114   0.259851
    13  N   -0.158740  -0.010292
    14  C   -0.185563   0.013399
    15  O   -0.307732   0.032488
    16  C   -0.177525   0.204310
    17  C    0.060170  -0.566224
    18  C    0.455219  -0.317163
    19  C   -0.329638  -0.334706
    20  H   -0.038338   0.180113
    21  H   -0.088656   0.229614
    22  H   -0.176751   0.315085
    23  H    0.123619   0.012893
    24  H   -0.045454   0.171430
    25  H   -0.075584   0.209508
    26  H    0.001065   0.139059
    27  H    0.277463  -0.138334
    28  H    0.003036   0.171828
    29  H   -0.031812   0.192316
    30  H    0.024756   0.113416
    31  H   -0.298449   0.450329
    32  H    0.234347  -0.005643
    33  H    0.142484  -0.012349
    34  H   -0.013248   0.175438
    35  H   -0.134790   0.266841
    36  H    0.293963   0.003050
    37  H   -0.068218   0.312192
    38  H   -0.189221   0.352892
    39  H    0.125383   0.036848
    40  H   -0.281000   0.487848
    41  H    0.178024  -0.017035
    42  H    0.044609   0.077407
    43  H    0.093309   0.063879
 Sum of Mulliken charges =  -1.00000   1.00000

 Dipole moment (field-independent basis, Debye):
    X=             -1.9973    Y=              3.9049    Z=             -0.0953  Tot=              4.3871
 Quadrupole moment (field-independent basis, Debye-Ang):
   XX=           -225.5247   YY=           -152.7458   ZZ=           -155.3416
   XY=             -9.0260   XZ=            -11.6896   YZ=              4.1626

 Summary of Natural Population Analysis:

                                       Natural Population
                Natural  -----------------------------------------------
    Atom  No    Charge         Core      Valence    Rydberg      Total
 -----------------------------------------------------------------------
      C    1   -0.28992      0.99967     2.28531    0.00493     3.28992
      C    2   -0.19033      0.99964     2.18323    0.00746     3.19033
      C    3   -0.08815      0.99962     2.07668    0.01184     3.08815
      N    4   -0.33778      0.99973     2.82754    0.01050     3.83778
      C    5   -0.01351      0.99957     2.00107    0.01287     3.01351
      C    6   -0.29276      0.99965     2.28777    0.00534     3.29276
      C    7    0.00237      0.99950     1.98668    0.01145     2.99763
      C    8   -0.10571      0.99947     2.09774    0.00850     3.10571
      C    9    0.09100      0.99947     1.89882    0.01071     2.90900
      C   10   -0.11269      0.99952     2.10404    0.00913     3.11269
      C   11   -0.09825      0.99957     2.08879    0.00988     3.09825
      C   12   -0.09925      0.99951     2.09100    0.00875     3.09925
      N   13   -0.31479      0.99964     2.80613    0.00903     3.81479
      C   14    0.35533      0.99964     1.62105    0.02397     2.64467
      O   15   -0.31224      0.99988     3.30682    0.00555     4.31224
      C   16   -0.15960      0.99954     2.14915    0.01092     3.15960
      C   17   -0.19282      0.99960     2.18347    0.00975     3.19282
      C   18   -0.10038      0.99960     2.09058    0.01019     3.10038
      C   19   -0.28868      0.99965     2.28242    0.00661     3.28868
      H   20    0.09733      0.00000     0.40168    0.00099     0.40267
      H   21    0.09785      0.00000     0.40132    0.00082     0.40215
      H   22    0.09711      0.00000     0.40167    0.00122     0.40289
      H   23    0.09633      0.00000     0.40239    0.00128     0.40367
      H   24    0.09343      0.00000     0.40551    0.00106     0.40657
      H   25    0.09184      0.00000     0.40678    0.00138     0.40816
      H   26    0.07959      0.00000     0.41875    0.00165     0.42041
      H   27    0.17180      0.00000     0.32481    0.00338     0.32820
      H   28    0.09244      0.00000     0.40532    0.00224     0.40756
      H   29    0.09603      0.00000     0.40277    0.00120     0.40397
      H   30    0.10371      0.00000     0.39518    0.00111     0.39629
      H   31    0.10075      0.00000     0.39823    0.00102     0.39925
      H   32    0.10574      0.00000     0.39271    0.00155     0.39426
      H   33    0.09749      0.00000     0.40162    0.00088     0.40251
      H   34    0.09836      0.00000     0.40089    0.00075     0.40164
      H   35    0.09876      0.00000     0.39967    0.00157     0.40124
      H   36    0.19521      0.00000     0.30323    0.00156     0.30479
      H   37    0.11809      0.00000     0.38041    0.00150     0.38191
      H   38    0.10806      0.00000     0.39052    0.00141     0.39194
      H   39    0.10448      0.00000     0.39442    0.00110     0.39552
      H   40    0.10277      0.00000     0.39582    0.00141     0.39723
      H   41    0.10536      0.00000     0.39389    0.00075     0.39464
      H   42    0.09666      0.00000     0.40264    0.00070     0.40334
      H   43    0.09896      0.00000     0.40022    0.00082     0.40104
 =======================================================================
   * Total *   -0.00000     18.99246    51.78877    0.21877    71.00000

 Normal termination of Gaussian 16 at Mon Dec 14 18:37:55 2020.
