 Gaussian 16, Revision A.03,

 -----------------------------------------------------------
 # opt freq B3LYP/6-31G(d) empiricaldispersion=gd3bj scf=xqc
 -----------------------------------------------------------

 -------------------------------
 CID_136654194_JID_4637_neutraal
 -------------------------------
 Symbolic Z-matrix:
 Charge =  0 Multiplicity = 1

 SCF Done:  E(RB3LYP) =  -1028.16386925     A.U. after   15 cycles
 SCF Done:  E(RB3LYP) =  -1028.16921935     A.U. after   12 cycles
 SCF Done:  E(RB3LYP) =  -1028.17022084     A.U. after   12 cycles
 SCF Done:  E(RB3LYP) =  -1028.17052525     A.U. after   12 cycles
 SCF Done:  E(RB3LYP) =  -1028.17101134     A.U. after   13 cycles
 SCF Done:  E(RB3LYP) =  -1028.17139945     A.U. after   13 cycles
 SCF Done:  E(RB3LYP) =  -1028.17193037     A.U. after   13 cycles
 SCF Done:  E(RB3LYP) =  -1028.17247844     A.U. after   12 cycles
 SCF Done:  E(RB3LYP) =  -1028.17269140     A.U. after   12 cycles
 SCF Done:  E(RB3LYP) =  -1028.17278998     A.U. after   11 cycles
 SCF Done:  E(RB3LYP) =  -1028.17281677     A.U. after   11 cycles
 SCF Done:  E(RB3LYP) =  -1028.17281943     A.U. after   10 cycles
 SCF Done:  E(RB3LYP) =  -1028.17282006     A.U. after    8 cycles
 SCF Done:  E(RB3LYP) =  -1028.17282010     A.U. after    7 cycles
 Optimization completed.
    -- Stationary point found.
 Normal termination of Gaussian 16 at Thu Dec 10 10:16:59 2020.

 --------------------------------------------------------------------
 #N Geom=AllCheck Guess=TCheck SCRF=Check GenChk RB3LYP/6-31G(d) Freq
 --------------------------------------------------------------------

 Structure from the checkpoint file:  "JID_4637.chk"
 -------------------------------
 CID_136654194_JID_4637_neutraal
 -------------------------------
 Charge =  0 Multiplicity = 1

 SCF Done:  E(RB3LYP) =  -1028.17282010     A.U. after    1 cycles

  Exact polarizability: 218.415   0.104 122.360  -2.565  10.094  70.577
 Approx polarizability: 306.605   0.833 205.272 -13.814  26.370 116.077

                      1                      2                      3
                      A                      A                      A
 Frequencies --     34.4325                52.6864                67.3789
 Red. masses --      3.9547                 5.5680                 3.5940
 Frc consts  --      0.0028                 0.0091                 0.0096
 IR Inten    --      0.6218                 1.4183                 0.0863

                      4                      5                      6
                      A                      A                      A
 Frequencies --    100.7809               109.2308               196.7081
 Red. masses --      5.7343                 2.8165                 3.3059
 Frc consts  --      0.0343                 0.0198                 0.0754
 IR Inten    --      1.9003                 2.2201                 1.3704

                      7                      8                      9
                      A                      A                      A
 Frequencies --    207.0995               216.9242               217.8834
 Red. masses --      4.5116                 2.3062                 2.9092
 Frc consts  --      0.1140                 0.0639                 0.0814
 IR Inten    --      1.2924                 2.0390                 3.4204

                     10                     11                     12
                      A                      A                      A
 Frequencies --    263.8937               338.2012               373.7315
 Red. masses --      2.7228                 4.3637                 4.7143
 Frc consts  --      0.1117                 0.2941                 0.3880
 IR Inten    --      3.2876                 4.7333                10.2645

                     13                     14                     15
                      A                      A                      A
 Frequencies --    384.3459               405.6441               424.8412
 Red. masses --      4.2919                 1.1315                 3.8593
 Frc consts  --      0.3735                 0.1097                 0.4104
 IR Inten    --     16.7195               112.3796                 8.7053

                     16                     17                     18
                      A                      A                      A
 Frequencies --    430.7926               464.9261               481.9652
 Red. masses --      3.2034                 6.7107                 7.9987
 Frc consts  --      0.3503                 0.8547                 1.0947
 IR Inten    --      9.6473                66.2582                37.0855

                     19                     20                     21
                      A                      A                      A
 Frequencies --    537.7273               544.2392               561.7468
 Red. masses --      3.1214                 3.9976                 6.5056
 Frc consts  --      0.5318                 0.6976                 1.2095
 IR Inten    --     14.8938                 4.6298                13.1571

                     22                     23                     24
                      A                      A                      A
 Frequencies --    654.0922               707.5410               729.2764
 Red. masses --      7.0871                 6.3696                 4.2954
 Frc consts  --      1.7865                 1.8787                 1.3460
 IR Inten    --      0.8899                23.7510                 5.5997

                     25                     26                     27
                      A                      A                      A
 Frequencies --    767.1447               802.9857               823.3055
 Red. masses --      3.2367                 1.5447                 1.3215
 Frc consts  --      1.1223                 0.5868                 0.5278
 IR Inten    --    219.5142               198.7666                10.8449

                     28                     29                     30
                      A                      A                      A
 Frequencies --    827.0193               847.1798               894.5143
 Red. masses --      4.9288                 1.5546                 5.1369
 Frc consts  --      1.9862                 0.6574                 2.4218
 IR Inten    --     14.8424                44.5547                19.8162

                     31                     32                     33
                      A                      A                      A
 Frequencies --    964.3916               971.7982               995.2238
 Red. masses --      1.2873                 1.3110                 1.7518
 Frc consts  --      0.7054                 0.7295                 1.0223
 IR Inten    --      0.2769                 0.7663                 5.7693

                     34                     35                     36
                      A                      A                      A
 Frequencies --   1031.5874              1051.8108              1073.7988
 Red. masses --      2.5812                 1.5218                 1.5300
 Frc consts  --      1.6184                 0.9919                 1.0394
 IR Inten    --      0.1894                10.3043                19.8747

                     37                     38                     39
                      A                      A                      A
 Frequencies --   1093.6399              1124.1439              1139.0460
 Red. masses --      2.0865                 5.3926                 1.3543
 Frc consts  --      1.4703                 4.0151                 1.0353
 IR Inten    --      3.4209               261.3943                 6.4325

                     40                     41                     42
                      A                      A                      A
 Frequencies --   1199.6396              1213.5526              1270.8189
 Red. masses --      1.1503                 1.3286                 2.2489
 Frc consts  --      0.9753                 1.1529                 2.1398
 IR Inten    --    119.9435               142.2568                32.1692

                     43                     44                     45
                      A                      A                      A
 Frequencies --   1278.2412              1307.7445              1327.2740
 Red. masses --      1.3598                 3.3826                 3.6495
 Frc consts  --      1.3091                 3.4084                 3.7880
 IR Inten    --     23.9526               140.7286               165.5747

                     46                     47                     48
                      A                      A                      A
 Frequencies --   1338.5597              1351.5994              1398.5751
 Red. masses --      1.7291                 1.9878                 2.4065
 Frc consts  --      1.8253                 2.1395                 2.7734
 IR Inten    --     28.2574                42.4123                40.5798

                     49                     50                     51
                      A                      A                      A
 Frequencies --   1423.2718              1438.8258              1485.8656
 Red. masses --      1.5875                 1.2269                 1.0927
 Frc consts  --      1.8948                 1.4965                 1.4214
 IR Inten    --     19.9237                 6.3551                 5.0881

                     52                     53                     54
                      A                      A                      A
 Frequencies --   1487.2700              1519.7909              1536.9640
 Red. masses --      3.0007                 1.0368                 1.0479
 Frc consts  --      3.9107                 1.4110                 1.4585
 IR Inten    --    127.1385                 3.5101                 7.3064

                     55                     56                     57
                      A                      A                      A
 Frequencies --   1568.2610              1636.6867              1657.0715
 Red. masses --      2.8636                 5.8605                 5.7264
 Frc consts  --      4.1495                 9.2495                 9.2644
 IR Inten    --     52.7031                92.2730               610.5421

                     58                     59                     60
                      A                      A                      A
 Frequencies --   1685.3208              3071.2182              3084.9468
 Red. masses --      6.4923                 1.0368                 1.0600
 Frc consts  --     10.8646                 5.7622                 5.9437
 IR Inten    --     27.3680                21.9111                 3.2381

                     61                     62                     63
                      A                      A                      A
 Frequencies --   3087.7193              3136.9231              3142.3516
 Red. masses --      1.0870                 1.1062                 1.0999
 Frc consts  --      6.1060                 6.4134                 6.3992
 IR Inten    --      9.8695                 1.0330                14.9210

                     64                     65                     66
                      A                      A                      A
 Frequencies --   3165.0057              3176.6876              3194.3238
 Red. masses --      1.1045                 1.0900                 1.0895
 Frc consts  --      6.5190                 6.4807                 6.5498
 IR Inten    --     12.2478                19.0440                 4.5767

                     67                     68                     69
                      A                      A                      A
 Frequencies --   3226.2829              3227.5958              3745.3151
 Red. masses --      1.0926                 1.0934                 1.0659
 Frc consts  --      6.7005                 6.7108                 8.8097
 IR Inten    --      3.3147                 3.7892                74.2756

 - Thermochemistry -
 -------------------
 Temperature   298.150 Kelvin.  Pressure   1.00000 Atm.
 Atom     1 has atomic number  6 and mass  12.00000

 Molecular mass:   213.04597 amu.
 Principal axes and moments of inertia in atomic units:
                           1         2         3
     Eigenvalues --  1090.374337279.810537882.34992
           X            0.99989  -0.01291   0.00752
           Y            0.01291   0.99992   0.00044
           Z           -0.00752  -0.00034   0.99997
 This molecule is an asymmetric top.
 Rotational symmetry number  1.
 Warning -- assumption of classical behavior for rotation
           may cause significant error
 Rotational temperatures (Kelvin)      0.07944     0.01190     0.01099
 Rotational constants (GHZ):           1.65516     0.24791     0.22896
 Zero-point vibrational energy     510191.6 (Joules/Mol)
                                  121.93873 (Kcal/Mol)
 Warning -- explicit consideration of  21 degrees of freedom as
           vibrations may cause significant error
 Vibrational temperatures:     49.54    75.80    96.94   145.00   157.16
          (Kelvin)            283.02   297.97   312.11   313.49   379.68
                              486.60   537.72   552.99   583.63   611.25
                              619.81   668.92   693.44   773.67   783.04
                              808.23   941.09  1017.99  1049.27  1103.75
                             1155.32  1184.55  1189.90  1218.90  1287.01
                             1387.54  1398.20  1431.91  1484.22  1513.32
                             1544.96  1573.50  1617.39  1638.83  1726.01
                             1746.03  1828.43  1839.10  1881.55  1909.65
                             1925.89  1944.65  2012.24  2047.77  2070.15
                             2137.83  2139.85  2186.64  2211.35  2256.38
                             2354.83  2384.16  2424.80  4418.80  4438.55
                             4442.54  4513.33  4521.14  4553.74  4570.54
                             4595.92  4641.90  4643.79  5388.67

 Zero-point correction=                           0.194322 (Hartree/Particle)
 Thermal correction to Energy=                    0.207922
 Thermal correction to Enthalpy=                  0.208866
 Thermal correction to Gibbs Free Energy=         0.152921
 Sum of electronic and zero-point Energies=          -1027.978498
 Sum of electronic and thermal Energies=             -1027.964898
 Sum of electronic and thermal Enthalpies=           -1027.963954
 Sum of electronic and thermal Free Energies=        -1028.019899

                     E (Thermal)             CV                S
                      KCal/Mol        Cal/Mol-Kelvin    Cal/Mol-Kelvin
 Total                  130.473             50.954            117.746
 Electronic               0.000              0.000              0.000
 Translational            0.889              2.981             41.972
 Rotational               0.889              2.981             32.503
 Vibrational            128.695             44.992             43.270
 Vibration     1          0.594              1.983              5.556
 Vibration     2          0.596              1.977              4.714
 Vibration     3          0.598              1.970              4.229
 Vibration     4          0.604              1.948              3.439
 Vibration     5          0.606              1.942              3.283
 Vibration     6          0.636              1.844              2.164
 Vibration     7          0.641              1.830              2.069
 Vibration     8          0.646              1.815              1.985
 Vibration     9          0.646              1.814              1.977
 Vibration    10          0.670              1.739              1.636
 Vibration    11          0.719              1.599              1.221
 Vibration    12          0.745              1.526              1.064
 Vibration    13          0.753              1.504              1.022
 Vibration    14          0.771              1.458              0.942
 Vibration    15          0.787              1.416              0.876
 Vibration    16          0.792              1.403              0.856
 Vibration    17          0.822              1.328              0.752
 Vibration    18          0.838              1.290              0.705
 Vibration    19          0.893              1.167              0.570
 Vibration    20          0.899              1.152              0.556
 Vibration    21          0.917              1.114              0.520

 Optimization completed.
    -- Stationary point found.
 Normal termination of Gaussian 16 at Thu Dec 10 10:23:09 2020.

 ----------------------------------------------------------------------
 # B3LYP/6-311++G(d,p) empiricaldispersion=gd3bj scf=xqc pop=npa geom=c
 heck
 ----------------------------------------------------------------------

 ---------------------------------------
 CID_136654194_JID_4637_Energie_neutraal
 ---------------------------------------
 Structure from the checkpoint file:  "JID_4637.chk"
 Charge =  0 Multiplicity = 1

 SCF Done:  E(RB3LYP) =  -1028.38297615     A.U. after   16 cycles
 Normal termination of Gaussian 16 at Thu Dec 10 10:26:16 2020.

 ----------------------------------------------------------------------
 # B3LYP/6-311++G(d,p) empiricaldispersion=gd3bj scf=xqc pop=npa geom=c
 heck
 ----------------------------------------------------------------------

 -------------------------------------
 CID_136654194_JID_4637_Energie_kation
 -------------------------------------
 Structure from the checkpoint file:  "JID_4637.chk"
 Charge =  1 Multiplicity = 2

 SCF Done:  E(UB3LYP) =  -1028.06414521     A.U. after   26 cycles
 Normal termination of Gaussian 16 at Thu Dec 10 10:34:00 2020.
 Gaussian 16:  ES64L-G16RevA.03 25-Dec-2016

 ----------------------------------------------------------------------
 # B3LYP/6-311++G(d,p) empiricaldispersion=gd3bj scf=xqc pop=npa geom=c
 heck
 ----------------------------------------------------------------------

 ------------------------------------
 CID_136654194_JID_4637_Energie_anion
 ------------------------------------
 Structure from the checkpoint file:  "JID_4637.chk"
 Charge = -1 Multiplicity = 2

                         Standard orientation:
 ---------------------------------------------------------------------
 Center     Atomic      Atomic             Coordinates (Angstroms)
 Number     Number       Type             X           Y           Z
 ---------------------------------------------------------------------
      1          6           0       -3.408255    2.119043   -0.496382
      2          6           0       -3.407133    0.673378   -0.978694
      3         16           0       -2.629345   -0.459905    0.197683
      4          8           0       -3.182326   -0.213933    1.533994
      5          8           0       -2.674186   -1.815328   -0.376896
      6          7           0       -1.031734    0.165501    0.193846
      7          6           0       -0.106888   -0.704272   -0.024463
      8          6           0        1.304603   -0.356497   -0.012113
      9          6           0        1.742373    0.945423    0.288434
     10          6           0        3.093356    1.250765    0.289476
     11          6           0        4.036001    0.253746   -0.010687
     12          6           0        3.616303   -1.048489   -0.309911
     13          6           0        2.261442   -1.343371   -0.307096
     14          8           0        5.372567    0.495560   -0.023974
     15          1           0       -3.917825    2.200315    0.467006
     16          1           0       -3.930863    2.747927   -1.224610
     17          1           0       -2.387190    2.490488   -0.380540
     18          1           0       -4.419700    0.273230   -1.095173
     19          1           0       -2.873427    0.537405   -1.923677
     20          1           0       -0.357340   -1.750038   -0.238387
     21          1           0        1.002742    1.703227    0.523688
     22          1           0        3.428434    2.258695    0.525174
     23          1           0        4.362637   -1.802008   -0.536263
     24          1           0        1.931090   -2.353011   -0.536686
     25          1           0        5.533847    1.424998    0.203260
 ---------------------------------------------------------------------

 SCF Done:  E(UB3LYP) =  -1028.40739983     A.U. after   22 cycles

 The electronic state is 2-A.
 Alpha  occ. eigenvalues --  -88.90692 -19.03630 -18.97401 -18.97091 -14.14476
 Alpha  occ. eigenvalues --  -10.09094 -10.09042 -10.06624 -10.04350 -10.03873
 Alpha  occ. eigenvalues --  -10.03767 -10.03673 -10.02741 -10.02505  -7.96959
 Alpha  occ. eigenvalues --   -5.93249  -5.93143  -5.93067  -0.96865  -0.94894
 Alpha  occ. eigenvalues --   -0.86236  -0.76210  -0.71499  -0.68182  -0.61809
 Alpha  occ. eigenvalues --   -0.61562  -0.56352  -0.51852  -0.49015  -0.47213
 Alpha  occ. eigenvalues --   -0.41998  -0.41301  -0.37835  -0.36542  -0.35746
 Alpha  occ. eigenvalues --   -0.34244  -0.32660  -0.32067  -0.30212  -0.29459
 Alpha  occ. eigenvalues --   -0.29424  -0.29269  -0.27821  -0.26886  -0.25856
 Alpha  occ. eigenvalues --   -0.23762  -0.23152  -0.21531  -0.20459  -0.19059
 Alpha  occ. eigenvalues --   -0.17755  -0.17564  -0.15844  -0.12980  -0.11947
 Alpha  occ. eigenvalues --   -0.09515   0.03625
 Alpha virt. eigenvalues --    0.07392   0.07903   0.09890   0.10309   0.10804
 Alpha virt. eigenvalues --    0.11426   0.11484   0.12660   0.12878   0.14677
 Alpha virt. eigenvalues --    0.14924   0.15550   0.16002   0.16406   0.16749

  Beta  occ. eigenvalues --  -88.90691 -19.03529 -18.97403 -18.97046 -14.14054
  Beta  occ. eigenvalues --  -10.09037 -10.08707 -10.06623 -10.04483 -10.03781
  Beta  occ. eigenvalues --  -10.03584 -10.03366 -10.02527 -10.02431  -7.96957
  Beta  occ. eigenvalues --   -5.93249  -5.93136  -5.93065  -0.96771  -0.94630
  Beta  occ. eigenvalues --   -0.86171  -0.75357  -0.71185  -0.68113  -0.61581
  Beta  occ. eigenvalues --   -0.61069  -0.56216  -0.51302  -0.48688  -0.47021
  Beta  occ. eigenvalues --   -0.41816  -0.40894  -0.37522  -0.36428  -0.35629
  Beta  occ. eigenvalues --   -0.34096  -0.32433  -0.31981  -0.30085  -0.29351
  Beta  occ. eigenvalues --   -0.29152  -0.28445  -0.27757  -0.26752  -0.25796
  Beta  occ. eigenvalues --   -0.23396  -0.21756  -0.21330  -0.20318  -0.18406
  Beta  occ. eigenvalues --   -0.17448  -0.17105  -0.14992  -0.12286  -0.11532
  Beta  occ. eigenvalues --   -0.08026
  Beta virt. eigenvalues --    0.07385   0.07862   0.09864   0.10276   0.10500
  Beta virt. eigenvalues --    0.10773   0.11441   0.11920   0.12656   0.12839
  Beta virt. eigenvalues --    0.14741   0.15316   0.15638   0.16112   0.16686

 Mulliken charges and spin densities:
               1          2
     1  C   -0.499378  -0.011130
     2  C   -0.443257   0.015657
     3  S    0.478199   0.022186
     4  O   -0.215599  -0.012860
     5  O   -0.208904   0.005932
     6  N   -0.130508   0.214024
     7  C   -0.112939   0.343733
     8  C    0.755825  -0.080821
     9  C   -0.291947   0.337726
    10  C    0.066211  -0.121097
    11  C   -0.875064   0.243236
    12  C    0.094537  -0.056495
    13  C   -1.102795   0.102697
    14  O   -0.263391   0.020162
    15  H    0.164836  -0.000351
    16  H    0.103402  -0.000179
    17  H    0.157776   0.009009
    18  H    0.179215   0.011603
    19  H    0.202533  -0.002743
    20  H    0.183496  -0.023095
    21  H    0.174302  -0.018324
    22  H    0.094042   0.006718
    23  H    0.138721   0.002888
    24  H    0.107322  -0.007551
    25  H    0.243368  -0.000924
 Sum of Mulliken charges =  -1.00000   1.00000

 Dipole moment (field-independent basis, Debye):
    X=              0.6198    Y=              3.8989    Z=             -2.5552  Tot=              4.7026
 Quadrupole moment (field-independent basis, Debye-Ang):
   XX=           -135.6806   YY=            -97.7024   ZZ=           -103.0852
   XY=             -2.6473   XZ=             11.5768   YZ=              0.0879

 Summary of Natural Population Analysis:

                                       Natural Population
                Natural  -----------------------------------------------
    Atom  No    Charge         Core      Valence    Rydberg      Total
 -----------------------------------------------------------------------
      C    1   -0.29667      0.99966     2.29139    0.00562     3.29667
      C    2   -0.28847      0.99960     2.27753    0.01134     3.28847
      S    3    1.07763      4.99933     1.82315    0.09989     6.92237
      O    4   -0.47330      0.99990     3.46707    0.00633     4.47330
      O    5   -0.48263      0.99991     3.47681    0.00591     4.48263
      N    6   -0.31376      0.99966     2.80385    0.01025     3.81376
      C    7    0.15991      0.99960     1.82496    0.01553     2.84009
      C    8   -0.07522      0.99950     2.06587    0.00984     3.07522
      C    9   -0.01038      0.99954     2.00170    0.00913     3.01038
      C   10   -0.18189      0.99954     2.17340    0.00895     3.18189
      C   11    0.22201      0.99941     1.76662    0.01196     2.77799
      C   12   -0.16656      0.99954     2.15739    0.00963     3.16656
      C   13   -0.03929      0.99955     2.03147    0.00827     3.03929
      O   14   -0.33800      0.99988     3.33199    0.00614     4.33800
      H   15    0.10576      0.00000     0.39299    0.00125     0.39424
      H   16    0.09194      0.00000     0.40694    0.00112     0.40806
      H   17    0.11280      0.00000     0.38604    0.00116     0.38720
      H   18    0.10387      0.00000     0.39466    0.00147     0.39613
      H   19    0.11072      0.00000     0.38803    0.00125     0.38928
      H   20    0.07736      0.00000     0.42033    0.00231     0.42264
      H   21    0.10102      0.00000     0.39704    0.00194     0.39898
      H   22    0.08821      0.00000     0.41049    0.00130     0.41179
      H   23    0.09722      0.00000     0.40165    0.00113     0.40278
      H   24    0.09182      0.00000     0.40706    0.00112     0.40818
      H   25    0.22589      0.00000     0.27164    0.00247     0.27411
 =======================================================================
   * Total *   -0.00000     17.99461    37.77009    0.23530    56.00000

 Normal termination of Gaussian 16 at Thu Dec 10 10:40:37 2020.
