 Gaussian 16, Revision A.03,

 -----------------------------------------------------------
 # opt freq B3LYP/6-31G(d) empiricaldispersion=gd3bj scf=xqc
 -----------------------------------------------------------

 -------------------------------
 CID_105808251_JID_9677_neutraal
 -------------------------------
 Symbolic Z-matrix:
 Charge =  0 Multiplicity = 1

 SCF Done:  E(RB3LYP) =  -844.888095644     A.U. after   15 cycles
 SCF Done:  E(RB3LYP) =  -844.890298961     A.U. after   13 cycles
 SCF Done:  E(RB3LYP) =  -844.887810595     A.U. after   13 cycles
 SCF Done:  E(RB3LYP) =  -844.890048776     A.U. after   13 cycles
 SCF Done:  E(RB3LYP) =  -844.892432141     A.U. after   10 cycles
 SCF Done:  E(RB3LYP) =  -844.893108785     A.U. after   12 cycles
 SCF Done:  E(RB3LYP) =  -844.893391586     A.U. after   12 cycles
 SCF Done:  E(RB3LYP) =  -844.893580734     A.U. after   11 cycles
 SCF Done:  E(RB3LYP) =  -844.893672024     A.U. after   11 cycles
 SCF Done:  E(RB3LYP) =  -844.893680790     A.U. after    9 cycles
 SCF Done:  E(RB3LYP) =  -844.893750394     A.U. after   10 cycles
 SCF Done:  E(RB3LYP) =  -844.893755031     A.U. after    9 cycles
 SCF Done:  E(RB3LYP) =  -844.893755565     A.U. after    7 cycles
 SCF Done:  E(RB3LYP) =  -844.893755833     A.U. after    7 cycles
 SCF Done:  E(RB3LYP) =  -844.893755907     A.U. after    7 cycles
 Optimization completed.
    -- Stationary point found.
 Normal termination of Gaussian 16 at Mon Dec 14 13:44:42 2020.

 --------------------------------------------------------------------
 #N Geom=AllCheck Guess=TCheck SCRF=Check GenChk RB3LYP/6-31G(d) Freq
 --------------------------------------------------------------------

 Structure from the checkpoint file:  "JID_9677.chk"
 -------------------------------
 CID_105808251_JID_9677_neutraal
 -------------------------------
 Charge =  0 Multiplicity = 1

 SCF Done:  E(RB3LYP) =  -844.893755907     A.U. after    1 cycles

  Exact polarizability: 189.901  19.478 188.135 -22.196   8.258 137.983
 Approx polarizability: 248.778  27.381 291.150 -46.665  22.014 239.926

                      1                      2                      3
                      A                      A                      A
 Frequencies --     23.4300                36.6620                41.1279
 Red. masses --      4.2318                 1.1309                 3.0280
 Frc consts  --      0.0014                 0.0009                 0.0030
 IR Inten    --      0.1325                 0.2354                 0.4793

                      4                      5                      6
                      A                      A                      A
 Frequencies --     50.7297                78.7036                92.3955
 Red. masses --      3.8516                 4.8839                 4.3664
 Frc consts  --      0.0058                 0.0178                 0.0220
 IR Inten    --      0.0677                 2.0463                 0.9389

                      7                      8                      9
                      A                      A                      A
 Frequencies --    125.9225               153.5484               169.3626
 Red. masses --      4.3136                 3.8929                 4.4892
 Frc consts  --      0.0403                 0.0541                 0.0759
 IR Inten    --      4.6464                 1.4624                 0.9457

                     10                     11                     12
                      A                      A                      A
 Frequencies --    189.2595               208.9454               241.5235
 Red. masses --      2.8439                 3.7910                 1.2922
 Frc consts  --      0.0600                 0.0975                 0.0444
 IR Inten    --      1.0481                 0.7852                 0.6455

                     13                     14                     15
                      A                      A                      A
 Frequencies --    246.3938               283.6517               290.1724
 Red. masses --      1.5245                 3.1966                 3.0936
 Frc consts  --      0.0545                 0.1515                 0.1535
 IR Inten    --      0.0947                 1.4506                 3.2757

                     16                     17                     18
                      A                      A                      A
 Frequencies --    310.1834               331.8876               358.3210
 Red. masses --      3.6716                 2.7682                 3.0341
 Frc consts  --      0.2081                 0.1796                 0.2295
 IR Inten    --      5.3239                16.9264                 9.3685

                     19                     20                     21
                      A                      A                      A
 Frequencies --    372.0157               379.7587               399.7795
 Red. masses --      1.5604                 2.3394                 3.1043
 Frc consts  --      0.1272                 0.1988                 0.2923
 IR Inten    --    100.2172                16.0558                12.0416

                     22                     23                     24
                      A                      A                      A
 Frequencies --    428.2830               452.8264               475.8833
 Red. masses --      2.8534                 3.3072                 4.3684
 Frc consts  --      0.3084                 0.3996                 0.5829
 IR Inten    --      4.2722                 4.3063                 4.6614

                     25                     26                     27
                      A                      A                      A
 Frequencies --    484.6629               502.8188               532.8126
 Red. masses --      3.0607                 3.1874                 2.4248
 Frc consts  --      0.4236                 0.4748                 0.4056
 IR Inten    --      0.4610                12.8508                31.8755

                     28                     29                     30
                      A                      A                      A
 Frequencies --    547.3197               580.7426               596.7534
 Red. masses --      2.4607                 1.3386                 3.4602
 Frc consts  --      0.4343                 0.2660                 0.7260
 IR Inten    --      3.6466               149.1865                22.0512

                     31                     32                     33
                      A                      A                      A
 Frequencies --    619.0100               650.5108               696.9322
 Red. masses --      3.5649                 2.2509                 3.6463
 Frc consts  --      0.8048                 0.5612                 1.0435
 IR Inten    --     23.6368                47.6945                20.0898

                     34                     35                     36
                      A                      A                      A
 Frequencies --    718.8258               770.0111               788.6294
 Red. masses --      5.0954                 2.3144                 4.7552
 Frc consts  --      1.5512                 0.8085                 1.7425
 IR Inten    --      4.2924                46.0378                14.9968

                     37                     38                     39
                      A                      A                      A
 Frequencies --    820.1129               823.2298               834.5019
 Red. masses --      2.4298                 1.4729                 2.0135
 Frc consts  --      0.9629                 0.5881                 0.8261
 IR Inten    --     29.9461                17.7437                17.7634

                     40                     41                     42
                      A                      A                      A
 Frequencies --    837.0832               873.4553               914.4167
 Red. masses --      2.2668                 2.9068                 2.7667
 Frc consts  --      0.9358                 1.3066                 1.3630
 IR Inten    --     19.1911                 8.4727                 7.3603

                     43                     44                     45
                      A                      A                      A
 Frequencies --    915.5421               925.3049               941.4566
 Red. masses --      1.3698                 2.1250                 2.4461
 Frc consts  --      0.6765                 1.0719                 1.2774
 IR Inten    --      4.1353                 1.1341                 6.3814

                     46                     47                     48
                      A                      A                      A
 Frequencies --    950.3641               979.0908              1010.6165
 Red. masses --      1.3027                 1.7901                 1.3710
 Frc consts  --      0.6932                 1.0110                 0.8250
 IR Inten    --      0.7247                 4.1511                 6.6059

                     49                     50                     51
                      A                      A                      A
 Frequencies --   1027.8817              1031.6192              1055.4344
 Red. masses --      1.6102                 1.9565                 1.8096
 Frc consts  --      1.0024                 1.2268                 1.1877
 IR Inten    --      9.9414                15.8537                 9.2583

                     52                     53                     54
                      A                      A                      A
 Frequencies --   1062.2325              1076.8567              1082.2099
 Red. masses --      1.9150                 1.4800                 2.6034
 Frc consts  --      1.2731                 1.0111                 1.7965
 IR Inten    --      2.9274                 3.3627                 4.1450

                     55                     56                     57
                      A                      A                      A
 Frequencies --   1091.9505              1131.8972              1145.7597
 Red. masses --      1.8665                 3.6320                 1.9555
 Frc consts  --      1.3112                 2.7417                 1.5125
 IR Inten    --      3.6980                37.3896                19.5959

                     58                     59                     60
                      A                      A                      A
 Frequencies --   1165.9945              1185.6466              1194.8809
 Red. masses --      2.4622                 3.0318                 1.2089
 Frc consts  --      1.9723                 2.5111                 1.0169
 IR Inten    --      7.5502                81.5942                15.2027

                     61                     62                     63
                      A                      A                      A
 Frequencies --   1198.1542              1218.5061              1249.1154
 Red. masses --      2.3840                 1.3168                 2.7421
 Frc consts  --      2.0164                 1.1519                 2.5208
 IR Inten    --     28.5381                 2.1646                30.7713

                     64                     65                     66
                      A                      A                      A
 Frequencies --   1281.1827              1301.4363              1306.5332
 Red. masses --      1.3242                 1.5234                 2.5727
 Frc consts  --      1.2807                 1.5203                 2.5875
 IR Inten    --     12.3158                61.0443                26.1954

                     67                     68                     69
                      A                      A                      A
 Frequencies --   1314.3385              1330.8115              1332.6406
 Red. masses --      1.2939                 2.0241                 1.3919
 Frc consts  --      1.3170                 2.1121                 1.4564
 IR Inten    --      9.8443               108.9419                24.1861

                     70                     71                     72
                      A                      A                      A
 Frequencies --   1348.2380              1354.0700              1367.2431
 Red. masses --      1.6742                 1.4362                 1.4156
 Frc consts  --      1.7931                 1.5515                 1.5592
 IR Inten    --     52.2645                23.6358                 2.5848

                     73                     74                     75
                      A                      A                      A
 Frequencies --   1371.4941              1379.9846              1401.6388
 Red. masses --      1.2821                 3.9205                 1.2291
 Frc consts  --      1.4209                 4.3989                 1.4227
 IR Inten    --      3.3742                32.7225                 6.1625

                     76                     77                     78
                      A                      A                      A
 Frequencies --   1412.9574              1425.1244              1441.6145
 Red. masses --      1.4613                 1.5146                 1.2718
 Frc consts  --      1.7188                 1.8124                 1.5573
 IR Inten    --      1.4326                 7.7398                11.7633

                     79                     80                     81
                      A                      A                      A
 Frequencies --   1444.7895              1446.2909              1471.6671
 Red. masses --      1.2564                 1.3060                 3.2147
 Frc consts  --      1.5452                 1.6096                 4.1022
 IR Inten    --      3.6007                22.6341                76.4719

                     82                     83                     84
                      A                      A                      A
 Frequencies --   1484.6982              1503.2210              1515.8450
 Red. masses --      1.3197                 1.0923                 1.0449
 Frc consts  --      1.7140                 1.4542                 1.4146
 IR Inten    --     30.1457                 3.5617                 6.0931

                     85                     86                     87
                      A                      A                      A
 Frequencies --   1518.2197              1522.4284              1526.0001
 Red. masses --      1.0975                 1.0819                 1.0500
 Frc consts  --      1.4905                 1.4774                 1.4406
 IR Inten    --      9.5873                 0.1584                 2.6306

                     88                     89                     90
                      A                      A                      A
 Frequencies --   1530.0680              1531.3819              1534.2623
 Red. masses --      1.0991                 1.1273                 1.1062
 Frc consts  --      1.5161                 1.5576                 1.5342
 IR Inten    --     17.6303                 5.4031                 1.6111

                     91                     92                     93
                      A                      A                      A
 Frequencies --   1553.7283              1627.8690              1675.3885
 Red. masses --      2.8523                 5.0562                 1.8453
 Frc consts  --      4.0569                 7.8943                 3.0518
 IR Inten    --     87.8179                14.5375                32.5962

                     94                     95                     96
                      A                      A                      A
 Frequencies --   1690.7641              1769.2931              2963.8998
 Red. masses --      2.1810                 8.2962                 1.0726
 Frc consts  --      3.6734                15.3012                 5.5513
 IR Inten    --    103.8217               266.0073                21.9726

                     97                     98                     99
                      A                      A                      A
 Frequencies --   2971.0159              2995.2106              3038.8774
 Red. masses --      1.0729                 1.0818                 1.0380
 Frc consts  --      5.5797                 5.7182                 5.6480
 IR Inten    --     88.4142                42.5841                47.1512

                    100                    101                    102
                      A                      A                      A
 Frequencies --   3042.6173              3057.2098              3059.2295
 Red. masses --      1.0590                 1.0371                 1.0603
 Frc consts  --      5.7763                 5.7109                 5.8468
 IR Inten    --     18.9325                20.1425                19.3028

                    103                    104                    105
                      A                      A                      A
 Frequencies --   3087.8498              3089.0567              3102.7160
 Red. masses --      1.1010                 1.1023                 1.0876
 Frc consts  --      6.1850                 6.1971                 6.1690
 IR Inten    --     25.4067                46.0751                 0.1131

                    106                    107                    108
                      A                      A                      A
 Frequencies --   3106.4702              3108.8894              3113.4928
 Red. masses --      1.0981                 1.0928                 1.0953
 Frc consts  --      6.2436                 6.2231                 6.2560
 IR Inten    --     31.7559                35.8371                35.0206

                    109                    110                    111
                      A                      A                      A
 Frequencies --   3124.5106              3127.4973              3130.4374
 Red. masses --      1.1000                 1.1002                 1.1017
 Frc consts  --      6.3272                 6.3402                 6.3611
 IR Inten    --     15.6852                30.6405                39.2023

                    112                    113                    114
                      A                      A                      A
 Frequencies --   3169.1103              3186.8917              3199.8504
 Red. masses --      1.0864                 1.0944                 1.0901
 Frc consts  --      6.4286                 6.5489                 6.5763
 IR Inten    --     13.3644                30.0089                 3.9424

                    115                    116                    117
                      A                      A                      A
 Frequencies --   3543.6481              3563.4506              3676.3812
 Red. masses --      1.0741                 1.0471                 1.1004
 Frc consts  --      7.9468                 7.8343                 8.7626
 IR Inten    --     11.2658                39.0696                38.7272

 - Thermochemistry -
 -------------------
 Temperature   298.150 Kelvin.  Pressure   1.00000 Atm.
 Atom     1 has atomic number  6 and mass  12.00000

 Molecular mass:   262.16813 amu.
 Principal axes and moments of inertia in atomic units:
                           1         2         3
     Eigenvalues --  3264.750887050.312588639.77076
           X            0.99963   0.02718  -0.00078
           Y           -0.02717   0.99954   0.01354
           Z            0.00115  -0.01352   0.99991
 This molecule is an asymmetric top.
 Rotational symmetry number  1.
 Warning -- assumption of classical behavior for rotation
           may cause significant error
 Rotational temperatures (Kelvin)      0.02653     0.01229     0.01003
 Rotational constants (GHZ):           0.55280     0.25598     0.20889
 Zero-point vibrational energy     939945.7 (Joules/Mol)
                                  224.65241 (Kcal/Mol)
 Warning -- explicit consideration of  31 degrees of freedom as
           vibrations may cause significant error
 Vibrational temperatures:     33.71    52.75    59.17    72.99   113.24
          (Kelvin)            132.94   181.17   220.92   243.68   272.30
                              300.63   347.50   354.51   408.11   417.49
                              446.28   477.51   515.54   535.25   546.39
                              575.19   616.20   651.52   684.69   697.32
                              723.44   766.60   787.47   835.56   858.60
                              890.62   935.94  1002.73  1034.23  1107.87
                             1134.66  1179.96  1184.44  1200.66  1204.38
                             1256.71  1315.64  1317.26  1331.31  1354.55
                             1367.36  1408.69  1454.05  1478.89  1484.27
                             1518.53  1528.32  1549.36  1557.06  1571.07
                             1628.55  1648.49  1677.61  1705.88  1719.17
                             1723.88  1753.16  1797.20  1843.34  1872.48
                             1879.81  1891.04  1914.74  1917.37  1939.81
                             1948.20  1967.16  1973.27  1985.49  2016.65
                             2032.93  2050.44  2074.16  2078.73  2080.89
                             2117.40  2136.15  2162.80  2180.96  2184.38
                             2190.43  2195.57  2201.43  2203.32  2207.46
                             2235.47  2342.14  2410.51  2432.63  2545.62
                             4264.39  4274.63  4309.44  4372.27  4377.65
                             4398.64  4401.55  4442.73  4444.46  4464.12
                             4469.52  4473.00  4479.62  4495.47  4499.77
                             4504.00  4559.64  4585.23  4603.87  5098.52
                             5127.01  5289.49

 Zero-point correction=                           0.358006 (Hartree/Particle)
 Thermal correction to Energy=                    0.376701
 Thermal correction to Enthalpy=                  0.377645
 Thermal correction to Gibbs Free Energy=         0.310208
 Sum of electronic and zero-point Energies=           -844.535750
 Sum of electronic and thermal Energies=              -844.517055
 Sum of electronic and thermal Enthalpies=            -844.516110
 Sum of electronic and thermal Free Energies=         -844.583548

                     E (Thermal)             CV                S
                      KCal/Mol        Cal/Mol-Kelvin    Cal/Mol-Kelvin
 Total                  236.384             72.345            141.934
 Electronic               0.000              0.000              0.000
 Translational            0.889              2.981             42.591
 Rotational               0.889              2.981             33.652
 Vibrational            234.606             66.383             65.691
 Vibration     1          0.593              1.985              6.320
 Vibration     2          0.594              1.982              5.432
 Vibration     3          0.594              1.981              5.204
 Vibration     4          0.595              1.977              4.789
 Vibration     5          0.600              1.963              3.923
 Vibration     6          0.602              1.955              3.609
 Vibration     7          0.611              1.927              3.007
 Vibration     8          0.619              1.899              2.628
 Vibration     9          0.625              1.880              2.443
 Vibration    10          0.633              1.855              2.235
 Vibration    11          0.642              1.827              2.053
 Vibration    12          0.658              1.777              1.792
 Vibration    13          0.661              1.769              1.756
 Vibration    14          0.682              1.704              1.512
 Vibration    15          0.686              1.692              1.473
 Vibration    16          0.699              1.654              1.361
 Vibration    17          0.714              1.612              1.251
 Vibration    18          0.733              1.558              1.129
 Vibration    19          0.744              1.530              1.071
 Vibration    20          0.750              1.513              1.040
 Vibration    21          0.766              1.471              0.963
 Vibration    22          0.790              1.409              0.864
 Vibration    23          0.811              1.355              0.787
 Vibration    24          0.833              1.304              0.721
 Vibration    25          0.841              1.284              0.698
 Vibration    26          0.858              1.244              0.651
 Vibration    27          0.888              1.177              0.581
 Vibration    28          0.903              1.146              0.550
 Vibration    29          0.937              1.073              0.484
 Vibration    30          0.955              1.039              0.455
 Vibration    31          0.979              0.992              0.418

                           ! Non-Optimized Parameters !
 Normal termination of Gaussian 16 at Mon Dec 14 14:09:42 2020.

 ----------------------------------------------------------------------
 # B3LYP/6-311++G(d,p) empiricaldispersion=gd3bj scf=xqc pop=npa geom=c
 heck
 ----------------------------------------------------------------------

 ---------------------------------------
 CID_105808251_JID_9677_Energie_neutraal
 ---------------------------------------
 Structure from the checkpoint file:  "JID_9677.chk"
 Charge =  0 Multiplicity = 1

 SCF Done:  E(RB3LYP) =  -845.134725290     A.U. after   16 cycles
 Normal termination of Gaussian 16 at Mon Dec 14 14:21:57 2020.

 ----------------------------------------------------------------------
 # B3LYP/6-311++G(d,p) empiricaldispersion=gd3bj scf=xqc pop=npa geom=c
 heck
 ----------------------------------------------------------------------

 -------------------------------------
 CID_105808251_JID_9677_Energie_kation
 -------------------------------------
 Structure from the checkpoint file:  "JID_9677.chk"
 Charge =  1 Multiplicity = 2

 SCF Done:  E(UB3LYP) =  -844.857637339     A.U. after   28 cycles
 Normal termination of Gaussian 16 at Mon Dec 14 14:51:56 2020.
 Gaussian 16:  ES64L-G16RevA.03 25-Dec-2016

 ----------------------------------------------------------------------
 # B3LYP/6-311++G(d,p) empiricaldispersion=gd3bj scf=xqc pop=npa geom=c
 heck
 ----------------------------------------------------------------------

 ------------------------------------
 CID_105808251_JID_9677_Energie_anion
 ------------------------------------
 Structure from the checkpoint file:  "JID_9677.chk"
 Charge = -1 Multiplicity = 2

                         Standard orientation:
 ---------------------------------------------------------------------
 Center     Atomic      Atomic             Coordinates (Angstroms)
 Number     Number       Type             X           Y           Z
 ---------------------------------------------------------------------
      1          6           0        3.531130    2.951669   -0.120205
      2          6           0        3.100578    1.505550   -0.148606
      3          6           0        2.043107    1.042383    0.628170
      4          6           0        1.612185   -0.290753    0.594125
      5          6           0        2.310858   -1.231807   -0.194621
      6          6           0        3.384255   -0.767593   -0.977968
      7          6           0        3.757638    0.567868   -0.961509
      8          7           0        2.020828   -2.588763   -0.152885
      9          6           0        0.448925   -0.650594    1.461658
     10          8           0        0.348788   -0.259282    2.617728
     11          7           0       -0.522108   -1.485603    0.910634
     12          6           0       -1.001363   -1.388561   -0.479242
     13          6           0       -1.532406   -2.753588   -0.926134
     14          6           0       -2.036630   -0.257068   -0.689335
     15          6           0       -1.465014    1.139600   -0.399762
     16          6           0       -2.524219    2.210944   -0.661945
     17          8           0       -3.693959    1.992949    0.114946
     18          6           0       -4.289535    0.738802   -0.172655
     19          6           0       -3.339141   -0.428513    0.109569
     20          1           0        2.915548    3.532825    0.573267
     21          1           0        4.576214    3.055007    0.197501
     22          1           0        3.448735    3.418454   -1.110086
     23          1           0        1.507963    1.725232    1.281722
     24          1           0        3.935437   -1.478899   -1.588744
     25          1           0        4.588441    0.890420   -1.585400
     26          1           0        1.129691   -2.845789    0.250908
     27          1           0        2.293178   -3.135136   -0.957499
     28          1           0       -1.258885   -1.645884    1.592306
     29          1           0       -0.129122   -1.138574   -1.088798
     30          1           0       -2.332967   -3.109038   -0.268391
     31          1           0       -1.933271   -2.698979   -1.943909
     32          1           0       -0.734281   -3.501996   -0.912856
     33          1           0       -2.300249   -0.291200   -1.758972
     34          1           0       -1.161654    1.207393    0.650834
     35          1           0       -0.575314    1.332401   -1.011533
     36          1           0       -2.158916    3.204208   -0.386086
     37          1           0       -2.785727    2.228346   -1.735240
     38          1           0       -4.607713    0.706840   -1.230414
     39          1           0       -5.185563    0.677447    0.451809
     40          1           0       -3.843196   -1.369949   -0.140645
     41          1           0       -3.120231   -0.441951    1.185355
 ---------------------------------------------------------------------

 SCF Done:  E(UB3LYP) =  -845.128828800     A.U. after   33 cycles
 SCF Done:  E(UB3LYP) =  -845.128828800     a.u. after    1 cycles

 The electronic state is 2-A.
 Alpha  occ. eigenvalues --  -19.03235 -18.98056 -14.22514 -14.21262 -10.16054
 Alpha  occ. eigenvalues --  -10.12487 -10.12248 -10.11415 -10.11241 -10.08208
 Alpha  occ. eigenvalues --  -10.07613 -10.07491 -10.06895 -10.06857 -10.06755
 Alpha  occ. eigenvalues --  -10.06459 -10.06271 -10.06149 -10.06140  -0.94779
 Alpha  occ. eigenvalues --   -0.93124  -0.82596  -0.81141  -0.74022  -0.71728
 Alpha  occ. eigenvalues --   -0.67303  -0.66307  -0.65273  -0.64592  -0.57947
 Alpha  occ. eigenvalues --   -0.56569  -0.54780  -0.53707  -0.51036  -0.49465
 Alpha  occ. eigenvalues --   -0.47659  -0.45823  -0.42425  -0.41688  -0.40969
 Alpha  occ. eigenvalues --   -0.38566  -0.37937  -0.36477  -0.36167  -0.35389
 Alpha  occ. eigenvalues --   -0.34667  -0.34468  -0.33778  -0.32600  -0.32342
 Alpha  occ. eigenvalues --   -0.31869  -0.31363  -0.30682  -0.29510  -0.28851
 Alpha  occ. eigenvalues --   -0.28609  -0.27678  -0.27407  -0.26292  -0.25883
 Alpha  occ. eigenvalues --   -0.25067  -0.24472  -0.24002  -0.22251  -0.21412
 Alpha  occ. eigenvalues --   -0.20379  -0.17070  -0.16635  -0.15146  -0.14043
 Alpha  occ. eigenvalues --   -0.10209   0.04053
 Alpha virt. eigenvalues --    0.05939   0.06529   0.06831   0.07593   0.08176
 Alpha virt. eigenvalues --    0.08350   0.09408   0.09703   0.10158   0.10288
 Alpha virt. eigenvalues --    0.10522   0.10920   0.11372   0.12001   0.12251

  Beta  occ. eigenvalues --  -19.03230 -18.97959 -14.22493 -14.21230 -10.15969
  Beta  occ. eigenvalues --  -10.12472 -10.12237 -10.11403 -10.11230 -10.08195
  Beta  occ. eigenvalues --  -10.07599 -10.07486 -10.06937 -10.06855 -10.06724
  Beta  occ. eigenvalues --  -10.06405 -10.06146 -10.06088 -10.06057  -0.94768
  Beta  occ. eigenvalues --   -0.92942  -0.82512  -0.81070  -0.73891  -0.71691
  Beta  occ. eigenvalues --   -0.67281  -0.66217  -0.65217  -0.64419  -0.57844
  Beta  occ. eigenvalues --   -0.56523  -0.54728  -0.53458  -0.50979  -0.49382
  Beta  occ. eigenvalues --   -0.47600  -0.45751  -0.42356  -0.41612  -0.40931
  Beta  occ. eigenvalues --   -0.38529  -0.37861  -0.36409  -0.36106  -0.35332
  Beta  occ. eigenvalues --   -0.34619  -0.34401  -0.33719  -0.32566  -0.32282
  Beta  occ. eigenvalues --   -0.31818  -0.31262  -0.30534  -0.29429  -0.28693
  Beta  occ. eigenvalues --   -0.28558  -0.27596  -0.27248  -0.26259  -0.25836
  Beta  occ. eigenvalues --   -0.24945  -0.24393  -0.23924  -0.22220  -0.21355
  Beta  occ. eigenvalues --   -0.20109  -0.16962  -0.16426  -0.14828  -0.13650
  Beta  occ. eigenvalues --   -0.09982
  Beta virt. eigenvalues --    0.06384   0.06853   0.07141   0.07428   0.07926
  Beta virt. eigenvalues --    0.08361   0.08666   0.09494   0.09770   0.10379
  Beta virt. eigenvalues --    0.10501   0.10867   0.11053   0.11494   0.12056

 Mulliken charges and spin densities:
               1          2
     1  C   -0.456066  -0.160060
     2  C    0.159873  -0.069351
     3  C   -0.570929   0.323311
     4  C    0.498398  -0.073015
     5  C    0.199273  -0.025537
     6  C   -0.275082   0.134474
     7  C   -0.026663  -0.263595
     8  N   -0.223870  -0.078891
     9  C   -0.289538  -0.114656
    10  O   -0.255914   0.033048
    11  N   -0.147387  -0.011955
    12  C   -0.611277   1.011792
    13  C    1.654425  -2.186835
    14  C   -0.421552   0.242130
    15  C   -0.274737   0.017243
    16  C   -0.365618  -0.402002
    17  O   -0.117727   0.030206
    18  C    0.111186  -0.669460
    19  C   -0.125576  -0.087793
    20  H    0.116469   0.011539
    21  H    0.106416   0.027912
    22  H    0.128923   0.018566
    23  H    0.195153   0.007636
    24  H   -0.212497   0.347789
    25  H    0.100321   0.028516
    26  H    0.297789  -0.035265
    27  H   -0.081860   0.329507
    28  H    0.292814   0.018680
    29  H    0.104519   0.100625
    30  H   -0.042066   0.190553
    31  H   -0.471863   0.620701
    32  H   -0.190600   0.322027
    33  H   -0.077494   0.304970
    34  H    0.183754   0.063759
    35  H    0.153407   0.004862
    36  H    0.141187   0.046105
    37  H   -0.090921   0.224851
    38  H   -0.115257   0.242146
    39  H    0.028937   0.153623
    40  H   -0.152421   0.299089
    41  H    0.124071   0.022753
 Sum of Mulliken charges =  -1.00000   1.00000

 Dipole moment (field-independent basis, Debye):
    X=              1.1319    Y=              3.3936    Z=              0.7729  Tot=              3.6600
 Quadrupole moment (field-independent basis, Debye-Ang):
   XX=           -178.6159   YY=           -157.7532   ZZ=           -159.2893
   XY=              5.0063   XZ=            -10.1007   YZ=            -10.7125

 Summary of Natural Population Analysis:

                                       Natural Population
                Natural  -----------------------------------------------
    Atom  No    Charge         Core      Valence    Rydberg      Total
 -----------------------------------------------------------------------
      C    1   -0.28753      0.99964     2.28297    0.00492     3.28753
      C    2   -0.05240      0.99951     2.04509    0.00780     3.05240
      C    3   -0.05598      0.99949     2.04903    0.00745     3.05598
      C    4   -0.09076      0.99941     2.08066    0.01068     3.09076
      C    5    0.09695      0.99946     1.89232    0.01126     2.90305
      C    6   -0.12078      0.99953     2.11134    0.00992     3.12078
      C    7   -0.06147      0.99952     2.05357    0.00837     3.06147
      N    8   -0.39884      0.99971     2.89029    0.00884     3.89884
      C    9    0.35528      0.99962     1.62191    0.02319     2.64472
      O   10   -0.30876      0.99988     3.30371    0.00517     4.30876
      N   11   -0.33834      0.99967     2.82903    0.00964     3.83834
      C   12   -0.01435      0.99956     2.00078    0.01401     3.01435
      C   13   -0.28529      0.99964     2.27904    0.00660     3.28529
      C   14   -0.11351      0.99956     2.10076    0.01319     3.11351
      C   15   -0.21021      0.99961     2.20195    0.00866     3.21021
      C   16   -0.00641      0.99958     1.99432    0.01251     3.00641
      O   17   -0.30001      0.99989     3.29157    0.00855     4.30001
      C   18   -0.00689      0.99958     1.99401    0.01330     3.00689
      C   19   -0.20880      0.99961     2.20014    0.00906     3.20880
      H   20    0.09991      0.00000     0.39926    0.00083     0.40009
      H   21    0.09737      0.00000     0.40141    0.00122     0.40263
      H   22    0.09754      0.00000     0.40128    0.00118     0.40246
      H   23    0.10142      0.00000     0.39705    0.00153     0.39858
      H   24    0.09588      0.00000     0.40277    0.00134     0.40412
      H   25    0.09206      0.00000     0.40709    0.00085     0.40794
      H   26    0.19491      0.00000     0.30257    0.00253     0.30509
      H   27    0.18700      0.00000     0.31085    0.00214     0.31300
      H   28    0.18763      0.00000     0.31017    0.00220     0.31237
      H   29    0.10689      0.00000     0.39044    0.00267     0.39311
      H   30    0.09635      0.00000     0.40243    0.00122     0.40365
      H   31    0.10502      0.00000     0.39349    0.00149     0.39498
      H   32    0.10111      0.00000     0.39764    0.00125     0.39889
      H   33    0.09928      0.00000     0.39853    0.00219     0.40072
      H   34    0.10483      0.00000     0.39335    0.00182     0.39517
      H   35    0.10799      0.00000     0.39095    0.00105     0.39201
      H   36    0.09024      0.00000     0.40881    0.00095     0.40976
      H   37    0.07558      0.00000     0.42316    0.00125     0.42442
      H   38    0.07672      0.00000     0.42188    0.00140     0.42328
      H   39    0.08926      0.00000     0.40969    0.00105     0.41074
      H   40    0.10435      0.00000     0.39445    0.00120     0.39565
      H   41    0.09675      0.00000     0.40190    0.00135     0.40325
 =======================================================================
   * Total *    0.00000     18.99248    51.78167    0.22585    71.00000

 Normal termination of Gaussian 16 at Mon Dec 14 15:27:45 2020.
