 Gaussian 16, Revision A.03,

 -----------------------------------------------------------
 # opt freq B3LYP/6-31G(d) empiricaldispersion=gd3bj scf=xqc
 -----------------------------------------------------------

 ------------------------------
 CID_28756064_JID_8187_neutraal
 ------------------------------
 Symbolic Z-matrix:
 Charge =  0 Multiplicity = 1

 SCF Done:  E(RB3LYP) =  -1218.68784608     A.U. after   15 cycles
 SCF Done:  E(RB3LYP) =  -1218.69619601     A.U. after   12 cycles
 SCF Done:  E(RB3LYP) =  -1218.69635823     A.U. after   12 cycles
 SCF Done:  E(RB3LYP) =  -1218.69763384     A.U. after   12 cycles
 SCF Done:  E(RB3LYP) =  -1218.69809389     A.U. after   11 cycles
 SCF Done:  E(RB3LYP) =  -1218.69831131     A.U. after   11 cycles
 SCF Done:  E(RB3LYP) =  -1218.69838760     A.U. after   11 cycles
 SCF Done:  E(RB3LYP) =  -1218.69842317     A.U. after   11 cycles
 SCF Done:  E(RB3LYP) =  -1218.69843862     A.U. after   11 cycles
 SCF Done:  E(RB3LYP) =  -1218.69845086     A.U. after   10 cycles
 SCF Done:  E(RB3LYP) =  -1218.69846291     A.U. after    8 cycles
 SCF Done:  E(RB3LYP) =  -1218.69846303     A.U. after    8 cycles
 SCF Done:  E(RB3LYP) =  -1218.69846307     A.U. after    8 cycles
 SCF Done:  E(RB3LYP) =  -1218.69846310     A.U. after    7 cycles
 SCF Done:  E(RB3LYP) =  -1218.69846311     A.U. after    6 cycles
 Optimization completed.
    -- Stationary point found.
 Normal termination of Gaussian 16 at Fri Dec 11 19:28:31 2020.

 --------------------------------------------------------------------
 #N Geom=AllCheck Guess=TCheck SCRF=Check GenChk RB3LYP/6-31G(d) Freq
 --------------------------------------------------------------------

 Structure from the checkpoint file:  "JID_8187.chk"
 ------------------------------
 CID_28756064_JID_8187_neutraal
 ------------------------------
 Charge =  0 Multiplicity = 1

 SCF Done:  E(RB3LYP) =  -1218.69846311     A.U. after    1 cycles

  Exact polarizability: 219.684  -3.754 150.462  -3.160 -12.061 118.160
 Approx polarizability: 279.899 -15.374 248.410  -7.947 -29.525 180.269

                      1                      2                      3
                      A                      A                      A
 Frequencies --     15.4109                27.8924                33.8153
 Red. masses --      4.5786                 4.6365                 4.7925
 Frc consts  --      0.0006                 0.0021                 0.0032
 IR Inten    --      0.5979                 1.3083                 2.2457

                      4                      5                      6
                      A                      A                      A
 Frequencies --     66.8594                73.2678                93.8717
 Red. masses --      3.6306                 3.2636                 4.0408
 Frc consts  --      0.0096                 0.0103                 0.0210
 IR Inten    --      0.5272                 2.2889                 3.3019

                      7                      8                      9
                      A                      A                      A
 Frequencies --    121.6335               140.6964               163.3102
 Red. masses --      3.0393                 3.2290                 3.3126
 Frc consts  --      0.0265                 0.0377                 0.0521
 IR Inten    --      2.3063                 2.5160                 0.4620

                     10                     11                     12
                      A                      A                      A
 Frequencies --    198.1979               207.3934               213.2095
 Red. masses --      1.7971                 1.1284                 2.5676
 Frc consts  --      0.0416                 0.0286                 0.0688
 IR Inten    --      3.2800                 0.8585                 0.1209

                     13                     14                     15
                      A                      A                      A
 Frequencies --    217.6142               221.8797               243.6017
 Red. masses --      1.7127                 2.3731                 1.9019
 Frc consts  --      0.0478                 0.0688                 0.0665
 IR Inten    --      3.0017                 0.4813                 3.6029

                     16                     17                     18
                      A                      A                      A
 Frequencies --    247.0493               279.4489               303.9338
 Red. masses --      3.8746                 3.0586                 2.5153
 Frc consts  --      0.1393                 0.1407                 0.1369
 IR Inten    --      6.4614                 6.7959                21.4921

                     19                     20                     21
                      A                      A                      A
 Frequencies --    314.3263               338.1704               361.4695
 Red. masses --      1.7317                 3.1626                 2.1186
 Frc consts  --      0.1008                 0.2131                 0.1631
 IR Inten    --     51.9908                31.8749                20.8564

                     22                     23                     24
                      A                      A                      A
 Frequencies --    368.7086               408.8045               435.7925
 Red. masses --      3.3226                 4.1158                 4.9557
 Frc consts  --      0.2661                 0.4053                 0.5545
 IR Inten    --      1.8690                 5.3973                 9.2672

                     25                     26                     27
                      A                      A                      A
 Frequencies --    470.9680               476.6290               504.4228
 Red. masses --      3.9032                 4.6675                 4.8225
 Frc consts  --      0.5101                 0.6247                 0.7230
 IR Inten    --      8.2013                 4.0398                 9.5135

                     28                     29                     30
                      A                      A                      A
 Frequencies --    528.3558               542.3097               577.4424
 Red. masses --      3.1893                 4.0847                 4.9957
 Frc consts  --      0.5246                 0.7078                 0.9814
 IR Inten    --     13.8744                 7.7694                 2.6505

                     31                     32                     33
                      A                      A                      A
 Frequencies --    588.0311               637.1711               676.8517
 Red. masses --      6.8705                 5.7459                 5.1330
 Frc consts  --      1.3997                 1.3744                 1.3855
 IR Inten    --     44.6362                19.4335                22.8127

                     34                     35                     36
                      A                      A                      A
 Frequencies --    716.9420               717.7172               788.4414
 Red. masses --      6.6140                 2.4667                 3.3987
 Frc consts  --      2.0030                 0.7487                 1.2448
 IR Inten    --    127.2716                15.5405                85.3113

                     37                     38                     39
                      A                      A                      A
 Frequencies --    808.1404               856.6036               889.7006
 Red. masses --      1.6189                 2.2467                 1.5271
 Frc consts  --      0.6229                 0.9713                 0.7122
 IR Inten    --     54.1373                41.5120                13.9577

                     40                     41                     42
                      A                      A                      A
 Frequencies --    897.6601               908.8215               917.1127
 Red. masses --      1.7848                 1.4870                 1.3391
 Frc consts  --      0.8473                 0.7236                 0.6636
 IR Inten    --     47.5738                22.7122                31.5953

                     43                     44                     45
                      A                      A                      A
 Frequencies --    945.3717               954.1446               977.4882
 Red. masses --      2.6941                 3.0915                 1.2760
 Frc consts  --      1.4186                 1.6583                 0.7184
 IR Inten    --    157.6757                72.3631                 1.6623

                     46                     47                     48
                      A                      A                      A
 Frequencies --   1021.1742              1059.0364              1076.6613
 Red. masses --      5.5764                 2.8345                 1.5422
 Frc consts  --      3.4261                 1.8731                 1.0533
 IR Inten    --      0.9314                95.0361                10.6634

                     49                     50                     51
                      A                      A                      A
 Frequencies --   1086.1953              1117.2558              1121.5155
 Red. masses --      2.8064                 2.3913                 7.9778
 Frc consts  --      1.9508                 1.7587                 5.9121
 IR Inten    --     29.2521                43.4084               123.0309

                     52                     53                     54
                      A                      A                      A
 Frequencies --   1131.6849              1135.3355              1152.2094
 Red. masses --      1.6911                 1.2377                 1.7620
 Frc consts  --      1.2760                 0.9400                 1.3782
 IR Inten    --      6.8185                 0.8557                29.9545

                     55                     56                     57
                      A                      A                      A
 Frequencies --   1158.1447              1185.4994              1187.4939
 Red. masses --      1.4835                 1.8084                 1.4503
 Frc consts  --      1.1724                 1.4974                 1.2050
 IR Inten    --     16.6099                67.9336                11.2398

                     58                     59                     60
                      A                      A                      A
 Frequencies --   1203.1130              1210.2827              1226.1490
 Red. masses --      1.4149                 1.1779                 3.4765
 Frc consts  --      1.2066                 1.0165                 3.0795
 IR Inten    --      3.6060                 3.7423                64.5215

                     61                     62                     63
                      A                      A                      A
 Frequencies --   1239.4738              1286.2778              1291.8302
 Red. masses --      2.1290                 1.9196                 1.4304
 Frc consts  --      1.9271                 1.8712                 1.4065
 IR Inten    --     91.5597                19.9831                11.3381

                     64                     65                     66
                      A                      A                      A
 Frequencies --   1308.0795              1324.5143              1335.7876
 Red. masses --      2.5658                 8.0085                 1.9538
 Frc consts  --      2.5867                 8.2778                 2.0541
 IR Inten    --     29.6650               228.4702                64.1883

                     67                     68                     69
                      A                      A                      A
 Frequencies --   1366.7240              1374.2976              1421.8135
 Red. masses --      1.9711                 1.6474                 1.2911
 Frc consts  --      2.1693                 1.8332                 1.5378
 IR Inten    --      6.3114                35.7124                19.7430

                     70                     71                     72
                      A                      A                      A
 Frequencies --   1455.0220              1458.7343              1467.4471
 Red. masses --      1.5052                 1.1448                 1.1633
 Frc consts  --      1.8775                 1.4353                 1.4759
 IR Inten    --     14.4188                 0.2588                 2.8135

                     73                     74                     75
                      A                      A                      A
 Frequencies --   1485.3724              1503.3951              1514.5031
 Red. masses --      1.1636                 3.2541                 1.0481
 Frc consts  --      1.5126                 4.3335                 1.4164
 IR Inten    --      1.8518                20.5557                 8.8073

                     76                     77                     78
                      A                      A                      A
 Frequencies --   1519.6461              1523.7409              1524.2410
 Red. masses --      1.0686                 1.1028                 1.0740
 Frc consts  --      1.4540                 1.5086                 1.4702
 IR Inten    --      6.7434                 8.4050                 6.8302

                     79                     80                     81
                      A                      A                      A
 Frequencies --   1527.8271              1529.8411              1531.6226
 Red. masses --      1.1382                 1.0523                 1.1164
 Frc consts  --      1.5653                 1.4510                 1.5430
 IR Inten    --     10.2810                15.1296                14.2375

                     82                     83                     84
                      A                      A                      A
 Frequencies --   1537.5048              1543.4413              1640.0101
 Red. masses --      1.8134                 1.0508                 5.7420
 Frc consts  --      2.5257                 1.4748                 9.0992
 IR Inten    --     86.7180                 9.0444                44.2231

                     85                     86                     87
                      A                      A                      A
 Frequencies --   1667.1707              1701.9674              2978.1682
 Red. masses --      6.0835                 1.0905                 1.0716
 Frc consts  --      9.9625                 1.8611                 5.6001
 IR Inten    --    151.6817                33.7869                66.8376

                     88                     89                     90
                      A                      A                      A
 Frequencies --   3024.3371              3039.9202              3055.1031
 Red. masses --      1.0495                 1.0427                 1.0385
 Frc consts  --      5.6557                 5.6773                 5.7107
 IR Inten    --     57.4585                50.8569                33.1591

                     91                     92                     93
                      A                      A                      A
 Frequencies --   3060.9220              3074.9003              3111.8006
 Red. masses --      1.0662                 1.0823                 1.0909
 Frc consts  --      5.8856                 6.0293                 6.2241
 IR Inten    --     14.4712                80.5414                22.5486

                     94                     95                     96
                      A                      A                      A
 Frequencies --   3115.9842              3116.9655              3134.1071
 Red. masses --      1.0966                 1.1085                 1.0979
 Frc consts  --      6.2734                 6.3455                 6.3538
 IR Inten    --     25.8530                27.2800                13.7934

                     97                     98                     99
                      A                      A                      A
 Frequencies --   3169.4028              3170.0488              3189.1225
 Red. masses --      1.1008                 1.1043                 1.0989
 Frc consts  --      6.5150                 6.5381                 6.5848
 IR Inten    --     12.6723                 8.8320                 2.3828

                    100                    101                    102
                      A                      A                      A
 Frequencies --   3195.6852              3219.2987              3230.6686
 Red. masses --      1.0882                 1.0936                 1.0918
 Frc consts  --      6.5474                 6.6780                 6.7141
 IR Inten    --     14.2615                 3.4927                 1.3386

                    103                    104                    105
                      A                      A                      A
 Frequencies --   3232.8635              3472.6512              3555.2153
 Red. masses --      1.0928                 1.0502                 1.0925
 Frc consts  --      6.7289                 7.4616                 8.1355
 IR Inten    --      1.6383                 0.7259                 0.0689

 - Thermochemistry -
 -------------------
 Temperature   298.150 Kelvin.  Pressure   1.00000 Atm.
 Atom     1 has atomic number  6 and mass  12.00000

 Molecular mass:   273.11471 amu.
 Principal axes and moments of inertia in atomic units:
                           1         2         3
     Eigenvalues --  2025.59818********************
           X            0.99996   0.00455  -0.00781
           Y           -0.00441   0.99984   0.01760
           Z            0.00789  -0.01756   0.99981
 This molecule is an asymmetric top.
 Rotational symmetry number  1.
 Warning -- assumption of classical behavior for rotation
           may cause significant error
 Rotational temperatures (Kelvin)      0.04276     0.00842     0.00804
 Rotational constants (GHZ):           0.89097     0.17546     0.16761
 Zero-point vibrational energy     812120.1 (Joules/Mol)
                                  194.10137 (Kcal/Mol)
 Warning -- explicit consideration of  31 degrees of freedom as
           vibrations may cause significant error
 Vibrational temperatures:     22.17    40.13    48.65    96.20   105.42
          (Kelvin)            135.06   175.00   202.43   234.97   285.16
                              298.39   306.76   313.10   319.24   350.49
                              355.45   402.06   437.29   452.25   486.55
                              520.07   530.49   588.18   627.01   677.62
                              685.76   725.75   760.19   780.26   830.81
                              846.05   916.75   973.84  1031.52  1032.63
                             1134.39  1162.73  1232.46  1280.08  1291.53
                             1307.59  1319.52  1360.18  1372.80  1406.39
                             1469.24  1523.72  1549.08  1562.79  1607.48
                             1613.61  1628.24  1633.49  1657.77  1666.31
                             1705.67  1708.54  1731.01  1741.33  1764.15
                             1783.33  1850.67  1858.66  1882.03  1905.68
                             1921.90  1966.41  1977.31  2045.67  2093.45
                             2098.79  2111.33  2137.12  2163.05  2179.03
                             2186.43  2192.32  2193.04  2198.20  2201.10
                             2203.66  2212.13  2220.67  2359.61  2398.69
                             2448.75  4284.92  4351.35  4373.77  4395.61
                             4403.98  4424.10  4477.19  4483.21  4484.62
                             4509.28  4560.06  4560.99  4588.44  4597.88
                             4631.85  4648.21  4651.37  4996.37  5115.16

 Zero-point correction=                           0.309320 (Hartree/Particle)
 Thermal correction to Energy=                    0.328710
 Thermal correction to Enthalpy=                  0.329654
 Thermal correction to Gibbs Free Energy=         0.259897
 Sum of electronic and zero-point Energies=          -1218.389143
 Sum of electronic and thermal Energies=             -1218.369753
 Sum of electronic and thermal Enthalpies=           -1218.368809
 Sum of electronic and thermal Free Energies=        -1218.438566

                     E (Thermal)             CV                S
                      KCal/Mol        Cal/Mol-Kelvin    Cal/Mol-Kelvin
 Total                  206.269             71.796            146.815
 Electronic               0.000              0.000              0.000
 Translational            0.889              2.981             42.713
 Rotational               0.889              2.981             33.772
 Vibrational            204.491             65.835             70.330
 Vibration     1          0.593              1.986              7.152
 Vibration     2          0.593              1.984              5.974
 Vibration     3          0.594              1.983              5.592
 Vibration     4          0.598              1.970              4.244
 Vibration     5          0.599              1.967              4.064
 Vibration     6          0.603              1.954              3.578
 Vibration     7          0.609              1.931              3.074
 Vibration     8          0.615              1.913              2.794
 Vibration     9          0.623              1.887              2.511
 Vibration    10          0.637              1.842              2.150
 Vibration    11          0.641              1.829              2.066
 Vibration    12          0.644              1.821              2.016
 Vibration    13          0.646              1.814              1.979
 Vibration    14          0.648              1.808              1.944
 Vibration    15          0.659              1.773              1.776
 Vibration    16          0.661              1.768              1.752
 Vibration    17          0.680              1.712              1.537
 Vibration    18          0.695              1.666              1.395
 Vibration    19          0.702              1.646              1.339
 Vibration    20          0.718              1.599              1.221
 Vibration    21          0.736              1.552              1.116
 Vibration    22          0.741              1.537              1.085
 Vibration    23          0.773              1.451              0.931
 Vibration    24          0.796              1.392              0.840
 Vibration    25          0.828              1.314              0.735
 Vibration    26          0.833              1.302              0.719
 Vibration    27          0.860              1.240              0.647
 Vibration    28          0.883              1.187              0.591
 Vibration    29          0.897              1.157              0.560
 Vibration    30          0.934              1.080              0.490
 Vibration    31          0.945              1.057              0.471

 Optimization completed.
    -- Stationary point found.
 Normal termination of Gaussian 16 at Fri Dec 11 19:43:51 2020.

 ----------------------------------------------------------------------
 # B3LYP/6-311++G(d,p) empiricaldispersion=gd3bj scf=xqc pop=npa geom=c
 heck
 ----------------------------------------------------------------------

 --------------------------------------
 CID_28756064_JID_8187_Energie_neutraal
 --------------------------------------
 Structure from the checkpoint file:  "JID_8187.chk"
 Charge =  0 Multiplicity = 1

 SCF Done:  E(RB3LYP) =  -1218.96342536     A.U. after   15 cycles
 Normal termination of Gaussian 16 at Fri Dec 11 19:50:17 2020.

 ----------------------------------------------------------------------
 # B3LYP/6-311++G(d,p) empiricaldispersion=gd3bj scf=xqc pop=npa geom=c
 heck
 ----------------------------------------------------------------------

 ------------------------------------
 CID_28756064_JID_8187_Energie_kation
 ------------------------------------
 Structure from the checkpoint file:  "JID_8187.chk"
 Charge =  1 Multiplicity = 2

 SCF Done:  E(UB3LYP) =  -1218.67095395     A.U. after   28 cycles
 Normal termination of Gaussian 16 at Fri Dec 11 20:06:31 2020.
 Gaussian 16:  ES64L-G16RevA.03 25-Dec-2016

 ----------------------------------------------------------------------
 # B3LYP/6-311++G(d,p) empiricaldispersion=gd3bj scf=xqc pop=npa geom=c
 heck
 ----------------------------------------------------------------------

 -----------------------------------
 CID_28756064_JID_8187_Energie_anion
 -----------------------------------
 Structure from the checkpoint file:  "JID_8187.chk"
 Charge = -1 Multiplicity = 2

                         Standard orientation:
 ---------------------------------------------------------------------
 Center     Atomic      Atomic             Coordinates (Angstroms)
 Number     Number       Type             X           Y           Z
 ---------------------------------------------------------------------
      1          6           0       -4.912709   -0.788023   -0.480883
      2          7           0       -3.589250   -0.886559    0.146655
      3          6           0       -3.112194   -2.263279    0.314295
      4         16           0       -2.430423    0.145724   -0.528286
      5          8           0       -1.653156   -0.512839   -1.578217
      6          8           0       -3.118909    1.410723   -0.806466
      7          7           0       -1.410232    0.272875    0.820395
      8          6           0       -1.988444    1.034200    1.940229
      9          6           0       -0.045800    0.622111    0.488261
     10          6           0        0.944418   -0.319341    0.736455
     11          6           0        2.283115   -0.014055    0.459833
     12          6           0        2.617658    1.237916   -0.070800
     13          6           0        1.606160    2.172300   -0.307907
     14          6           0        0.273941    1.881638   -0.030111
     15          8           0        3.174063   -1.019393    0.718694
     16          6           0        4.567615   -0.731798    0.882872
     17          6           0        5.371504   -1.115717   -0.351416
     18          7           0        5.064824   -0.239082   -1.484026
     19          1           0       -5.623294   -1.311735    0.165337
     20          1           0       -4.940134   -1.245521   -1.480747
     21          1           0       -5.200175    0.259937   -0.554880
     22          1           0       -3.015475   -2.791568   -0.643711
     23          1           0       -2.143782   -2.247734    0.816141
     24          1           0       -3.830527   -2.790549    0.949002
     25          1           0       -1.329995    0.897351    2.801038
     26          1           0       -2.081698    2.103917    1.718575
     27          1           0       -2.972922    0.623622    2.170248
     28          1           0        0.687882   -1.292101    1.139703
     29          1           0        3.641630    1.463643   -0.343330
     30          1           0        1.869862    3.136928   -0.731886
     31          1           0       -0.513361    2.599868   -0.233644
     32          1           0        4.717645    0.323008    1.133958
     33          1           0        4.892559   -1.342788    1.732200
     34          1           0        6.433995   -0.995937   -0.104037
     35          1           0        5.202846   -2.188487   -0.548856
     36          1           0        5.672873   -0.466308   -2.268606
     37          1           0        4.113883   -0.421412   -1.802162
 ---------------------------------------------------------------------

 SCF Done:  E(UB3LYP) =  -1218.95336473     A.U. after   33 cycles
 SCF Done:  E(UB3LYP) =  -1218.95336473     a.u. after    1 cycles

 The electronic state is 2-A.
 Alpha  occ. eigenvalues --  -88.98634 -19.06484 -19.03328 -19.03122 -14.26525
 Alpha  occ. eigenvalues --  -14.26357 -14.20762 -10.15207 -10.13861 -10.12822
 Alpha  occ. eigenvalues --  -10.12083 -10.11663 -10.11478 -10.10804 -10.09491
 Alpha  occ. eigenvalues --  -10.08665 -10.08612 -10.08478  -8.04664  -6.00911
 Alpha  occ. eigenvalues --   -6.00895  -6.00845  -1.04160  -0.97979  -0.92463
 Alpha  occ. eigenvalues --   -0.86603  -0.85109  -0.79912  -0.76604  -0.68197
 Alpha  occ. eigenvalues --   -0.66955  -0.64313  -0.63422  -0.63345  -0.59643
 Alpha  occ. eigenvalues --   -0.55037  -0.53101  -0.51672  -0.47766  -0.45743
 Alpha  occ. eigenvalues --   -0.44115  -0.42715  -0.41857  -0.40985  -0.40298
 Alpha  occ. eigenvalues --   -0.39939  -0.38583  -0.38049  -0.37124  -0.36131
 Alpha  occ. eigenvalues --   -0.34870  -0.34366  -0.34119  -0.33130  -0.32581
 Alpha  occ. eigenvalues --   -0.32236  -0.32018  -0.30046  -0.29886  -0.29141
 Alpha  occ. eigenvalues --   -0.28927  -0.28618  -0.26475  -0.25616  -0.24876
 Alpha  occ. eigenvalues --   -0.23992  -0.22928  -0.22239  -0.18416  -0.17378
 Alpha  occ. eigenvalues --   -0.16975  -0.16270  -0.14167   0.03718
 Alpha virt. eigenvalues --    0.04835   0.06075   0.06706   0.06952   0.07455
 Alpha virt. eigenvalues --    0.07643   0.07934   0.08332   0.09023   0.09116
 Alpha virt. eigenvalues --    0.10386   0.10513   0.10792   0.11092   0.11460

  Beta  occ. eigenvalues --  -88.98625 -19.06485 -19.03324 -19.03119 -14.26526
  Beta  occ. eigenvalues --  -14.26354 -14.20726 -10.15208 -10.13851 -10.12775
  Beta  occ. eigenvalues --  -10.12072 -10.11624 -10.11447 -10.10771 -10.09482
  Beta  occ. eigenvalues --  -10.08666 -10.08599 -10.08441  -8.04655  -6.00897
  Beta  occ. eigenvalues --   -6.00883  -6.00839  -1.04143  -0.97975  -0.92458
  Beta  occ. eigenvalues --   -0.86573  -0.85083  -0.79852  -0.76566  -0.68160
  Beta  occ. eigenvalues --   -0.66886  -0.64263  -0.63372  -0.63300  -0.59594
  Beta  occ. eigenvalues --   -0.54968  -0.53055  -0.51623  -0.47724  -0.45719
  Beta  occ. eigenvalues --   -0.44091  -0.42678  -0.41812  -0.40953  -0.40266
  Beta  occ. eigenvalues --   -0.39906  -0.38545  -0.38017  -0.37084  -0.36105
  Beta  occ. eigenvalues --   -0.34848  -0.34342  -0.34085  -0.33089  -0.32550
  Beta  occ. eigenvalues --   -0.32201  -0.31982  -0.30013  -0.29832  -0.29113
  Beta  occ. eigenvalues --   -0.28890  -0.28548  -0.26455  -0.25598  -0.24851
  Beta  occ. eigenvalues --   -0.23985  -0.22884  -0.22226  -0.18380  -0.17289
  Beta  occ. eigenvalues --   -0.16882  -0.16225  -0.14093
  Beta virt. eigenvalues --    0.05794   0.06170   0.06430   0.06941   0.07463
  Beta virt. eigenvalues --    0.07640   0.07933   0.08025   0.08739   0.09263
  Beta virt. eigenvalues --    0.09612   0.10488   0.10681   0.11007   0.11224

 Mulliken charges and spin densities:
               1          2
     1  C    0.454904  -0.772154
     2  N   -0.374056   0.223311
     3  C    0.184548  -0.603624
     4  S    0.531189  -0.319594
     5  O   -0.104664  -0.003655
     6  O   -0.159575   0.002900
     7  N    0.246377  -0.033634
     8  C    0.063524  -0.297301
     9  C   -0.967752   0.314749
    10  C   -0.414480   0.247503
    11  C   -0.148416  -0.011393
    12  C    0.644082  -0.427738
    13  C   -0.210677  -0.253063
    14  C   -0.272172   0.077077
    15  O   -0.048093   0.011875
    16  C   -0.487341   0.218639
    17  C    1.306154  -1.582430
    18  N   -0.474489   0.052002
    19  H   -0.411359   0.575836
    20  H   -0.031182   0.178872
    21  H    0.089850   0.089006
    22  H    0.101960   0.081113
    23  H   -0.120719   0.263251
    24  H   -0.316014   0.491660
    25  H    0.009915   0.152919
    26  H    0.148443   0.028457
    27  H    0.015502   0.173975
    28  H    0.075357   0.112708
    29  H    0.283935  -0.069017
    30  H    0.083789   0.090460
    31  H    0.154282   0.017482
    32  H    0.094209   0.047787
    33  H   -0.305661   0.483346
    34  H   -0.554849   0.719008
    35  H   -0.084677   0.226879
    36  H   -0.187435   0.448197
    37  H    0.185590   0.044592
 Sum of Mulliken charges =  -1.00000   1.00000

 Dipole moment (field-independent basis, Debye):
    X=             -2.7597    Y=              4.1368    Z=              1.6132  Tot=              5.2279
 Quadrupole moment (field-independent basis, Debye-Ang):
   XX=           -256.9531   YY=           -150.7961   ZZ=           -150.7728
   XY=              1.3024   XZ=             10.2822   YZ=              5.0732

 Summary of Natural Population Analysis:

                                       Natural Population
                Natural  -----------------------------------------------
    Atom  No    Charge         Core      Valence    Rydberg      Total
 -----------------------------------------------------------------------
      C    1   -0.18114      0.99963     2.17248    0.00903     3.18114
      N    2   -0.36737      0.99976     2.85259    0.01502     3.86737
      C    3   -0.18218      0.99963     2.17300    0.00956     3.18218
      S    4    1.16910      4.99922     1.72857    0.10311     6.83090
      O    5   -0.45087      0.99990     3.44579    0.00518     4.45087
      O    6   -0.46259      0.99990     3.45750    0.00520     4.46259
      N    7   -0.36800      0.99970     2.85329    0.01500     3.86800
      C    8   -0.17902      0.99962     2.17064    0.00876     3.17902
      C    9    0.08281      0.99945     1.90482    0.01292     2.91719
      C   10   -0.11300      0.99946     2.10315    0.01040     3.11300
      C   11    0.16508      0.99938     1.82294    0.01261     2.83492
      C   12   -0.13971      0.99951     2.13278    0.00742     3.13971
      C   13   -0.08827      0.99958     2.07934    0.00935     3.08827
      C   14   -0.12341      0.99950     2.11570    0.00822     3.12341
      O   15   -0.28189      0.99986     3.27220    0.00983     4.28189
      C   16   -0.01287      0.99955     2.00070    0.01262     3.01287
      C   17   -0.10033      0.99963     2.08895    0.01175     3.10033
      N   18   -0.42733      0.99977     2.91618    0.01137     3.92733
      H   19    0.10285      0.00000     0.39514    0.00201     0.39715
      H   20    0.08912      0.00000     0.40976    0.00112     0.41088
      H   21    0.11064      0.00000     0.38829    0.00108     0.38936
      H   22    0.09383      0.00000     0.40515    0.00102     0.40617
      H   23    0.10754      0.00000     0.39105    0.00142     0.39246
      H   24    0.10207      0.00000     0.39625    0.00168     0.39793
      H   25    0.10177      0.00000     0.39748    0.00075     0.39823
      H   26    0.09356      0.00000     0.40551    0.00093     0.40644
      H   27    0.10794      0.00000     0.39092    0.00114     0.39206
      H   28    0.11113      0.00000     0.38697    0.00189     0.38887
      H   29    0.11674      0.00000     0.38154    0.00172     0.38326
      H   30    0.10001      0.00000     0.39922    0.00077     0.39999
      H   31    0.10862      0.00000     0.39031    0.00107     0.39138
      H   32    0.08735      0.00000     0.41092    0.00172     0.41265
      H   33    0.09282      0.00000     0.40579    0.00139     0.40718
      H   34    0.09565      0.00000     0.40172    0.00263     0.40435
      H   35    0.08322      0.00000     0.41493    0.00184     0.41678
      H   36    0.18039      0.00000     0.31703    0.00258     0.31961
      H   37    0.17578      0.00000     0.32219    0.00204     0.32422
 =======================================================================
   * Total *    0.00000     21.99306    50.70079    0.30615    73.00000

 Normal termination of Gaussian 16 at Fri Dec 11 20:25:13 2020.
