 Gaussian 16, Revision A.03,

 -----------------------------------------------------------
 # opt freq B3LYP/6-31G(d) empiricaldispersion=gd3bj scf=xqc
 -----------------------------------------------------------

 -------------------------------
 CID_45799254_JID_10922_neutraal
 -------------------------------
 Symbolic Z-matrix:
 Charge =  0 Multiplicity = 1

 SCF Done:  E(RB3LYP) =  -879.370431519     A.U. after   15 cycles
 SCF Done:  E(RB3LYP) =  -879.376228356     A.U. after   14 cycles
 SCF Done:  E(RB3LYP) =  -879.376343442     A.U. after   14 cycles
 SCF Done:  E(RB3LYP) =  -879.377980969     A.U. after   13 cycles
 SCF Done:  E(RB3LYP) =  -879.378264347     A.U. after   13 cycles
 SCF Done:  E(RB3LYP) =  -879.378698886     A.U. after   13 cycles
 SCF Done:  E(RB3LYP) =  -879.378996839     A.U. after   13 cycles
 SCF Done:  E(RB3LYP) =  -879.379099267     A.U. after   12 cycles
 SCF Done:  E(RB3LYP) =  -879.379175898     A.U. after   11 cycles
 SCF Done:  E(RB3LYP) =  -879.379210488     A.U. after   10 cycles
 SCF Done:  E(RB3LYP) =  -879.379219117     A.U. after   10 cycles
 SCF Done:  E(RB3LYP) =  -879.379223059     A.U. after   10 cycles
 SCF Done:  E(RB3LYP) =  -879.379224101     A.U. after   10 cycles
 SCF Done:  E(RB3LYP) =  -879.379224932     A.U. after    8 cycles
 SCF Done:  E(RB3LYP) =  -879.379225313     A.U. after    8 cycles
 SCF Done:  E(RB3LYP) =  -879.379225402     A.U. after    7 cycles
 Optimization completed.
    -- Stationary point found.
 Normal termination of Gaussian 16 at Sun Dec 13 20:52:24 2020.

 --------------------------------------------------------------------
 #N Geom=AllCheck Guess=TCheck SCRF=Check GenChk RB3LYP/6-31G(d) Freq
 --------------------------------------------------------------------

 Structure from the checkpoint file:  "JID_10922.chk"
 -------------------------------
 CID_45799254_JID_10922_neutraal
 -------------------------------
 Charge =  0 Multiplicity = 1

 SCF Done:  E(RB3LYP) =  -879.379225402     A.U. after    1 cycles

  Exact polarizability: 207.807  22.817 163.600  29.602   2.910 173.009
 Approx polarizability: 278.482  34.889 280.999  50.572   2.892 316.762

                      1                      2                      3
                      A                      A                      A
 Frequencies --     22.3168                22.5203                33.3342
 Red. masses --      4.9022                 7.2188                 4.1596
 Frc consts  --      0.0014                 0.0022                 0.0027
 IR Inten    --      1.0388                 1.4981                 2.5648

                      4                      5                      6
                      A                      A                      A
 Frequencies --     50.5107                76.7723                82.4479
 Red. masses --      4.5647                 4.5390                 5.6175
 Frc consts  --      0.0069                 0.0158                 0.0225
 IR Inten    --      3.1672                 4.9968                 2.5856

                      7                      8                      9
                      A                      A                      A
 Frequencies --    109.1587               149.4003               167.4390
 Red. masses --      4.4268                 5.5779                 4.9377
 Frc consts  --      0.0311                 0.0734                 0.0816
 IR Inten    --      0.8113                 0.6279                 4.0100

                     10                     11                     12
                      A                      A                      A
 Frequencies --    202.5224               249.9746               256.7296
 Red. masses --      4.3535                 1.2922                 2.5046
 Frc consts  --      0.1052                 0.0476                 0.0973
 IR Inten    --      5.5994                 0.8815                 0.5251

                     13                     14                     15
                      A                      A                      A
 Frequencies --    263.6407               315.4506               343.1026
 Red. masses --      4.6638                 3.5226                 3.9175
 Frc consts  --      0.1910                 0.2065                 0.2717
 IR Inten    --      1.4102                 3.9076                 2.3117

                     16                     17                     18
                      A                      A                      A
 Frequencies --    358.5702               384.6695               409.2600
 Red. masses --      4.0490                 4.6811                 3.1423
 Frc consts  --      0.3067                 0.4081                 0.3101
 IR Inten    --      1.3874                 3.7988                 7.7732

                     19                     20                     21
                      A                      A                      A
 Frequencies --    418.1818               429.1518               434.4277
 Red. masses --      2.5969                 1.4533                 2.7807
 Frc consts  --      0.2676                 0.1577                 0.3092
 IR Inten    --     24.1347               125.8577                21.8490

                     22                     23                     24
                      A                      A                      A
 Frequencies --    478.8435               508.8098               546.3945
 Red. masses --      3.1588                 3.7922                 2.1012
 Frc consts  --      0.4267                 0.5784                 0.3696
 IR Inten    --     27.3491                 7.0610                34.3438

                     25                     26                     27
                      A                      A                      A
 Frequencies --    548.3721               570.7748               584.1522
 Red. masses --      3.1383                 2.1377                 2.4298
 Frc consts  --      0.5560                 0.4103                 0.4885
 IR Inten    --      6.5233                33.0579                31.6856

                     28                     29                     30
                      A                      A                      A
 Frequencies --    596.8339               605.0209               616.4798
 Red. masses --      3.7123                 3.5665                 3.1054
 Frc consts  --      0.7791                 0.7692                 0.6953
 IR Inten    --      4.1142                 9.7325                12.9710

                     31                     32                     33
                      A                      A                      A
 Frequencies --    654.7291               677.5672               712.2702
 Red. masses --      6.5272                 2.0807                 3.7113
 Frc consts  --      1.6486                 0.5628                 1.1094
 IR Inten    --      1.1170                41.2560                 9.9574

                     34                     35                     36
                      A                      A                      A
 Frequencies --    722.5523               737.2470               757.9846
 Red. masses --      3.0984                 2.4978                 3.4080
 Frc consts  --      0.9531                 0.7999                 1.1537
 IR Inten    --     48.3820                97.8037                 7.7025

                     37                     38                     39
                      A                      A                      A
 Frequencies --    775.5669               787.9436               830.9478
 Red. masses --      1.3704                 4.0094                 4.3018
 Frc consts  --      0.4857                 1.4666                 1.7500
 IR Inten    --     21.5024                21.7251                 6.9211

                     40                     41                     42
                      A                      A                      A
 Frequencies --    838.1146               862.0458               868.4242
 Red. masses --      3.4089                 1.4168                 1.4543
 Frc consts  --      1.4108                 0.6203                 0.6462
 IR Inten    --      9.7190                 1.3714                 0.2515

                     43                     44                     45
                      A                      A                      A
 Frequencies --    884.6428               964.9063               965.8252
 Red. masses --      1.8298                 1.3258                 1.3378
 Frc consts  --      0.8437                 0.7273                 0.7352
 IR Inten    --     18.6271                 0.5585                 1.9367

                     46                     47                     48
                      A                      A                      A
 Frequencies --    979.8415               985.3251               990.0636
 Red. masses --      2.2220                 1.4179                 1.7201
 Frc consts  --      1.2569                 0.8111                 0.9934
 IR Inten    --     24.1471                 2.0399                 5.6320

                     49                     50                     51
                      A                      A                      A
 Frequencies --    998.3111              1042.2978              1050.1176
 Red. masses --      1.3547                 3.0610                 1.8666
 Frc consts  --      0.7955                 1.9593                 1.2127
 IR Inten    --      0.0258                 6.1425                 1.7437

                     52                     53                     54
                      A                      A                      A
 Frequencies --   1061.3169              1075.9034              1094.5366
 Red. masses --      3.8913                 3.0270                 1.9895
 Frc consts  --      2.5825                 2.0645                 1.4043
 IR Inten    --     22.5637                 2.3875                 4.1838

                     55                     56                     57
                      A                      A                      A
 Frequencies --   1104.2152              1147.4197              1153.1078
 Red. masses --      1.9513                 1.6710                 2.1908
 Frc consts  --      1.4018                 1.2962                 1.7163
 IR Inten    --      9.7243                 2.4060                 6.8500

                     58                     59                     60
                      A                      A                      A
 Frequencies --   1158.7531              1197.6053              1220.8786
 Red. masses --      1.6002                 1.0899                 1.1554
 Frc consts  --      1.2659                 0.9210                 1.0147
 IR Inten    --     19.5497                 8.1379                 7.9274

                     61                     62                     63
                      A                      A                      A
 Frequencies --   1231.6331              1246.3754              1267.0139
 Red. masses --      2.6412                 1.5977                 1.9385
 Frc consts  --      2.3605                 1.4623                 1.8335
 IR Inten    --     18.2830                41.1127                38.5195

                     64                     65                     66
                      A                      A                      A
 Frequencies --   1281.7085              1341.2054              1349.0522
 Red. masses --      2.4846                 1.7780                 1.4990
 Frc consts  --      2.4049                 1.8844                 1.6074
 IR Inten    --     96.4589                87.5244                 0.9254

                     67                     68                     69
                      A                      A                      A
 Frequencies --   1355.1591              1368.1714              1381.9638
 Red. masses --      7.1188                 2.9041                 3.8693
 Frc consts  --      7.7026                 3.2029                 4.3538
 IR Inten    --      6.4286                46.3707               217.5242

                     70                     71                     72
                      A                      A                      A
 Frequencies --   1395.8611              1411.0220              1461.5222
 Red. masses --      1.4300                 1.2807                 2.6642
 Frc consts  --      1.6416                 1.5023                 3.3529
 IR Inten    --      6.8263                18.0140                24.5798

                     73                     74                     75
                      A                      A                      A
 Frequencies --   1487.8170              1505.6529              1510.6057
 Red. masses --      1.9312                 1.2082                 1.4961
 Frc consts  --      2.5187                 1.6137                 2.0115
 IR Inten    --     26.5190                19.9788                42.4457

                     76                     77                     78
                      A                      A                      A
 Frequencies --   1519.0909              1522.4072              1553.0355
 Red. masses --      1.1200                 1.1939                 1.8156
 Frc consts  --      1.5227                 1.6304                 2.5801
 IR Inten    --      7.9780                20.6093                65.2461

                     79                     80                     81
                      A                      A                      A
 Frequencies --   1559.7611              1628.1740              1634.1080
 Red. masses --      2.3537                 6.3980                 4.2502
 Frc consts  --      3.3738                 9.9930                 6.6868
 IR Inten    --      5.5161                 5.2171                49.0341

                     82                     83                     84
                      A                      A                      A
 Frequencies --   1647.6086              1663.3044              1672.2011
 Red. masses --      1.2458                 5.5029                 5.7255
 Frc consts  --      1.9925                 8.9699                 9.4327
 IR Inten    --    148.4305                77.8745                23.9850

                     85                     86                     87
                      A                      A                      A
 Frequencies --   1760.7887              1790.7918              3039.5339
 Red. masses --     10.7152                 8.3832                 1.0494
 Frc consts  --     19.5734                15.8398                 5.7120
 IR Inten    --    213.4274               250.3412                 5.2961

                     88                     89                     90
                      A                      A                      A
 Frequencies --   3082.4376              3125.2194              3137.9834
 Red. masses --      1.0653                 1.0839                 1.1001
 Frc consts  --      5.9639                 6.2374                 6.3825
 IR Inten    --     38.9973                 5.8728                11.2088

                     91                     92                     93
                      A                      A                      A
 Frequencies --   3170.8654              3177.5926              3188.4814
 Red. masses --      1.1047                 1.0880                 1.0861
 Frc consts  --      6.5442                 6.4727                 6.5059
 IR Inten    --      4.6351                11.9459                 6.0827

                     94                     95                     96
                      A                      A                      A
 Frequencies --   3202.1961              3205.0947              3206.5440
 Red. masses --      1.0925                 1.0896                 1.0895
 Frc consts  --      6.6005                 6.5949                 6.5998
 IR Inten    --     19.7390                 2.2217                17.1358

                     97                     98                     99
                      A                      A                      A
 Frequencies --   3213.9106              3229.1572              3230.1084
 Red. masses --      1.0941                 1.0935                 1.0929
 Frc consts  --      6.6582                 6.7184                 6.7184
 IR Inten    --     16.8125                 8.1429                 1.6558

                    100                    101                    102
                      A                      A                      A
 Frequencies --   3578.3282              3632.2994              3696.6431
 Red. masses --      1.0461                 1.0737                 1.1023
 Frc consts  --      7.8920                 8.3462                 8.8746
 IR Inten    --     35.6601                12.4899                26.4174

 - Thermochemistry -
 -------------------
 Temperature   298.150 Kelvin.  Pressure   1.00000 Atm.
 Atom     1 has atomic number  6 and mass  12.00000

 Molecular mass:   268.12118 amu.
 Principal axes and moments of inertia in atomic units:
                           1         2         3
     Eigenvalues --  3217.319609497.241019917.28453
           X            0.99982   0.01295   0.01376
           Y           -0.01324   0.99969   0.02089
           Z           -0.01348  -0.02107   0.99969
 This molecule is an asymmetric top.
 Rotational symmetry number  1.
 Warning -- assumption of classical behavior for rotation
           may cause significant error
 Rotational temperatures (Kelvin)      0.02692     0.00912     0.00873
 Rotational constants (GHZ):           0.56095     0.19003     0.18198
 Zero-point vibrational energy     770384.0 (Joules/Mol)
                                  184.12620 (Kcal/Mol)
 Warning -- explicit consideration of  30 degrees of freedom as
           vibrations may cause significant error
 Vibrational temperatures:     32.11    32.40    47.96    72.67   110.46
          (Kelvin)            118.62   157.06   214.95   240.91   291.38
                              359.66   369.38   379.32   453.86   493.65
                              515.90   553.45   588.83   601.67   617.45
                              625.04   688.95   732.06   786.14   788.99
                              821.22   840.46   858.71   870.49   886.98
                              942.01   974.87  1024.80  1039.59  1060.73
                             1090.57  1115.87  1133.68  1195.55  1205.86
                             1240.29  1249.47  1272.80  1388.28  1389.61
                             1409.77  1417.66  1424.48  1436.35  1499.63
                             1510.88  1527.00  1547.99  1574.79  1588.72
                             1650.88  1659.06  1667.19  1723.09  1756.57
                             1772.05  1793.26  1822.95  1844.09  1929.70
                             1940.99  1949.77  1968.49  1988.34  2008.33
                             2030.15  2102.80  2140.64  2166.30  2173.42
                             2185.63  2190.40  2234.47  2244.15  2342.58
                             2351.12  2370.54  2393.12  2405.92  2533.38
                             2576.55  4373.21  4434.94  4496.49  4514.86
                             4562.17  4571.85  4587.51  4607.25  4611.42
                             4613.50  4624.10  4646.04  4647.41  5148.42
                             5226.07  5318.64

 Zero-point correction=                           0.293424 (Hartree/Particle)
 Thermal correction to Energy=                    0.311322
 Thermal correction to Enthalpy=                  0.312267
 Thermal correction to Gibbs Free Energy=         0.245257
 Sum of electronic and zero-point Energies=           -879.085802
 Sum of electronic and thermal Energies=              -879.067903
 Sum of electronic and thermal Enthalpies=            -879.066959
 Sum of electronic and thermal Free Energies=         -879.133968

                     E (Thermal)             CV                S
                      KCal/Mol        Cal/Mol-Kelvin    Cal/Mol-Kelvin
 Total                  195.358             69.378            141.033
 Electronic               0.000              0.000              0.000
 Translational            0.889              2.981             42.658
 Rotational               0.889              2.981             34.071
 Vibrational            193.580             63.417             64.304
 Vibration     1          0.593              1.985              6.417
 Vibration     2          0.593              1.985              6.399
 Vibration     3          0.594              1.983              5.620
 Vibration     4          0.595              1.977              4.797
 Vibration     5          0.599              1.965              3.972
 Vibration     6          0.600              1.961              3.832
 Vibration     7          0.606              1.942              3.284
 Vibration     8          0.618              1.903              2.680
 Vibration     9          0.624              1.883              2.464
 Vibration    10          0.639              1.836              2.110
 Vibration    11          0.663              1.763              1.731
 Vibration    12          0.666              1.751              1.684
 Vibration    13          0.670              1.740              1.638
 Vibration    14          0.703              1.644              1.334
 Vibration    15          0.722              1.589              1.198
 Vibration    16          0.733              1.558              1.128
 Vibration    17          0.754              1.503              1.021
 Vibration    18          0.774              1.450              0.929
 Vibration    19          0.781              1.431              0.898
 Vibration    20          0.791              1.407              0.861
 Vibration    21          0.795              1.395              0.844
 Vibration    22          0.835              1.297              0.713
 Vibration    23          0.864              1.230              0.636
 Vibration    24          0.902              1.148              0.552
 Vibration    25          0.904              1.143              0.548
 Vibration    26          0.927              1.094              0.503
 Vibration    27          0.941              1.066              0.478
 Vibration    28          0.955              1.039              0.455
 Vibration    29          0.964              1.021              0.441
 Vibration    30          0.976              0.997              0.422

 Optimization completed.
    -- Stationary point found.
 Normal termination of Gaussian 16 at Sun Dec 13 21:11:06 2020.

 ----------------------------------------------------------------------
 # B3LYP/6-311++G(d,p) empiricaldispersion=gd3bj scf=xqc pop=npa geom=c
 heck
 ----------------------------------------------------------------------

 ---------------------------------------
 CID_45799254_JID_10922_Energie_neutraal
 ---------------------------------------
 Structure from the checkpoint file:  "JID_10922.chk"
 Charge =  0 Multiplicity = 1

 SCF Done:  E(RB3LYP) =  -879.626773799     A.U. after   16 cycles
 Normal termination of Gaussian 16 at Sun Dec 13 21:19:56 2020.

 ----------------------------------------------------------------------
 # B3LYP/6-311++G(d,p) empiricaldispersion=gd3bj scf=xqc pop=npa geom=c
 heck
 ----------------------------------------------------------------------

 -------------------------------------
 CID_45799254_JID_10922_Energie_kation
 -------------------------------------
 Structure from the checkpoint file:  "JID_10922.chk"
 Charge =  1 Multiplicity = 2

 SCF Done:  E(UB3LYP) =  -879.341529167     A.U. after   25 cycles
 Normal termination of Gaussian 16 at Sun Dec 13 21:39:37 2020.
 Gaussian 16:  ES64L-G16RevA.03 25-Dec-2016

 ----------------------------------------------------------------------
 # B3LYP/6-311++G(d,p) empiricaldispersion=gd3bj scf=xqc pop=npa geom=c
 heck
 ----------------------------------------------------------------------

 ------------------------------------
 CID_45799254_JID_10922_Energie_anion
 ------------------------------------
 Structure from the checkpoint file:  "JID_10922.chk"
 Charge = -1 Multiplicity = 2

                         Standard orientation:
 ---------------------------------------------------------------------
 Center     Atomic      Atomic             Coordinates (Angstroms)
 Number     Number       Type             X           Y           Z
 ---------------------------------------------------------------------
      1          6           0       -0.685757    1.997114    1.286749
      2          6           0       -2.039044    1.987260    0.581801
      3          8           0       -2.634041    3.047578    0.447631
      4          6           0       -2.589050    0.734106   -0.029040
      5          6           0       -3.443129    0.939962   -1.130050
      6          6           0       -3.939791   -0.112601   -1.880614
      7          6           0       -3.607994   -1.420587   -1.509502
      8          6           0       -2.814800   -1.656193   -0.396758
      9          6           0       -2.296723   -0.594268    0.372305
     10          7           0       -1.600425   -0.894196    1.549295
     11          6           0       -0.518548   -1.889648    1.550367
     12          6           0        0.752379   -1.369161    0.911006
     13          6           0        0.850232   -1.240779   -0.483048
     14          6           0        1.976770   -0.669818   -1.062537
     15          6           0        3.029772   -0.205115   -0.263879
     16          6           0        2.945944   -0.349610    1.125719
     17          6           0        1.816314   -0.926549    1.703578
     18          6           0        4.210728    0.403766   -0.959638
     19          8           0        4.439680    0.203950   -2.145284
     20          7           0        5.039277    1.178280   -0.179175
     21          1           0       -0.266708    2.998722    1.165054
     22          1           0        0.009200    1.251883    0.893349
     23          1           0       -0.804088    1.835411    2.367263
     24          1           0       -3.672806    1.967456   -1.389783
     25          1           0       -4.573270    0.074729   -2.741784
     26          1           0       -3.989878   -2.264293   -2.077935
     27          1           0       -2.623800   -2.677723   -0.085573
     28          1           0       -1.337451   -0.074435    2.076170
     29          1           0       -0.330734   -2.169690    2.591763
     30          1           0       -0.869963   -2.788262    1.039651
     31          1           0        0.033318   -1.582113   -1.111556
     32          1           0        2.068258   -0.574122   -2.139014
     33          1           0        3.773597   -0.046403    1.760167
     34          1           0        1.761841   -1.037480    2.784103
     35          1           0        4.673853    1.627667    0.648055
     36          1           0        5.747718    1.690562   -0.688287
 ---------------------------------------------------------------------

 SCF Done:  E(UB3LYP) =  -879.644739468     A.U. after   28 cycles

 The electronic state is 2-A.
 Alpha  occ. eigenvalues --  -18.96792 -18.96169 -14.22397 -14.21085 -10.15001
 Alpha  occ. eigenvalues --  -10.11402 -10.10114 -10.09753 -10.06379 -10.06121
 Alpha  occ. eigenvalues --  -10.05801 -10.05795 -10.05668 -10.05563 -10.05558
 Alpha  occ. eigenvalues --  -10.05338 -10.05226 -10.05148 -10.05146 -10.05069
 Alpha  occ. eigenvalues --   -0.92074  -0.90071  -0.82623  -0.79618  -0.74494
 Alpha  occ. eigenvalues --   -0.72850  -0.66332  -0.64283  -0.63404  -0.62318
 Alpha  occ. eigenvalues --   -0.61045  -0.57447  -0.51355  -0.51197  -0.49730
 Alpha  occ. eigenvalues --   -0.47778  -0.45998  -0.44215  -0.43855  -0.39949
 Alpha  occ. eigenvalues --   -0.39421  -0.38027  -0.35856  -0.35507  -0.34893
 Alpha  occ. eigenvalues --   -0.33461  -0.32976  -0.32204  -0.31692  -0.31468
 Alpha  occ. eigenvalues --   -0.31084  -0.30533  -0.29842  -0.29163  -0.27990
 Alpha  occ. eigenvalues --   -0.27598  -0.26278  -0.25528  -0.24378  -0.24268
 Alpha  occ. eigenvalues --   -0.23158  -0.22882  -0.22583  -0.18446  -0.17327
 Alpha  occ. eigenvalues --   -0.14891  -0.14518  -0.14044  -0.13972  -0.11929
 Alpha  occ. eigenvalues --   -0.09688   0.03135
 Alpha virt. eigenvalues --    0.05549   0.06745   0.07745   0.08188   0.09166
 Alpha virt. eigenvalues --    0.09340   0.09827   0.10263   0.10529   0.10915
 Alpha virt. eigenvalues --    0.11333   0.12055   0.12479   0.12972   0.13433

  Beta  occ. eigenvalues --  -18.96621 -18.95878 -14.22376 -14.21071 -10.14877
  Beta  occ. eigenvalues --  -10.11195 -10.10124 -10.09633 -10.06429 -10.06001
  Beta  occ. eigenvalues --  -10.05658 -10.05651 -10.05594 -10.05561 -10.05402
  Beta  occ. eigenvalues --  -10.05306 -10.05199 -10.05163 -10.05134 -10.05006
  Beta  occ. eigenvalues --   -0.91773  -0.89531  -0.82521  -0.79492  -0.74253
  Beta  occ. eigenvalues --   -0.72696  -0.66003  -0.63978  -0.63217  -0.62155
  Beta  occ. eigenvalues --   -0.60907  -0.57272  -0.51046  -0.50869  -0.49583
  Beta  occ. eigenvalues --   -0.47692  -0.45808  -0.43991  -0.43787  -0.39751
  Beta  occ. eigenvalues --   -0.39317  -0.37853  -0.35677  -0.35324  -0.34749
  Beta  occ. eigenvalues --   -0.33299  -0.32828  -0.32003  -0.31571  -0.31111
  Beta  occ. eigenvalues --   -0.31023  -0.30105  -0.29363  -0.29009  -0.27795
  Beta  occ. eigenvalues --   -0.27456  -0.25956  -0.25217  -0.24181  -0.23969
  Beta  occ. eigenvalues --   -0.22920  -0.22698  -0.21578  -0.18119  -0.16787
  Beta  occ. eigenvalues --   -0.14545  -0.13935  -0.13381  -0.13029  -0.11638
  Beta  occ. eigenvalues --   -0.09380
  Beta virt. eigenvalues --    0.06692   0.07245   0.07710   0.07873   0.08151
  Beta virt. eigenvalues --    0.09165   0.09447   0.09820   0.10224   0.10667
  Beta virt. eigenvalues --    0.10982   0.11362   0.12091   0.12436   0.12948

 Mulliken charges and spin densities:
               1          2
     1  C   -0.564023  -0.020392
     2  C   -0.300289   0.147984
     3  O   -0.330956   0.102461
     4  C    0.658274   0.004376
     5  C   -0.187396   0.079118
     6  C   -0.494580  -0.012305
     7  C   -0.312635   0.150357
     8  C   -0.109199  -0.028860
     9  C   -0.058264   0.026992
    10  N    0.165598   0.008360
    11  C   -0.956474  -0.007488
    12  C    0.880212   0.113116
    13  C   -0.436005   0.035135
    14  C   -0.404054   0.047127
    15  C    0.700178   0.036076
    16  C   -0.555834   0.122417
    17  C   -0.312416  -0.019012
    18  C   -0.211441   0.082701
    19  O   -0.386993   0.061272
    20  N   -0.378030   0.010422
    21  H    0.160436   0.007545
    22  H    0.147611  -0.002605
    23  H    0.131034   0.013403
    24  H    0.192441  -0.002193
    25  H    0.118394   0.000752
    26  H    0.126984  -0.005205
    27  H    0.112364   0.006398
    28  H    0.250857  -0.004224
    29  H    0.140310  -0.000622
    30  H    0.105254   0.026408
    31  H    0.167427   0.007010
    32  H    0.208041  -0.000245
    33  H    0.129350  -0.006537
    34  H    0.118470   0.006253
    35  H    0.193393   0.012917
    36  H    0.291962   0.001090
 Sum of Mulliken charges =  -1.00000   1.00000

 Dipole moment (field-independent basis, Debye):
    X=              0.9925    Y=             -2.2992    Z=              3.8203  Tot=              4.5679
 Quadrupole moment (field-independent basis, Debye-Ang):
   XX=           -183.3118   YY=           -142.0213   ZZ=           -133.7504
   XY=             21.5324   XZ=             18.6885   YZ=             -0.8312

 Summary of Natural Population Analysis:

                                       Natural Population
                Natural  -----------------------------------------------
    Atom  No    Charge         Core      Valence    Rydberg      Total
 -----------------------------------------------------------------------
      C    1   -0.33780      0.99963     2.33312    0.00505     3.33780
      C    2    0.29888      0.99965     1.68179    0.01968     2.70112
      O    3   -0.27651      0.99988     3.26963    0.00700     4.27651
      C    4   -0.08186      0.99944     2.07092    0.01150     3.08186
      C    5   -0.05814      0.99955     2.05006    0.00853     3.05814
      C    6   -0.13508      0.99957     2.12596    0.00955     3.13508
      C    7   -0.06408      0.99958     2.05556    0.00895     3.06408
      C    8   -0.13866      0.99953     2.13133    0.00781     3.13866
      C    9    0.11951      0.99946     1.86945    0.01157     2.88049
      N   10   -0.31890      0.99969     2.80736    0.01184     3.81890
      C   11   -0.08839      0.99958     2.07882    0.00999     3.08839
      C   12    0.01066      0.99950     1.97912    0.01072     2.98934
      C   13   -0.09917      0.99952     2.09187    0.00778     3.09917
      C   14   -0.07311      0.99954     2.06507    0.00850     3.07311
      C   15   -0.05148      0.99946     2.04006    0.01195     3.05148
      C   16   -0.07462      0.99955     2.06699    0.00808     3.07462
      C   17   -0.11790      0.99952     2.10997    0.00840     3.11790
      C   18    0.34738      0.99966     1.63124    0.02172     2.65262
      O   19   -0.31056      0.99988     3.30407    0.00661     4.31056
      N   20   -0.41089      0.99971     2.90396    0.00722     3.91089
      H   21    0.10905      0.00000     0.38976    0.00119     0.39095
      H   22    0.11355      0.00000     0.38537    0.00107     0.38645
      H   23    0.09903      0.00000     0.40009    0.00088     0.40097
      H   24    0.10778      0.00000     0.39110    0.00112     0.39222
      H   25    0.09387      0.00000     0.40513    0.00100     0.40613
      H   26    0.09093      0.00000     0.40814    0.00094     0.40907
      H   27    0.09549      0.00000     0.40303    0.00147     0.40451
      H   28    0.18646      0.00000     0.31185    0.00169     0.31354
      H   29    0.09248      0.00000     0.40658    0.00094     0.40752
      H   30    0.09755      0.00000     0.40132    0.00113     0.40245
      H   31    0.10350      0.00000     0.39531    0.00119     0.39650
      H   32    0.10888      0.00000     0.39012    0.00100     0.39112
      H   33    0.09269      0.00000     0.40584    0.00147     0.40731
      H   34    0.09266      0.00000     0.40600    0.00134     0.40734
      H   35    0.18868      0.00000     0.30994    0.00138     0.31132
      H   36    0.18811      0.00000     0.31015    0.00174     0.31189
 =======================================================================
   * Total *   -0.00000     19.99190    50.78608    0.22202    71.00000

 Normal termination of Gaussian 16 at Sun Dec 13 22:01:00 2020.
