 Gaussian 16, Revision A.03,

 -----------------------------------------------------------
 # opt freq B3LYP/6-31G(d) empiricaldispersion=gd3bj scf=xqc
 -----------------------------------------------------------

 -------------------------------
 CID_148890107_JID_2489_neutraal
 -------------------------------
 Symbolic Z-matrix:
 Charge =  0 Multiplicity = 1

 SCF Done:  E(RB3LYP) =  -487.829548994     A.U. after   13 cycles
 SCF Done:  E(RB3LYP) =  -487.831392431     A.U. after   11 cycles
 SCF Done:  E(RB3LYP) =  -487.831783764     A.U. after   10 cycles
 SCF Done:  E(RB3LYP) =  -487.832166674     A.U. after   11 cycles
 SCF Done:  E(RB3LYP) =  -487.832224845     A.U. after   10 cycles
 SCF Done:  E(RB3LYP) =  -487.832287594     A.U. after    9 cycles
 SCF Done:  E(RB3LYP) =  -487.832316616     A.U. after    9 cycles
 SCF Done:  E(RB3LYP) =  -487.832329571     A.U. after    9 cycles
 SCF Done:  E(RB3LYP) =  -487.832332649     A.U. after    8 cycles
 SCF Done:  E(RB3LYP) =  -487.832331934     A.U. after    9 cycles
 SCF Done:  E(RB3LYP) =  -487.832334209     A.U. after    8 cycles
 SCF Done:  E(RB3LYP) =  -487.832334163     A.U. after    7 cycles
 SCF Done:  E(RB3LYP) =  -487.832334363     A.U. after    7 cycles
 Optimization completed.
    -- Stationary point found.
 Normal termination of Gaussian 16 at Wed Dec  9 17:30:24 2020.

 --------------------------------------------------------------------
 #N Geom=AllCheck Guess=TCheck SCRF=Check GenChk RB3LYP/6-31G(d) Freq
 --------------------------------------------------------------------

 Structure from the checkpoint file:  "JID_2489.chk"
 -------------------------------
 CID_148890107_JID_2489_neutraal
 -------------------------------
 Charge =  0 Multiplicity = 1

 SCF Done:  E(RB3LYP) =  -487.832334363     A.U. after    1 cycles

  Exact polarizability: 142.699  -0.340 113.283   0.553   1.401 106.628
 Approx polarizability: 166.835   0.987 163.663   1.272   2.400 160.746

                      1                      2                      3
                      A                      A                      A
 Frequencies --     40.4103                56.6269                87.3806
 Red. masses --      3.1014                 2.1692                 2.4293
 Frc consts  --      0.0030                 0.0041                 0.0109
 IR Inten    --      0.1315                 0.0809                 0.1469

                      4                      5                      6
                      A                      A                      A
 Frequencies --    122.7704               143.1757               166.6983
 Red. masses --      3.1777                 2.3901                 2.2602
 Frc consts  --      0.0282                 0.0289                 0.0370
 IR Inten    --      0.0841                 0.3401                 0.0388

                      7                      8                      9
                      A                      A                      A
 Frequencies --    203.2008               219.7439               226.1031
 Red. masses --      1.2212                 1.9451                 1.2291
 Frc consts  --      0.0297                 0.0553                 0.0370
 IR Inten    --      0.2941                 0.5167                 0.2593

                     10                     11                     12
                      A                      A                      A
 Frequencies --    239.6426               250.6171               262.4038
 Red. masses --      1.8040                 1.3041                 1.4445
 Frc consts  --      0.0610                 0.0483                 0.0586
 IR Inten    --      1.1831                 0.2116                 0.3912

                     13                     14                     15
                      A                      A                      A
 Frequencies --    290.2231               333.7332               347.7570
 Red. masses --      1.5814                 2.2484                 2.1596
 Frc consts  --      0.0785                 0.1475                 0.1539
 IR Inten    --      0.1385                 1.5254                 0.3273

                     16                     17                     18
                      A                      A                      A
 Frequencies --    392.8737               430.9486               445.2517
 Red. masses --      2.0636                 2.6470                 2.9643
 Frc consts  --      0.1877                 0.2896                 0.3462
 IR Inten    --      0.1230                 1.1276                 5.6978

                     19                     20                     21
                      A                      A                      A
 Frequencies --    490.3569               506.2267               604.6660
 Red. masses --      2.2611                 2.3347                 2.4431
 Frc consts  --      0.3203                 0.3525                 0.5263
 IR Inten    --      2.5498                 0.8388                 0.5114

                     22                     23                     24
                      A                      A                      A
 Frequencies --    664.7570               767.8188               789.5499
 Red. masses --      2.4695                 2.2572                 1.3403
 Frc consts  --      0.6430                 0.7840                 0.4923
 IR Inten    --      1.0993                 2.8428                 3.2256

                     25                     26                     27
                      A                      A                      A
 Frequencies --    825.4792               868.8880               887.4592
 Red. masses --      3.2193                 2.6480                 2.4381
 Frc consts  --      1.2925                 1.1779                 1.1314
 IR Inten    --      2.5479                 2.2992                 3.3342

                     28                     29                     30
                      A                      A                      A
 Frequencies --    904.0643               907.4270               932.4486
 Red. masses --      1.4628                 2.2598                 1.2543
 Frc consts  --      0.7044                 1.0963                 0.6425
 IR Inten    --      0.7608                 1.3659                 0.9285

                     31                     32                     33
                      A                      A                      A
 Frequencies --    952.6956               974.8419              1003.4451
 Red. masses --      1.3911                 1.5766                 1.3368
 Frc consts  --      0.7439                 0.8828                 0.7931
 IR Inten    --      0.3615                 0.3369                 2.4372

                     34                     35                     36
                      A                      A                      A
 Frequencies --   1007.3793              1032.3531              1054.2852
 Red. masses --      2.0089                 1.9842                 1.5941
 Frc consts  --      1.2011                 1.2459                 1.0440
 IR Inten    --      3.6371                 1.2671                 3.5724

                     37                     38                     39
                      A                      A                      A
 Frequencies --   1079.1610              1093.3838              1116.5801
 Red. masses --      1.6403                 1.8604                 2.2160
 Frc consts  --      1.1255                 1.3104                 1.6278
 IR Inten    --      1.8766                 0.7509                 2.3591

                     40                     41                     42
                      A                      A                      A
 Frequencies --   1124.8710              1142.0597              1152.5155
 Red. masses --      1.5837                 2.2634                 2.2328
 Frc consts  --      1.1807                 1.7394                 1.7474
 IR Inten    --      7.6794                 7.6466                17.4320

                     43                     44                     45
                      A                      A                      A
 Frequencies --   1174.3865              1188.1588              1221.7393
 Red. masses --      1.6757                 2.0549                 1.6862
 Frc consts  --      1.3616                 1.7092                 1.4829
 IR Inten    --      8.7170                 3.4372                19.5685

                     46                     47                     48
                      A                      A                      A
 Frequencies --   1229.6965              1239.8929              1269.5294
 Red. masses --      1.9486                 1.3798                 1.5747
 Frc consts  --      1.7361                 1.2498                 1.4953
 IR Inten    --     20.0750                 4.7243                10.1353

                     49                     50                     51
                      A                      A                      A
 Frequencies --   1282.7388              1305.6771              1315.5621
 Red. masses --      1.7402                 1.4981                 1.2298
 Frc consts  --      1.6871                 1.5048                 1.2541
 IR Inten    --     44.2688                 4.0953                 2.1653

                     52                     53                     54
                      A                      A                      A
 Frequencies --   1341.2084              1361.6739              1370.7663
 Red. masses --      1.2015                 1.3504                 1.3501
 Frc consts  --      1.2734                 1.4752                 1.4946
 IR Inten    --      2.0090                21.4308                 4.3599

                     55                     56                     57
                      A                      A                      A
 Frequencies --   1373.6437              1397.3405              1403.5752
 Red. masses --      1.3724                 1.3572                 1.3875
 Frc consts  --      1.5257                 1.5614                 1.6105
 IR Inten    --      8.5071                 7.3420                 7.0627

                     58                     59                     60
                      A                      A                      A
 Frequencies --   1410.2448              1420.2778              1423.7988
 Red. masses --      1.4430                 1.3241                 1.4511
 Frc consts  --      1.6909                 1.5736                 1.7332
 IR Inten    --      1.7955                12.8843                 3.4602

                     61                     62                     63
                      A                      A                      A
 Frequencies --   1425.5240              1443.3045              1445.2490
 Red. masses --      1.3388                 1.2727                 1.3353
 Frc consts  --      1.6029                 1.5621                 1.6433
 IR Inten    --      3.5991                13.5868                 7.6146

                     64                     65                     66
                      A                      A                      A
 Frequencies --   1445.2711              1512.5735              1516.0370
 Red. masses --      1.2926                 1.0750                 1.0457
 Frc consts  --      1.5908                 1.4491                 1.4161
 IR Inten    --     18.2541                 3.5742                 1.5748

                     67                     68                     69
                      A                      A                      A
 Frequencies --   1517.4917              1520.7126              1529.3172
 Red. masses --      1.0662                 1.0536                 1.0518
 Frc consts  --      1.4465                 1.4355                 1.4493
 IR Inten    --      1.2465                 0.1967                 6.7896

                     70                     71                     72
                      A                      A                      A
 Frequencies --   1530.7503              1531.7072              1537.2284
 Red. masses --      1.0504                 1.0522                 1.0539
 Frc consts  --      1.4502                 1.4544                 1.4674
 IR Inten    --      2.8057                 2.9441                 3.8728

                     73                     74                     75
                      A                      A                      A
 Frequencies --   1540.4888              1540.9080              1552.8284
 Red. masses --      1.0559                 1.0586                 1.0807
 Frc consts  --      1.4764                 1.4810                 1.5353
 IR Inten    --      1.9613                 7.6597                 0.8134

                     76                     77                     78
                      A                      A                      A
 Frequencies --   1565.0757              2925.5064              2996.4077
 Red. masses --      1.0886                 1.0733                 1.0630
 Frc consts  --      1.5711                 5.4122                 5.6235
 IR Inten    --      4.2774                77.7672                39.7299

                     79                     80                     81
                      A                      A                      A
 Frequencies --   3005.4678              3020.7688              3022.1840
 Red. masses --      1.0848                 1.0684                 1.0838
 Frc consts  --      5.7733                 5.7443                 5.8324
 IR Inten    --      9.3997                14.3254                22.1942

                     82                     83                     84
                      A                      A                      A
 Frequencies --   3026.1694              3029.4360              3047.8716
 Red. masses --      1.0890                 1.0675                 1.0361
 Frc consts  --      5.8756                 5.7720                 5.6706
 IR Inten    --     56.2562                34.2932                27.7690

                     85                     86                     87
                      A                      A                      A
 Frequencies --   3049.2419              3051.5210              3052.9498
 Red. masses --      1.0420                 1.0759                 1.0368
 Frc consts  --      5.7084                 5.9027                 5.6937
 IR Inten    --     20.7914                18.8545                27.6684

                     88                     89                     90
                      A                      A                      A
 Frequencies --   3057.0314              3057.8060              3068.1137
 Red. masses --      1.0636                 1.0806                 1.0964
 Frc consts  --      5.8564                 5.9531                 6.0809
 IR Inten    --     13.3776                57.7411                75.3108

                     91                     92                     93
                      A                      A                      A
 Frequencies --   3072.5627              3108.0397              3110.4229
 Red. masses --      1.0850                 1.1019                 1.1019
 Frc consts  --      6.0351                 6.2714                 6.2812
 IR Inten    --     43.3084                55.7684                 0.5423

                     94                     95                     96
                      A                      A                      A
 Frequencies --   3117.8625              3119.1917              3120.8209
 Red. masses --      1.1011                 1.0991                 1.1017
 Frc consts  --      6.3064                 6.3007                 6.3218
 IR Inten    --     77.2703                28.7454                42.5024

                     97                     98                     99
                      A                      A                      A
 Frequencies --   3130.2547              3133.1276              3138.5487
 Red. masses --      1.1029                 1.0995                 1.1017
 Frc consts  --      6.3674                 6.3594                 6.3941
 IR Inten    --     31.2468                50.5663                25.1773

 - Thermochemistry -
 -------------------
 Temperature   298.150 Kelvin.  Pressure   1.00000 Atm.
 Atom     1 has atomic number  6 and mass  12.00000

 Molecular mass:   169.18305 amu.
 Principal axes and moments of inertia in atomic units:
                           1         2         3
     Eigenvalues --   976.437243909.973504164.32418
           X            0.99997  -0.00730   0.00091
           Y            0.00730   0.99993  -0.00929
           Z           -0.00085   0.00930   0.99996
 This molecule is an asymmetric top.
 Rotational symmetry number  1.
 Warning -- assumption of classical behavior for rotation
           may cause significant error
 Rotational temperatures (Kelvin)      0.08870     0.02215     0.02080
 Rotational constants (GHZ):           1.84829     0.46157     0.43338
 Zero-point vibrational energy     864229.9 (Joules/Mol)
                                  206.55591 (Kcal/Mol)
 Warning -- explicit consideration of  21 degrees of freedom as
           vibrations may cause significant error
 Vibrational temperatures:     58.14    81.47   125.72   176.64   206.00
          (Kelvin)            239.84   292.36   316.16   325.31   344.79
                              360.58   377.54   417.57   480.17   500.34
                              565.26   620.04   640.62   705.51   728.35
                              869.98   956.44  1104.72  1135.99  1187.68
                             1250.14  1276.86  1300.75  1305.59  1341.59
                             1370.72  1402.58  1443.73  1449.39  1485.33
                             1516.88  1552.67  1573.14  1606.51  1618.44
                             1643.17  1658.21  1689.68  1709.50  1757.81
                             1769.26  1783.93  1826.57  1845.58  1878.58
                             1892.80  1929.70  1959.14  1972.23  1976.37
                             2010.46  2019.43  2029.03  2043.46  2048.53
                             2051.01  2076.59  2079.39  2079.42  2176.26
                             2181.24  2183.33  2187.97  2200.35  2202.41
                             2203.78  2211.73  2216.42  2217.02  2234.17
                             2251.79  4209.15  4311.16  4324.20  4346.21
                             4348.25  4353.98  4358.68  4385.21  4387.18
                             4390.46  4392.51  4398.39  4399.50  4414.33
                             4420.73  4471.78  4475.20  4485.91  4487.82
                             4490.17  4503.74  4507.87  4515.67

 Zero-point correction=                           0.329168 (Hartree/Particle)
 Thermal correction to Energy=                    0.343382
 Thermal correction to Enthalpy=                  0.344327
 Thermal correction to Gibbs Free Energy=         0.288749
 Sum of electronic and zero-point Energies=           -487.503167
 Sum of electronic and thermal Energies=              -487.488952
 Sum of electronic and thermal Enthalpies=            -487.488008
 Sum of electronic and thermal Free Energies=         -487.543585

                     E (Thermal)             CV                S
                      KCal/Mol        Cal/Mol-Kelvin    Cal/Mol-Kelvin
 Total                  215.476             53.987            116.972
 Electronic               0.000              0.000              0.000
 Translational            0.889              2.981             41.285
 Rotational               0.889              2.981             31.142
 Vibrational            213.698             48.025             44.545
 Vibration     1          0.594              1.981              5.239
 Vibration     2          0.596              1.975              4.571
 Vibration     3          0.601              1.958              3.718
 Vibration     4          0.610              1.930              3.056
 Vibration     5          0.616              1.910              2.761
 Vibration     6          0.624              1.883              2.472
 Vibration     7          0.639              1.835              2.104
 Vibration     8          0.647              1.811              1.961
 Vibration     9          0.650              1.801              1.910
 Vibration    10          0.657              1.780              1.806
 Vibration    11          0.663              1.762              1.726
 Vibration    12          0.670              1.742              1.646
 Vibration    13          0.686              1.692              1.473
 Vibration    14          0.715              1.608              1.242
 Vibration    15          0.725              1.580              1.176
 Vibration    16          0.760              1.485              0.989
 Vibration    17          0.792              1.403              0.856
 Vibration    18          0.805              1.371              0.810
 Vibration    19          0.846              1.271              0.683
 Vibration    20          0.861              1.236              0.643
 Vibration    21          0.963              1.022              0.442

 Optimization completed.
    -- Stationary point found.
 Normal termination of Gaussian 16 at Wed Dec  9 17:40:59 2020.

 ----------------------------------------------------------------------
 # B3LYP/6-311++G(d,p) empiricaldispersion=gd3bj scf=xqc pop=npa geom=c
 heck
 ----------------------------------------------------------------------

 ---------------------------------------
 CID_148890107_JID_2489_Energie_neutraal
 ---------------------------------------
 Structure from the checkpoint file:  "JID_2489.chk"
 Charge =  0 Multiplicity = 1

 SCF Done:  E(RB3LYP) =  -487.965875950     A.U. after   13 cycles
 Normal termination of Gaussian 16 at Wed Dec  9 17:47:07 2020.

 ----------------------------------------------------------------------
 # B3LYP/6-311++G(d,p) empiricaldispersion=gd3bj scf=xqc pop=npa geom=c
 heck
 ----------------------------------------------------------------------

 -------------------------------------
 CID_148890107_JID_2489_Energie_kation
 -------------------------------------
 Structure from the checkpoint file:  "JID_2489.chk"
 Charge =  1 Multiplicity = 2

 SCF Done:  E(UB3LYP) =  -487.693160155     A.U. after   17 cycles
 Normal termination of Gaussian 16 at Wed Dec  9 17:56:42 2020.
 Gaussian 16:  ES64L-G16RevA.03 25-Dec-2016

 ----------------------------------------------------------------------
 # B3LYP/6-311++G(d,p) empiricaldispersion=gd3bj scf=xqc pop=npa geom=c
 heck
 ----------------------------------------------------------------------

 ------------------------------------
 CID_148890107_JID_2489_Energie_anion
 ------------------------------------
 Structure from the checkpoint file:  "JID_2489.chk"
 Charge = -1 Multiplicity = 2

                         Standard orientation:
 ---------------------------------------------------------------------
 Center     Atomic      Atomic             Coordinates (Angstroms)
 Number     Number       Type             X           Y           Z
 ---------------------------------------------------------------------
      1          6           0       -4.066290    0.126791    0.335160
      2          6           0       -3.314480   -1.197628    0.168823
      3          6           0       -1.971781   -1.115433   -0.574860
      4          6           0       -0.807429   -0.488252    0.201086
      5          6           0        0.565040   -0.795933   -0.445792
      6          7           0        1.406680    0.371366   -0.159349
      7          6           0        0.708926    1.231431    0.789347
      8          6           0       -0.765144    1.050048    0.401695
      9          6           0       -1.117345    1.861125   -0.848952
     10          6           0        2.834478    0.161931    0.060237
     11          6           0        3.175124   -0.683598    1.303451
     12          6           0        3.479730   -0.424206   -1.199216
     13          1           0       -3.506953    0.845403    0.941310
     14          1           0       -5.033867   -0.034695    0.824051
     15          1           0       -4.261322    0.593077   -0.637997
     16          1           0       -3.145106   -1.648187    1.157234
     17          1           0       -3.963984   -1.897608   -0.373509
     18          1           0       -1.672183   -2.140869   -0.833509
     19          1           0       -2.105099   -0.595353   -1.533088
     20          1           0       -0.802740   -0.932258    1.207243
     21          1           0        0.971567   -1.734625   -0.039297
     22          1           0        0.467517   -0.939058   -1.532017
     23          1           0        1.055679    2.268108    0.688260
     24          1           0        0.856588    0.936935    1.846691
     25          1           0       -1.415576    1.354679    1.228818
     26          1           0       -2.154011    1.702529   -1.159719
     27          1           0       -0.989178    2.932408   -0.655439
     28          1           0       -0.461207    1.593371   -1.683229
     29          1           0        3.257670    1.164431    0.216203
     30          1           0        2.819460   -1.714736    1.195046
     31          1           0        4.259615   -0.722925    1.456287
     32          1           0        2.724794   -0.263734    2.209129
     33          1           0        3.245712    0.195837   -2.070300
     34          1           0        4.568155   -0.481111   -1.088261
     35          1           0        3.112744   -1.438835   -1.394330
 ---------------------------------------------------------------------

 SCF Done:  E(UB3LYP) =  -487.949372178     A.U. after   27 cycles

 The electronic state is 2-A.
 Alpha  occ. eigenvalues --  -14.18999 -10.09744 -10.08366 -10.08317 -10.06985
 Alpha  occ. eigenvalues --  -10.06926 -10.06568 -10.06368 -10.05782 -10.05717
 Alpha  occ. eigenvalues --  -10.05462 -10.05297  -0.82775  -0.71895  -0.68312
 Alpha  occ. eigenvalues --   -0.64813  -0.63539  -0.58794  -0.57821  -0.56651
 Alpha  occ. eigenvalues --   -0.50976  -0.48422  -0.45059  -0.44227  -0.40535
 Alpha  occ. eigenvalues --   -0.36781  -0.35431  -0.34774  -0.34644  -0.32970
 Alpha  occ. eigenvalues --   -0.32575  -0.31424  -0.29989  -0.29676  -0.28658
 Alpha  occ. eigenvalues --   -0.28289  -0.27703  -0.26591  -0.26153  -0.24904
 Alpha  occ. eigenvalues --   -0.24629  -0.23806  -0.23026  -0.22879  -0.21332
 Alpha  occ. eigenvalues --   -0.20893  -0.20565  -0.10076   0.04493
 Alpha virt. eigenvalues --    0.06203   0.07255   0.07516   0.08098   0.08799
 Alpha virt. eigenvalues --    0.08925   0.10021   0.10153   0.10351   0.10863
 Alpha virt. eigenvalues --    0.11199   0.12156   0.12442   0.12937   0.13555

  Beta  occ. eigenvalues --  -14.18999 -10.09735 -10.08351 -10.08301 -10.06976
  Beta  occ. eigenvalues --  -10.06918 -10.06548 -10.06356 -10.05752 -10.05696
  Beta  occ. eigenvalues --  -10.05446 -10.05263  -0.82760  -0.71871  -0.68279
  Beta  occ. eigenvalues --   -0.64785  -0.63506  -0.58744  -0.57774  -0.56611
  Beta  occ. eigenvalues --   -0.50924  -0.48361  -0.45015  -0.44187  -0.40499
  Beta  occ. eigenvalues --   -0.36754  -0.35399  -0.34735  -0.34611  -0.32933
  Beta  occ. eigenvalues --   -0.32548  -0.31392  -0.29959  -0.29645  -0.28628
  Beta  occ. eigenvalues --   -0.28257  -0.27678  -0.26562  -0.26122  -0.24869
  Beta  occ. eigenvalues --   -0.24597  -0.23769  -0.22991  -0.22848  -0.21299
  Beta  occ. eigenvalues --   -0.20865  -0.20539  -0.10057
  Beta virt. eigenvalues --    0.06511   0.07133   0.07791   0.07980   0.08715
  Beta virt. eigenvalues --    0.09225   0.09302   0.10376   0.10438   0.10855
  Beta virt. eigenvalues --    0.11268   0.11594   0.12408   0.12770   0.13355

 Mulliken charges and spin densities:
               1          2
     1  C    0.909032  -1.465027
     2  C   -0.819386   0.518373
     3  C   -0.415312   0.077242
     4  C    1.336287  -0.949296
     5  C   -0.066508  -0.858615
     6  N    0.316061  -0.031238
     7  C   -0.004055  -0.733373
     8  C   -0.375133   0.801218
     9  C    0.345629  -0.984429
    10  C   -1.499651   1.571277
    11  C    1.440284  -1.937178
    12  C    0.147155  -0.725527
    13  H   -0.080836   0.205613
    14  H   -0.420054   0.569260
    15  H   -0.013575   0.141919
    16  H   -0.055100   0.169498
    17  H   -0.361845   0.520521
    18  H   -0.115287   0.266299
    19  H   -0.094006   0.234316
    20  H    0.121598   0.075469
    21  H    0.097629   0.031599
    22  H    0.074993   0.113915
    23  H    0.019273   0.146553
    24  H   -0.187077   0.285416
    25  H   -0.209322   0.443164
    26  H    0.131894  -0.016064
    27  H   -0.059229   0.188939
    28  H    0.040489   0.142504
    29  H   -0.217836   0.366859
    30  H   -0.234274   0.370142
    31  H   -0.303046   0.457878
    32  H   -0.109909   0.241082
    33  H    0.082347   0.054379
    34  H   -0.285215   0.430252
    35  H   -0.136015   0.277063
 Sum of Mulliken charges =  -1.00000   1.00000

 Dipole moment (field-independent basis, Debye):
    X=              0.1077    Y=              1.1468    Z=             -1.9460  Tot=              2.2613
 Quadrupole moment (field-independent basis, Debye-Ang):
   XX=           -172.4215   YY=           -117.6569   ZZ=           -116.1614
   XY=              1.1647   XZ=             -0.8819   YZ=             -0.7938

 Summary of Natural Population Analysis:

                                       Natural Population
                Natural  -----------------------------------------------
    Atom  No    Charge         Core      Valence    Rydberg      Total
 -----------------------------------------------------------------------
      C    1   -0.28584      0.99966     2.28085    0.00533     3.28584
      C    2   -0.18686      0.99964     2.17950    0.00773     3.18686
      C    3   -0.18850      0.99960     2.17887    0.01003     3.18850
      C    4   -0.11050      0.99958     2.09990    0.01102     3.11050
      C    5   -0.07949      0.99960     2.06907    0.01082     3.07949
      N    6   -0.29133      0.99971     2.77925    0.01237     3.79133
      C    7   -0.07599      0.99960     2.06498    0.01141     3.07599
      C    8   -0.11361      0.99958     2.10248    0.01155     3.11361
      C    9   -0.28856      0.99964     2.28338    0.00554     3.28856
      C   10   -0.00075      0.99961     1.98917    0.01197     3.00075
      C   11   -0.29739      0.99964     2.29240    0.00535     3.29739
      C   12   -0.28720      0.99965     2.28180    0.00576     3.28720
      H   13    0.09685      0.00000     0.40175    0.00140     0.40315
      H   14    0.09868      0.00000     0.40018    0.00114     0.40132
      H   15    0.09395      0.00000     0.40492    0.00113     0.40605
      H   16    0.09294      0.00000     0.40569    0.00137     0.40706
      H   17    0.09400      0.00000     0.40482    0.00118     0.40600
      H   18    0.09875      0.00000     0.40005    0.00120     0.40125
      H   19    0.09566      0.00000     0.40311    0.00123     0.40434
      H   20    0.09642      0.00000     0.40134    0.00225     0.40358
      H   21    0.09003      0.00000     0.40867    0.00129     0.40997
      H   22    0.08809      0.00000     0.41044    0.00147     0.41191
      H   23    0.09328      0.00000     0.40532    0.00139     0.40672
      H   24    0.08270      0.00000     0.41574    0.00156     0.41730
      H   25    0.09949      0.00000     0.39918    0.00133     0.40051
      H   26    0.09935      0.00000     0.39963    0.00101     0.40065
      H   27    0.09796      0.00000     0.40114    0.00090     0.40204
      H   28    0.10216      0.00000     0.39657    0.00127     0.39784
      H   29    0.09029      0.00000     0.40781    0.00191     0.40971
      H   30    0.09703      0.00000     0.40184    0.00113     0.40297
      H   31    0.10039      0.00000     0.39829    0.00132     0.39961
      H   32    0.10062      0.00000     0.39820    0.00118     0.39938
      H   33    0.10123      0.00000     0.39764    0.00113     0.39877
      H   34    0.09896      0.00000     0.40019    0.00085     0.40104
      H   35    0.09719      0.00000     0.40182    0.00099     0.40281
 =======================================================================
   * Total *    0.00000     11.99552    35.86597    0.13851    48.00000

 Normal termination of Gaussian 16 at Wed Dec  9 18:10:34 2020.
