 Gaussian 16, Revision A.03,

 -----------------------------------------------------------
 # opt freq B3LYP/6-31G(d) empiricaldispersion=gd3bj scf=xqc
 -----------------------------------------------------------

 ------------------------------
 CID_12124317_JID_8748_neutraal
 ------------------------------
 Symbolic Z-matrix:
 Charge =  0 Multiplicity = 1

 SCF Done:  E(RB3LYP) =  -842.858480973     A.U. after   15 cycles
 SCF Done:  E(RB3LYP) =  -842.867594280     A.U. after   13 cycles
 SCF Done:  E(RB3LYP) =  -842.869523134     A.U. after   13 cycles
 SCF Done:  E(RB3LYP) =  -842.868617326     A.U. after   15 cycles
 SCF Done:  E(RB3LYP) =  -842.870786315     A.U. after   12 cycles
 SCF Done:  E(RB3LYP) =  -842.870911182     A.U. after   12 cycles
 SCF Done:  E(RB3LYP) =  -842.870954401     A.U. after   11 cycles
 SCF Done:  E(RB3LYP) =  -842.870969364     A.U. after   10 cycles
 SCF Done:  E(RB3LYP) =  -842.870971494     A.U. after    9 cycles
 SCF Done:  E(RB3LYP) =  -842.870972766     A.U. after    8 cycles
 SCF Done:  E(RB3LYP) =  -842.870973040     A.U. after    8 cycles
 SCF Done:  E(RB3LYP) =  -842.870973139     A.U. after    7 cycles
 Optimization completed.
    -- Stationary point found.
 Normal termination of Gaussian 16 at Fri Dec 11 22:11:37 2020.

 --------------------------------------------------------------------
 #N Geom=AllCheck Guess=TCheck SCRF=Check GenChk RB3LYP/6-31G(d) Freq
 --------------------------------------------------------------------

 Structure from the checkpoint file:  "JID_8748.chk"
 ------------------------------
 CID_12124317_JID_8748_neutraal
 ------------------------------
 Charge =  0 Multiplicity = 1

 SCF Done:  E(RB3LYP) =  -842.870973139     A.U. after    1 cycles

  Exact polarizability: 252.609 -29.592 142.805  -1.486 -22.915 107.196
 Approx polarizability: 375.042 -66.808 233.031   5.312 -60.943 176.306

                      1                      2                      3
                      A                      A                      A
 Frequencies --     21.0981                38.0791                47.9279
 Red. masses --      4.3142                 4.1398                 5.6273
 Frc consts  --      0.0011                 0.0035                 0.0076
 IR Inten    --      0.9101                 0.4957                 1.4574

                      4                      5                      6
                      A                      A                      A
 Frequencies --     61.5605                95.6708               106.5697
 Red. masses --      4.4922                 3.4716                 4.5372
 Frc consts  --      0.0100                 0.0187                 0.0304
 IR Inten    --      4.7242                 0.3887                 2.0245

                      7                      8                      9
                      A                      A                      A
 Frequencies --    118.6098               138.3488               159.9247
 Red. masses --      3.2362                 1.2238                 4.5373
 Frc consts  --      0.0268                 0.0138                 0.0684
 IR Inten    --      2.1478                 0.3768                 0.5544

                     10                     11                     12
                      A                      A                      A
 Frequencies --    185.6035               219.9343               230.2764
 Red. masses --      3.7707                 3.6012                 4.1856
 Frc consts  --      0.0765                 0.1026                 0.1308
 IR Inten    --      4.0973                 2.4304                 2.9985

                     13                     14                     15
                      A                      A                      A
 Frequencies --    246.7060               296.8070               320.3342
 Red. masses --      1.2533                 3.7836                 5.1282
 Frc consts  --      0.0449                 0.1964                 0.3100
 IR Inten    --      0.0653                 3.5914                10.2524

                     16                     17                     18
                      A                      A                      A
 Frequencies --    328.5289               362.9593               422.8467
 Red. masses --      4.0790                 6.1959                 3.1497
 Frc consts  --      0.2594                 0.4809                 0.3318
 IR Inten    --     11.0903                 4.9837                 0.0283

                     19                     20                     21
                      A                      A                      A
 Frequencies --    433.3774               493.7634               503.2955
 Red. masses --      7.5329                 4.2142                 3.6104
 Frc consts  --      0.8336                 0.6053                 0.5388
 IR Inten    --      7.8247                 8.5438                 3.7856

                     22                     23                     24
                      A                      A                      A
 Frequencies --    517.8274               522.7241               585.3878
 Red. masses --      3.2434                 2.6663                 3.1259
 Frc consts  --      0.5124                 0.4292                 0.6311
 IR Inten    --      2.7400                 0.8749                 5.6156

                     25                     26                     27
                      A                      A                      A
 Frequencies --    602.5792               646.0330               677.1758
 Red. masses --      6.1570                 6.8574                 5.3420
 Frc consts  --      1.3172                 1.6862                 1.4433
 IR Inten    --     19.4552                 8.5117                 6.1107

                     28                     29                     30
                      A                      A                      A
 Frequencies --    721.7868               740.2504               786.5716
 Red. masses --      3.8904                 3.7257                 6.1980
 Frc consts  --      1.1942                 1.2029                 2.2593
 IR Inten    --      0.7933                 3.0788                 2.5691

                     31                     32                     33
                      A                      A                      A
 Frequencies --    809.1891               825.4066               840.3152
 Red. masses --      5.4245                 1.2771                 4.2410
 Frc consts  --      2.0927                 0.5126                 1.7644
 IR Inten    --      9.7939                 7.0098                 8.7983

                     34                     35                     36
                      A                      A                      A
 Frequencies --    852.7693               865.2341               884.4288
 Red. masses --      1.6882                 3.6910                 1.5531
 Frc consts  --      0.7233                 1.6280                 0.7158
 IR Inten    --     57.4308                20.3847                 4.4645

                     37                     38                     39
                      A                      A                      A
 Frequencies --    905.7455               957.4107               961.2692
 Red. masses --      5.5107                 2.2924                 1.3727
 Frc consts  --      2.6636                 1.2380                 0.7473
 IR Inten    --      3.0620                14.0323                 1.4026

                     40                     41                     42
                      A                      A                      A
 Frequencies --    967.0178              1002.1047              1032.9024
 Red. masses --      1.3040                 3.2321                 2.7183
 Frc consts  --      0.7185                 1.9123                 1.7087
 IR Inten    --      0.5658                 5.1232                 0.2835

                     43                     44                     45
                      A                      A                      A
 Frequencies --   1060.7194              1072.5899              1078.6631
 Red. masses --      2.9754                 4.8910                 5.5210
 Frc consts  --      1.9724                 3.3153                 3.7848
 IR Inten    --      9.5646                57.8908                71.1912

                     46                     47                     48
                      A                      A                      A
 Frequencies --   1154.8906              1185.5289              1185.7214
 Red. masses --      1.3320                 1.2709                 1.3144
 Frc consts  --      1.0468                 1.0524                 1.0888
 IR Inten    --      3.8108                 1.0533                35.7772

                     49                     50                     51
                      A                      A                      A
 Frequencies --   1188.0260              1212.3081              1220.1498
 Red. masses --      1.3186                 2.1192                 1.4009
 Frc consts  --      1.0965                 1.8350                 1.2288
 IR Inten    --     30.5178               233.6540                 9.8478

                     52                     53                     54
                      A                      A                      A
 Frequencies --   1220.7325              1226.7452              1256.6459
 Red. masses --      1.4312                 1.2719                 1.6457
 Frc consts  --      1.2566                 1.1278                 1.5312
 IR Inten    --     20.1295                61.9084                12.1319

                     55                     56                     57
                      A                      A                      A
 Frequencies --   1285.0140              1295.5817              1305.6553
 Red. masses --      1.9189                 3.0538                 2.6168
 Frc consts  --      1.8669                 3.0201                 2.6283
 IR Inten    --     32.6284               231.5514               165.0087

                     58                     59                     60
                      A                      A                      A
 Frequencies --   1316.6529              1334.6130              1338.5861
 Red. masses --      3.4160                 2.3411                 1.5449
 Frc consts  --      3.4891                 2.4568                 1.6310
 IR Inten    --    191.0733                90.0900                57.0407

                     61                     62                     63
                      A                      A                      A
 Frequencies --   1361.5079              1376.5376              1477.4787
 Red. masses --      1.3850                 5.8490                 3.0737
 Frc consts  --      1.5127                 6.5299                 3.9532
 IR Inten    --     37.6456                12.2219                48.7686

                     64                     65                     66
                      A                      A                      A
 Frequencies --   1484.6432              1494.6164              1500.5810
 Red. masses --      1.1033                 1.2060                 1.1986
 Frc consts  --      1.4328                 1.5873                 1.5902
 IR Inten    --      7.5361                10.2266                18.7247

                     67                     68                     69
                      A                      A                      A
 Frequencies --   1513.5296              1521.9449              1523.7797
 Red. masses --      1.0479                 1.0473                 1.0475
 Frc consts  --      1.4143                 1.4293                 1.4330
 IR Inten    --      5.6614                 6.5199                 7.4250

                     70                     71                     72
                      A                      A                      A
 Frequencies --   1534.1719              1570.2470              1618.3382
 Red. masses --      1.0623                 2.4490                 6.0033
 Frc consts  --      1.4731                 3.5578                 9.2636
 IR Inten    --     44.5003               123.8993               105.1373

                     73                     74                     75
                      A                      A                      A
 Frequencies --   1655.9567              1673.8660              1807.1427
 Red. masses --      7.3120                 5.6696                12.2834
 Frc consts  --     11.8136                 9.3593                23.6350
 IR Inten    --    252.2026               123.4290               472.5822

                     76                     77                     78
                      A                      A                      A
 Frequencies --   1818.0944              3033.8690              3078.0472
 Red. masses --     10.9820                 1.0343                 1.0296
 Frc consts  --     21.3877                 5.6093                 5.7476
 IR Inten    --    170.1857                61.1884                30.0716

                     79                     80                     81
                      A                      A                      A
 Frequencies --   3088.9544              3095.9902              3097.6105
 Red. masses --      1.0654                 1.1070                 1.0806
 Frc consts  --      5.9893                 6.2517                 6.1092
 IR Inten    --     14.1814                37.0613                 5.0058

                     82                     83                     84
                      A                      A                      A
 Frequencies --   3136.0115              3153.4269              3167.2084
 Red. masses --      1.1036                 1.1076                 1.1005
 Frc consts  --      6.3945                 6.4896                 6.5043
 IR Inten    --      5.5682                18.3950                25.4145

                     85                     86                     87
                      A                      A                      A
 Frequencies --   3188.2508              3207.6110              3223.5868
 Red. masses --      1.1071                 1.0874                 1.0940
 Frc consts  --      6.6307                 6.5918                 6.6978
 IR Inten    --     13.0881                 4.8701                 6.5220

                     88                     89                     90
                      A                      A                      A
 Frequencies --   3224.6614              3238.2698              3243.3891
 Red. masses --      1.0885                 1.0934                 1.0941
 Frc consts  --      6.6686                 6.7555                 6.7809
 IR Inten    --      4.8724                 7.1012                 6.1128

 - Thermochemistry -
 -------------------
 Temperature   298.150 Kelvin.  Pressure   1.00000 Atm.
 Atom     1 has atomic number  6 and mass  12.00000

 Molecular mass:   246.08921 amu.
 Principal axes and moments of inertia in atomic units:
                           1         2         3
     Eigenvalues --  2571.362847470.562339012.17676
           X            0.99999   0.00316   0.00417
           Y           -0.00321   0.99994   0.01076
           Z           -0.00414  -0.01077   0.99993
 This molecule is an asymmetric top.
 Rotational symmetry number  1.
 Warning -- assumption of classical behavior for rotation
           may cause significant error
 Rotational temperatures (Kelvin)      0.03368     0.01159     0.00961
 Rotational constants (GHZ):           0.70186     0.24158     0.20026
 Zero-point vibrational energy     673404.8 (Joules/Mol)
                                  160.94762 (Kcal/Mol)
 Warning -- explicit consideration of  25 degrees of freedom as
           vibrations may cause significant error
 Vibrational temperatures:     30.36    54.79    68.96    88.57   137.65
          (Kelvin)            153.33   170.65   199.05   230.10   267.04
                              316.44   331.32   354.95   427.04   460.89
                              472.68   522.22   608.38   623.53   710.42
                              724.13   745.04   752.08   842.24   866.98
                              929.50   974.30  1038.49  1065.06  1131.70
                             1164.24  1187.58  1209.03  1226.94  1244.88
                             1272.50  1303.17  1377.50  1383.05  1391.32
                             1441.81  1486.12  1526.14  1543.22  1551.96
                             1661.63  1705.71  1705.99  1709.30  1744.24
                             1755.52  1756.36  1765.01  1808.03  1848.85
                             1864.05  1878.55  1894.37  1920.21  1925.93
                             1958.91  1980.53  2125.76  2136.07  2150.42
                             2159.00  2177.63  2189.74  2192.38  2207.33
                             2259.24  2328.43  2382.55  2408.32  2600.08
                             2615.83  4365.06  4428.62  4444.32  4454.44
                             4456.77  4512.02  4537.08  4556.91  4587.18
                             4615.04  4638.02  4639.57  4659.15  4666.51

 Zero-point correction=                           0.256486 (Hartree/Particle)
 Thermal correction to Energy=                    0.273171
 Thermal correction to Enthalpy=                  0.274116
 Thermal correction to Gibbs Free Energy=         0.210112
 Sum of electronic and zero-point Energies=           -842.614487
 Sum of electronic and thermal Energies=              -842.597802
 Sum of electronic and thermal Enthalpies=            -842.596858
 Sum of electronic and thermal Free Energies=         -842.660862

                     E (Thermal)             CV                S
                      KCal/Mol        Cal/Mol-Kelvin    Cal/Mol-Kelvin
 Total                  171.418             61.675            134.708
 Electronic               0.000              0.000              0.000
 Translational            0.889              2.981             42.402
 Rotational               0.889              2.981             33.515
 Vibrational            169.640             55.714             58.791
 Vibration     1          0.593              1.985              6.528
 Vibration     2          0.594              1.982              5.357
 Vibration     3          0.595              1.978              4.901
 Vibration     4          0.597              1.973              4.407
 Vibration     5          0.603              1.952              3.541
 Vibration     6          0.605              1.944              3.330
 Vibration     7          0.609              1.934              3.123
 Vibration     8          0.614              1.915              2.827
 Vibration     9          0.622              1.891              2.551
 Vibration    10          0.632              1.860              2.271
 Vibration    11          0.647              1.811              1.960
 Vibration    12          0.652              1.795              1.877
 Vibration    13          0.661              1.768              1.754
 Vibration    14          0.690              1.680              1.435
 Vibration    15          0.706              1.635              1.308
 Vibration    16          0.712              1.618              1.267
 Vibration    17          0.737              1.549              1.109
 Vibration    18          0.785              1.421              0.882
 Vibration    19          0.794              1.397              0.848
 Vibration    20          0.849              1.264              0.674
 Vibration    21          0.859              1.243              0.650
 Vibration    22          0.873              1.211              0.615
 Vibration    23          0.878              1.200              0.604
 Vibration    24          0.942              1.063              0.475
 Vibration    25          0.961              1.026              0.445

                           ! Non-Optimized Parameters !
 Normal termination of Gaussian 16 at Fri Dec 11 22:23:18 2020.

 ----------------------------------------------------------------------
 # B3LYP/6-311++G(d,p) empiricaldispersion=gd3bj scf=xqc pop=npa geom=c
 heck
 ----------------------------------------------------------------------

 --------------------------------------
 CID_12124317_JID_8748_Energie_neutraal
 --------------------------------------
 Structure from the checkpoint file:  "JID_8748.chk"
 Charge =  0 Multiplicity = 1

 SCF Done:  E(RB3LYP) =  -843.106428902     A.U. after   16 cycles
 Normal termination of Gaussian 16 at Fri Dec 11 22:28:14 2020.

 ----------------------------------------------------------------------
 # B3LYP/6-311++G(d,p) empiricaldispersion=gd3bj scf=xqc pop=npa geom=c
 heck
 ----------------------------------------------------------------------

 ------------------------------------
 CID_12124317_JID_8748_Energie_kation
 ------------------------------------
 Structure from the checkpoint file:  "JID_8748.chk"
 Charge =  1 Multiplicity = 2

 SCF Done:  E(UB3LYP) =  -842.813000014     A.U. after   28 cycles
 Normal termination of Gaussian 16 at Fri Dec 11 22:40:00 2020.
 Gaussian 16:  ES64L-G16RevA.03 25-Dec-2016

 ----------------------------------------------------------------------
 # B3LYP/6-311++G(d,p) empiricaldispersion=gd3bj scf=xqc pop=npa geom=c
 heck
 ----------------------------------------------------------------------

 -----------------------------------
 CID_12124317_JID_8748_Energie_anion
 -----------------------------------
 Structure from the checkpoint file:  "JID_8748.chk"
 Charge = -1 Multiplicity = 2

                         Standard orientation:
 ---------------------------------------------------------------------
 Center     Atomic      Atomic             Coordinates (Angstroms)
 Number     Number       Type             X           Y           Z
 ---------------------------------------------------------------------
      1          6           0       -5.377810    0.579233   -0.350799
      2          8           0       -4.632652   -0.418078    0.333919
      3          6           0       -3.288382   -0.453635    0.147186
      4          6           0       -2.601186   -1.457026    0.852415
      5          6           0       -1.230543   -1.576638    0.730241
      6          6           0       -0.485939   -0.706053   -0.096192
      7          6           0       -1.190474    0.293238   -0.787227
      8          6           0       -2.573317    0.424233   -0.674318
      9          6           0        0.961539   -0.848198   -0.229389
     10          6           0        1.736395   -1.860603    0.223568
     11          6           0        3.150997   -1.655706   -0.104228
     12          8           0        4.087785   -2.386469    0.164110
     13          6           0        3.253619   -0.332523   -0.875046
     14          6           0        1.806106    0.204383   -0.956436
     15          6           0        1.655158    1.584943   -0.335666
     16          8           0        1.252428    2.570483   -0.916411
     17          8           0        2.029041    1.579166    0.958390
     18          6           0        1.910037    2.838529    1.639435
     19          1           0       -6.418015    0.425763   -0.060709
     20          1           0       -5.282015    0.472767   -1.438644
     21          1           0       -5.060693    1.587434   -0.055975
     22          1           0       -3.171610   -2.123082    1.491226
     23          1           0       -0.718606   -2.349793    1.293489
     24          1           0       -0.661835    0.993677   -1.423263
     25          1           0       -3.076078    1.209025   -1.226174
     26          1           0        1.401184   -2.744229    0.752832
     27          1           0        3.683255   -0.512283   -1.865115
     28          1           0        3.927859    0.344014   -0.343017
     29          1           0        1.473794    0.308151   -1.993199
     30          1           0        2.539370    3.593224    1.160985
     31          1           0        0.871685    3.179290    1.625968
     32          1           0        2.241698    2.650171    2.660259
 ---------------------------------------------------------------------

 SCF Done:  E(UB3LYP) =  -843.128772729     A.U. after   25 cycles

 The electronic state is 2-A.
 Alpha  occ. eigenvalues --  -19.06008 -19.04352 -19.00044 -18.92886 -10.18459
 Alpha  occ. eigenvalues --  -10.13319 -10.12937 -10.09813 -10.07709 -10.06260
 Alpha  occ. eigenvalues --  -10.04773 -10.04524 -10.04146 -10.04003 -10.03759
 Alpha  occ. eigenvalues --  -10.03675 -10.02607 -10.00022  -1.00019  -0.96187
 Alpha  occ. eigenvalues --   -0.91112  -0.86725  -0.73277  -0.70850  -0.64827
 Alpha  occ. eigenvalues --   -0.63491  -0.62329  -0.60011  -0.57619  -0.54592
 Alpha  occ. eigenvalues --   -0.48817  -0.48449  -0.46358  -0.42611  -0.42237
 Alpha  occ. eigenvalues --   -0.39849  -0.38546  -0.37917  -0.37432  -0.37139
 Alpha  occ. eigenvalues --   -0.36275  -0.34501  -0.33089  -0.32427  -0.31225
 Alpha  occ. eigenvalues --   -0.29968  -0.29258  -0.28645  -0.27893  -0.26921
 Alpha  occ. eigenvalues --   -0.26032  -0.25507  -0.25296  -0.24044  -0.23436
 Alpha  occ. eigenvalues --   -0.22245  -0.21891  -0.21034  -0.20153  -0.19859
 Alpha  occ. eigenvalues --   -0.17031  -0.14397  -0.13296  -0.08763  -0.08568
 Alpha  occ. eigenvalues --    0.03420
 Alpha virt. eigenvalues --    0.06578   0.07675   0.09264   0.09648   0.10097
 Alpha virt. eigenvalues --    0.10402   0.10779   0.11324   0.11506   0.11984
 Alpha virt. eigenvalues --    0.12245   0.12602   0.13065   0.13624   0.14017

  Beta  occ. eigenvalues --  -19.05996 -19.04272 -19.00043 -18.92517 -10.18422
  Beta  occ. eigenvalues --  -10.13322 -10.12938 -10.09507 -10.07547 -10.06287
  Beta  occ. eigenvalues --  -10.04866 -10.04622 -10.04161 -10.03829 -10.03677
  Beta  occ. eigenvalues --  -10.03551 -10.02176  -9.99880  -0.99994  -0.95987
  Beta  occ. eigenvalues --   -0.91099  -0.86072  -0.72941  -0.70554  -0.64593
  Beta  occ. eigenvalues --   -0.63355  -0.62146  -0.59804  -0.57315  -0.54342
  Beta  occ. eigenvalues --   -0.48640  -0.48034  -0.46280  -0.42326  -0.41936
  Beta  occ. eigenvalues --   -0.39652  -0.38446  -0.37859  -0.37215  -0.37047
  Beta  occ. eigenvalues --   -0.36140  -0.34267  -0.32975  -0.32254  -0.31147
  Beta  occ. eigenvalues --   -0.29868  -0.29163  -0.28469  -0.27617  -0.26284
  Beta  occ. eigenvalues --   -0.25787  -0.25268  -0.25111  -0.23846  -0.23233
  Beta  occ. eigenvalues --   -0.21696  -0.21193  -0.20663  -0.19751  -0.19274
  Beta  occ. eigenvalues --   -0.16867  -0.13171  -0.12520  -0.08360  -0.07112
  Beta virt. eigenvalues --    0.06568   0.07656   0.09194   0.09340   0.09630
  Beta virt. eigenvalues --    0.10081   0.10500   0.10996   0.11308   0.11539
  Beta virt. eigenvalues --    0.12179   0.12315   0.12619   0.13073   0.13712

 Mulliken charges and spin densities:
               1          2
     1  C   -0.334111  -0.003549
     2  O   -0.172600   0.013240
     3  C   -0.994610   0.193786
     4  C   -0.265105  -0.069613
     5  C   -0.351421   0.172764
     6  C    1.115504  -0.047889
     7  C   -0.724720   0.163132
     8  C   -0.267451  -0.070587
     9  C    0.718771   0.214182
    10  C   -0.199541   0.162703
    11  C   -0.486033   0.098982
    12  O   -0.413940   0.127943
    13  C   -0.452366   0.008327
    14  C    0.719052  -0.007763
    15  C   -0.544147  -0.003372
    16  O   -0.223878   0.003311
    17  O   -0.002180   0.001074
    18  C   -0.194273  -0.000209
    19  H    0.146855  -0.000337
    20  H    0.134114   0.003136
    21  H    0.133854   0.005563
    22  H    0.155429   0.004304
    23  H    0.096065  -0.009741
    24  H    0.130956  -0.006779
    25  H    0.169365   0.004226
    26  H    0.118723  -0.006750
    27  H    0.133638   0.006564
    28  H    0.149334   0.015127
    29  H    0.239585   0.027181
    30  H    0.157185   0.000500
    31  H    0.169224   0.000190
    32  H    0.138720   0.000355
 Sum of Mulliken charges =  -1.00000   1.00000

 Dipole moment (field-independent basis, Debye):
    X=             -6.2238    Y=              6.0376    Z=              0.4110  Tot=              8.6809
 Quadrupole moment (field-independent basis, Debye-Ang):
   XX=           -157.9498   YY=           -131.8712   ZZ=           -111.8912
   XY=             16.7402   XZ=              2.7143   YZ=              6.3812

 Summary of Natural Population Analysis:

                                       Natural Population
                Natural  -----------------------------------------------
    Atom  No    Charge         Core      Valence    Rydberg      Total
 -----------------------------------------------------------------------
      C    1   -0.10037      0.99962     2.09251    0.00825     3.10037
      O    2   -0.27086      0.99985     3.26064    0.01037     4.27086
      C    3    0.20424      0.99940     1.78469    0.01167     2.79576
      C    4   -0.15100      0.99954     2.14266    0.00880     3.15100
      C    5   -0.03932      0.99955     2.03160    0.00817     3.03932
      C    6   -0.07402      0.99954     2.05838    0.01611     3.07402
      C    7   -0.05321      0.99957     2.04444    0.00921     3.05321
      C    8   -0.17153      0.99945     2.16346    0.00862     3.17153
      C    9    0.15215      0.99948     1.83708    0.01129     2.84785
      C   10   -0.14378      0.99947     2.12933    0.01497     3.14378
      C   11    0.28209      0.99964     1.69594    0.02233     2.71791
      O   12   -0.28109      0.99987     3.27292    0.00830     4.28109
      C   13   -0.22393      0.99960     2.21677    0.00756     3.22393
      C   14   -0.17687      0.99956     2.16196    0.01534     3.17687
      C   15    0.42574      0.99966     1.54881    0.02579     2.57426
      O   16   -0.31959      0.99987     3.31324    0.00648     4.31959
      O   17   -0.27478      0.99985     3.26562    0.00931     4.27478
      C   18   -0.10601      0.99961     2.09804    0.00836     3.10601
      H   19    0.08628      0.00000     0.41289    0.00083     0.41372
      H   20    0.08093      0.00000     0.41741    0.00166     0.41907
      H   21    0.08108      0.00000     0.41724    0.00168     0.41892
      H   22    0.09830      0.00000     0.40065    0.00105     0.40170
      H   23    0.09566      0.00000     0.40302    0.00132     0.40434
      H   24    0.10405      0.00000     0.39503    0.00092     0.39595
      H   25    0.09751      0.00000     0.40172    0.00077     0.40249
      H   26    0.09542      0.00000     0.40291    0.00166     0.40458
      H   27    0.10360      0.00000     0.39529    0.00111     0.39640
      H   28    0.10540      0.00000     0.39335    0.00125     0.39460
      H   29    0.10979      0.00000     0.38858    0.00163     0.39021
      H   30    0.08653      0.00000     0.41232    0.00115     0.41347
      H   31    0.09120      0.00000     0.40771    0.00109     0.40880
      H   32    0.08866      0.00000     0.41057    0.00077     0.41134
 =======================================================================
   * Total *    0.00231     17.99313    46.77675    0.22781    64.99769

 Normal termination of Gaussian 16 at Fri Dec 11 22:50:38 2020.
