 Gaussian 16, Revision A.03,

 -----------------------------------------------------------
 # opt freq B3LYP/6-31G(d) empiricaldispersion=gd3bj scf=xqc
 -----------------------------------------------------------

 ------------------------------
 CID_150529474_JID_762_neutraal
 ------------------------------
 Symbolic Z-matrix:
 Charge =  0 Multiplicity = 1

 SCF Done:  E(RB3LYP) =  -872.153076769     A.U. after   15 cycles
 SCF Done:  E(RB3LYP) =  -872.158355744     A.U. after   12 cycles
 SCF Done:  E(RB3LYP) =  -872.159021427     A.U. after   12 cycles
 SCF Done:  E(RB3LYP) =  -872.158858173     A.U. after   12 cycles
 SCF Done:  E(RB3LYP) =  -872.159088871     A.U. after   11 cycles
 SCF Done:  E(RB3LYP) =  -872.159100218     A.U. after    9 cycles
 SCF Done:  E(RB3LYP) =  -872.159105332     A.U. after    9 cycles
 SCF Done:  E(RB3LYP) =  -872.159105732     A.U. after    8 cycles
 SCF Done:  E(RB3LYP) =  -872.159105857     A.U. after    8 cycles
 SCF Done:  E(RB3LYP) =  -872.159105983     A.U. after    8 cycles
 SCF Done:  E(RB3LYP) =  -872.159106187     A.U. after    8 cycles
 SCF Done:  E(RB3LYP) =  -872.159106331     A.U. after    8 cycles
 SCF Done:  E(RB3LYP) =  -872.159106441     A.U. after    8 cycles
 Optimization completed.
    -- Stationary point found.
 Normal termination of Gaussian 16 at Tue Dec  8 12:29:08 2020.

 --------------------------------------------------------------------
 #N Geom=AllCheck Guess=TCheck SCRF=Check GenChk RB3LYP/6-31G(d) Freq
 --------------------------------------------------------------------

 Structure from the checkpoint file:  "JID_762.chk"
 ------------------------------
 CID_150529474_JID_762_neutraal
 ------------------------------
 Charge =  0 Multiplicity = 1

 SCF Done:  E(RB3LYP) =  -872.159106441     A.U. after    1 cycles

  Exact polarizability: 115.295  -0.128  81.420  -0.019  -0.013  41.559
 Approx polarizability: 154.285  -4.580 161.674  -0.040  -0.013  62.894

                      1                      2                      3
                      A                      A                      A
 Frequencies --     27.6789                62.7838               125.7599
 Red. masses --      6.9111                 5.5032                 1.2051
 Frc consts  --      0.0031                 0.0128                 0.0112
 IR Inten    --      0.0334                 1.6859                 0.7062

                      4                      5                      6
                      A                      A                      A
 Frequencies --    141.2889               170.6798               291.0654
 Red. masses --      5.1670                 3.0578                 7.2586
 Frc consts  --      0.0608                 0.0525                 0.3623
 IR Inten    --      1.6521                 2.9764                 0.5982

                      7                      8                      9
                      A                      A                      A
 Frequencies --    292.0093               310.4843               388.3712
 Red. masses --      6.4232                 6.9119                 6.3286
 Frc consts  --      0.3227                 0.3926                 0.5624
 IR Inten    --      0.0625                11.4516                14.7910

                     10                     11                     12
                      A                      A                      A
 Frequencies --    515.4076               604.2403               613.3305
 Red. masses --      6.3119                 5.3668                13.2900
 Frc consts  --      0.9879                 1.1545                 2.9455
 IR Inten    --      0.0338                 4.9567                 0.7198

                     13                     14                     15
                      A                      A                      A
 Frequencies --    705.6827               737.7435               758.5400
 Red. masses --      8.9767                 8.9231                 7.6327
 Frc consts  --      2.6338                 2.8614                 2.5875
 IR Inten    --      0.7216                 4.7263                13.8492

                     16                     17                     18
                      A                      A                      A
 Frequencies --    777.2167               799.8978               866.1700
 Red. masses --      1.2392                 7.8782                 1.3596
 Frc consts  --      0.4411                 2.9699                 0.6010
 IR Inten    --     39.8764                 1.2346                14.1996

                     19                     20                     21
                      A                      A                      A
 Frequencies --    868.8263               952.5268              1086.0185
 Red. masses --      4.7032                 6.8600                 8.6730
 Frc consts  --      2.0918                 3.6671                 6.0269
 IR Inten    --     45.1863                37.7628                74.0055

                     22                     23                     24
                      A                      A                      A
 Frequencies --   1148.3815              1190.2065              1220.4243
 Red. masses --      2.1361                 1.2642                 1.8583
 Frc consts  --      1.6597                 1.0551                 1.6307
 IR Inten    --      9.1242                 0.7370               101.2849

                     25                     26                     27
                      A                      A                      A
 Frequencies --   1246.0830              1265.0479              1312.9511
 Red. masses --      4.3790                 1.2392                 6.5700
 Frc consts  --      4.0061                 1.1684                 6.6728
 IR Inten    --    246.0484                26.5086              1014.2286

                     28                     29                     30
                      A                      A                      A
 Frequencies --   1357.1689              1498.1751              1500.5604
 Red. masses --      2.1794                 1.2080                 8.9832
 Frc consts  --      2.3651                 1.5975                11.9176
 IR Inten    --     24.7856                41.5796                97.2043

                     31                     32                     33
                      A                      A                      A
 Frequencies --   1514.4147              1524.7580              1574.2412
 Red. masses --      1.0469                 1.0512                 6.7553
 Frc consts  --      1.4146                 1.4400                 9.8636
 IR Inten    --      7.2330                 7.8610               108.9803

                     34                     35                     36
                      A                      A                      A
 Frequencies --   1848.9796              3082.1376              3159.9542
 Red. masses --     11.7037                 1.0298                 1.1084
 Frc consts  --     23.5743                 5.7637                 6.5208
 IR Inten    --    236.4414                29.7220                17.3238

                     37                     38                     39
                      A                      A                      A
 Frequencies --   3195.5943              3247.8606              3309.0714
 Red. masses --      1.1071                 1.0939                 1.0946
 Frc consts  --      6.6612                 6.7989                 7.0615
 IR Inten    --     13.0450                 0.8185                 2.7291

 - Thermochemistry -
 -------------------
 Temperature   298.150 Kelvin.  Pressure   1.00000 Atm.
 Atom     1 has atomic number  6 and mass  12.00000

 Molecular mass:   158.99901 amu.
 Principal axes and moments of inertia in atomic units:
                           1         2         3
     Eigenvalues --   501.654592945.217383435.42657
           X            1.00000  -0.00172   0.00001
           Y            0.00172   1.00000  -0.00004
           Z           -0.00001   0.00004   1.00000
 This molecule is an asymmetric top.
 Rotational symmetry number  1.
 Warning -- assumption of classical behavior for rotation
           may cause significant error
 Rotational temperatures (Kelvin)      0.17266     0.02941     0.02521
 Rotational constants (GHZ):           3.59758     0.61277     0.52533
 Zero-point vibrational energy     270904.7 (Joules/Mol)
                                   64.74778 (Kcal/Mol)
 Warning -- explicit consideration of  12 degrees of freedom as
           vibrations may cause significant error
 Vibrational temperatures:     39.82    90.33   180.94   203.28   245.57
          (Kelvin)            418.78   420.14   446.72   558.78   741.56
                              869.37   882.45  1015.32  1061.45  1091.37
                             1118.24  1150.87  1246.23  1250.05  1370.47
                             1562.54  1652.26  1712.44  1755.92  1792.84
                             1820.12  1889.04  1952.66  2155.54  2158.97
                             2178.91  2193.79  2264.98  2660.27  4434.51
                             4546.47  4597.75  4672.95  4761.02

 Zero-point correction=                           0.103182 (Hartree/Particle)
 Thermal correction to Energy=                    0.112552
 Thermal correction to Enthalpy=                  0.113496
 Thermal correction to Gibbs Free Energy=         0.066688
 Sum of electronic and zero-point Energies=           -872.055924
 Sum of electronic and thermal Energies=              -872.046555
 Sum of electronic and thermal Enthalpies=            -872.045611
 Sum of electronic and thermal Free Energies=         -872.092419

                     E (Thermal)             CV                S
                      KCal/Mol        Cal/Mol-Kelvin    Cal/Mol-Kelvin
 Total                   70.627             32.481             98.516
 Electronic               0.000              0.000              0.000
 Translational            0.889              2.981             41.100
 Rotational               0.889              2.981             30.008
 Vibrational             68.850             26.519             27.408
 Vibration     1          0.593              1.984              5.989
 Vibration     2          0.597              1.972              4.368
 Vibration     3          0.611              1.927              3.010
 Vibration     4          0.615              1.912              2.786
 Vibration     5          0.626              1.879              2.428
 Vibration     6          0.687              1.690              1.468
 Vibration     7          0.687              1.689              1.462
 Vibration     8          0.699              1.654              1.360
 Vibration     9          0.757              1.495              1.006
 Vibration    10          0.870              1.216              0.621
 Vibration    11          0.963              1.023              0.442
 Vibration    12          0.973              1.004              0.427

                           ! Non-Optimized Parameters !
 Normal termination of Gaussian 16 at Tue Dec  8 12:32:29 2020.

 ----------------------------------------------------------------------
 # B3LYP/6-311++G(d,p) empiricaldispersion=gd3bj scf=xqc pop=npa geom=c
 heck
 ----------------------------------------------------------------------

 --------------------------------------
 CID_150529474_JID_762_Energie_neutraal
 --------------------------------------
 Structure from the checkpoint file:  "JID_762.chk"
 Charge =  0 Multiplicity = 1

 SCF Done:  E(RB3LYP) =  -872.323851086     A.U. after   14 cycles
 Normal termination of Gaussian 16 at Tue Dec  8 12:39:38 2020.

 ----------------------------------------------------------------------
 # B3LYP/6-311++G(d,p) empiricaldispersion=gd3bj scf=xqc pop=npa geom=c
 heck
 ----------------------------------------------------------------------

 ------------------------------------
 CID_150529474_JID_762_Energie_kation
 ------------------------------------
 Structure from the checkpoint file:  "JID_762.chk"
 Charge =  1 Multiplicity = 2

 SCF Done:  E(UB3LYP) =  -871.993720194     A.U. after   21 cycles
 Normal termination of Gaussian 16 at Tue Dec  8 12:43:20 2020.
 Gaussian 16:  ES64L-G16RevA.03 25-Dec-2016

 ----------------------------------------------------------------------
 # B3LYP/6-311++G(d,p) empiricaldispersion=gd3bj scf=xqc pop=npa geom=c
 heck
 ----------------------------------------------------------------------

 -----------------------------------
 CID_150529474_JID_762_Energie_anion
 -----------------------------------
 Structure from the checkpoint file:  "JID_762.chk"
 Charge = -1 Multiplicity = 2

                         Standard orientation:
 ---------------------------------------------------------------------
 Center     Atomic      Atomic             Coordinates (Angstroms)
 Number     Number       Type             X           Y           Z
 ---------------------------------------------------------------------
      1          6           0        3.961150   -0.096445    0.000792
      2          8           0        2.673404   -0.738956   -0.000837
      3          6           0        1.639421    0.102964   -0.000121
      4          8           0        1.685438    1.308210    0.001735
      5          8           0        0.518803   -0.665953   -0.001940
      6          6           0       -0.721171   -0.081264   -0.000945
      7          6           0       -1.153138    1.216466   -0.001361
      8          7           0       -2.526053    1.356338   -0.000379
      9          6           0       -3.124265    0.205639    0.000810
     10         16           0       -2.067036   -1.194001    0.000819
     11          1           0        4.684982   -0.910507    0.003541
     12          1           0        4.074537    0.526080    0.891531
     13          1           0        4.078144    0.523031   -0.891649
     14          1           0       -0.516149    2.086352   -0.002271
     15          1           0       -4.199715    0.074133    0.001686
 ---------------------------------------------------------------------

 SCF Done:  E(UB3LYP) =  -872.312033954     A.U. after   33 cycles
 SCF Done:  E(UB3LYP) =  -872.312033954     a.u. after    1 cycles

 The electronic state is 2-A.
 Alpha  occ. eigenvalues --  -88.76250 -19.08881 -19.06994 -19.01198 -14.19192
 Alpha  occ. eigenvalues --  -10.24472 -10.13950 -10.11510 -10.10013 -10.07724
 Alpha  occ. eigenvalues --   -7.84925  -5.81202  -5.80876  -5.80516  -1.05179
 Alpha  occ. eigenvalues --   -0.97046  -0.92970  -0.84083  -0.69077  -0.64282
 Alpha  occ. eigenvalues --   -0.61283  -0.54164  -0.47561  -0.45361  -0.42412
 Alpha  occ. eigenvalues --   -0.40563  -0.39300  -0.34917  -0.34282  -0.33310
 Alpha  occ. eigenvalues --   -0.32153  -0.29785  -0.29451  -0.26761  -0.25423
 Alpha  occ. eigenvalues --   -0.25269  -0.21214  -0.19497  -0.16625  -0.15671
 Alpha  occ. eigenvalues --   -0.12525   0.05206
 Alpha virt. eigenvalues --    0.06670   0.08264   0.10083   0.10585   0.10773
 Alpha virt. eigenvalues --    0.11877   0.12372   0.12380   0.13155   0.13522
 Alpha virt. eigenvalues --    0.15000   0.16355   0.16679   0.18069   0.18463

  Beta  occ. eigenvalues --  -88.76217 -19.08903 -19.06969 -19.01154 -14.19121
  Beta  occ. eigenvalues --  -10.24411 -10.13718 -10.11438 -10.09726 -10.07734
  Beta  occ. eigenvalues --   -7.84896  -5.81193  -5.80866  -5.80396  -1.05107
  Beta  occ. eigenvalues --   -0.96995  -0.92895  -0.83834  -0.68835  -0.64080
  Beta  occ. eigenvalues --   -0.61054  -0.54042  -0.47222  -0.45216  -0.42247
  Beta  occ. eigenvalues --   -0.40348  -0.39207  -0.34795  -0.34056  -0.33194
  Beta  occ. eigenvalues --   -0.32052  -0.29673  -0.28845  -0.26669  -0.25243
  Beta  occ. eigenvalues --   -0.24857  -0.21053  -0.19457  -0.15992  -0.15543
  Beta  occ. eigenvalues --   -0.11503
  Beta virt. eigenvalues --    0.08214   0.08342   0.09210   0.10621   0.11201
  Beta virt. eigenvalues --    0.11758   0.12030   0.12528   0.12973   0.13290
  Beta virt. eigenvalues --    0.13638   0.14920   0.16502   0.16664   0.18152

 Mulliken charges and spin densities:
               1          2
     1  C    1.853935  -2.049754
     2  O   -0.278911   0.125950
     3  C    0.000661   0.077465
     4  O   -0.290605   0.046247
     5  O   -0.101878  -0.003614
     6  C    0.230691   0.053788
     7  C   -0.243189  -0.068942
     8  N   -0.109056   0.027525
     9  C   -0.352006   0.183232
    10  S   -0.135518   0.141472
    11  H   -0.832580   0.995461
    12  H   -0.501093   0.675691
    13  H   -0.589883   0.772682
    14  H    0.150532   0.036992
    15  H    0.198900  -0.014193
 Sum of Mulliken charges =  -1.00000   1.00000

 Dipole moment (field-independent basis, Debye):
    X=             -8.4942    Y=             -1.4016    Z=              0.3860  Tot=              8.6177
 Quadrupole moment (field-independent basis, Debye-Ang):
   XX=           -149.5376   YY=            -90.0602   ZZ=            -80.5760
   XY=              8.4637   XZ=              1.1595   YZ=              0.1258

 Summary of Natural Population Analysis:

                                       Natural Population
                Natural  -----------------------------------------------
    Atom  No    Charge         Core      Valence    Rydberg      Total
 -----------------------------------------------------------------------
      C    1   -0.09935      0.99960     2.09089    0.00886     3.09935
      O    2   -0.26912      0.99986     3.26043    0.00883     4.26912
      C    3    0.52080      0.99971     1.45093    0.02856     2.47920
      O    4   -0.31249      0.99986     3.30683    0.00579     4.31249
      O    5   -0.26770      0.99982     3.25893    0.00895     4.26770
      C    6    0.08491      0.99939     1.89959    0.01611     2.91509
      C    7   -0.06445      0.99947     2.04950    0.01548     3.06445
      N    8   -0.23149      0.99968     2.72005    0.01176     3.73149
      C    9   -0.01310      0.99967     1.99713    0.01630     3.01310
      S   10    0.16944      4.99945     2.81012    0.02099     7.83056
      H   11    0.09700      0.00000     0.39854    0.00446     0.40300
      H   12    0.09124      0.00000     0.40706    0.00170     0.40876
      H   13    0.09387      0.00000     0.40298    0.00315     0.40613
      H   14    0.11250      0.00000     0.38540    0.00210     0.38750
      H   15    0.08794      0.00000     0.41076    0.00130     0.41206
 =======================================================================
   * Total *    0.00000     13.99651    26.84914    0.15435    41.00000

 Normal termination of Gaussian 16 at Tue Dec  8 13:04:06 2020.
