 Gaussian 16, Revision A.03,

 -----------------------------------------------------------
 # opt freq B3LYP/6-31G(d) empiricaldispersion=gd3bj scf=xqc
 -----------------------------------------------------------

 ------------------------------
 CID_14146115_JID_3760_neutraal
 ------------------------------
 Symbolic Z-matrix:
 Charge =  0 Multiplicity = 1

 SCF Done:  E(RB3LYP) =  -523.521953870     A.U. after   13 cycles
 SCF Done:  E(RB3LYP) =  -523.525241207     A.U. after   11 cycles
 SCF Done:  E(RB3LYP) =  -523.525392477     A.U. after   11 cycles
 SCF Done:  E(RB3LYP) =  -523.525512723     A.U. after   10 cycles
 SCF Done:  E(RB3LYP) =  -523.525540066     A.U. after    9 cycles
 SCF Done:  E(RB3LYP) =  -523.525544012     A.U. after    9 cycles
 SCF Done:  E(RB3LYP) =  -523.525545881     A.U. after    7 cycles
 SCF Done:  E(RB3LYP) =  -523.525546305     A.U. after    7 cycles
 SCF Done:  E(RB3LYP) =  -523.525546388     A.U. after    6 cycles
 Optimization completed.
    -- Stationary point found.
 Normal termination of Gaussian 16 at Mon Dec 14 16:28:41 2020.

 --------------------------------------------------------------------
 #N Geom=AllCheck Guess=TCheck SCRF=Check GenChk RB3LYP/6-31G(d) Freq
 --------------------------------------------------------------------

 Structure from the checkpoint file:  "JID_3760.chk"
 ------------------------------
 CID_14146115_JID_3760_neutraal
 ------------------------------
 Charge =  0 Multiplicity = 1

 SCF Done:  E(RB3LYP) =  -523.525546388     A.U. after    1 cycles

  Exact polarizability: 154.046  -0.168 147.972  -0.190   0.011  88.976
 Approx polarizability: 222.613  -0.335 223.138  -0.762   1.739 127.692

                      1                      2                      3
                      A                      A                      A
 Frequencies --     63.3996                69.7828                86.5581
 Red. masses --      3.0524                 2.6822                 2.4792
 Frc consts  --      0.0072                 0.0077                 0.0109
 IR Inten    --      0.1181                 0.0633                 0.1941

                      4                      5                      6
                      A                      A                      A
 Frequencies --    122.5753               146.2499               156.2239
 Red. masses --      2.6508                 3.0504                 3.0530
 Frc consts  --      0.0235                 0.0384                 0.0439
 IR Inten    --      0.0788                 0.3998                 0.3477

                      7                      8                      9
                      A                      A                      A
 Frequencies --    184.0198               202.7022               215.9194
 Red. masses --      1.4009                 1.2679                 1.2006
 Frc consts  --      0.0279                 0.0307                 0.0330
 IR Inten    --      1.2912                 1.0655                 0.1274

                     10                     11                     12
                      A                      A                      A
 Frequencies --    231.0645               243.5380               274.8060
 Red. masses --      1.1749                 1.2191                 3.1291
 Frc consts  --      0.0370                 0.0426                 0.1392
 IR Inten    --      0.7791                 1.3432                 0.0909

                     13                     14                     15
                      A                      A                      A
 Frequencies --    299.1939               309.7114               334.7818
 Red. masses --      2.2199                 3.1366                 2.4544
 Frc consts  --      0.1171                 0.1773                 0.1621
 IR Inten    --      0.0242                 1.4562                 4.3225

                     16                     17                     18
                      A                      A                      A
 Frequencies --    379.0378               428.7669               493.1068
 Red. masses --      2.3360                 3.3736                 3.2086
 Frc consts  --      0.1977                 0.3654                 0.4597
 IR Inten    --      3.7593                 4.0135                 2.6424

                     19                     20                     21
                      A                      A                      A
 Frequencies --    520.5732               554.2832               584.6972
 Red. masses --      3.5526                 4.5013                 3.5142
 Frc consts  --      0.5672                 0.8148                 0.7078
 IR Inten    --      2.0950                 0.1918                 2.9243

                     22                     23                     24
                      A                      A                      A
 Frequencies --    629.7010               646.4477               780.6965
 Red. masses --      3.4458                 3.6527                 1.9088
 Frc consts  --      0.8050                 0.8994                 0.6855
 IR Inten    --      0.9695                 0.9456                 2.9459

                     25                     26                     27
                      A                      A                      A
 Frequencies --    787.1580               797.5769               806.0564
 Red. masses --      1.6289                 1.5036                 1.3673
 Frc consts  --      0.5947                 0.5636                 0.5234
 IR Inten    --     14.3390                 0.1157                 3.3954

                     28                     29                     30
                      A                      A                      A
 Frequencies --    826.1687               889.5265               911.5519
 Red. masses --      3.1566                 2.7607                 1.3551
 Frc consts  --      1.2694                 1.2870                 0.6634
 IR Inten    --      9.8111                10.1206                 0.1412

                     31                     32                     33
                      A                      A                      A
 Frequencies --    968.9269               976.4333               985.2174
 Red. masses --      1.2840                 2.7181                 2.6321
 Frc consts  --      0.7102                 1.5269                 1.5053
 IR Inten    --      0.1633                16.3106                12.0051

                     34                     35                     36
                      A                      A                      A
 Frequencies --   1017.9165              1065.2811              1089.2981
 Red. masses --      2.3054                 1.7624                 1.5167
 Frc consts  --      1.4074                 1.1784                 1.0603
 IR Inten    --      0.3817                 6.4892                 9.2362

                     37                     38                     39
                      A                      A                      A
 Frequencies --   1090.3161              1094.6653              1110.1990
 Red. masses --      1.8014                 1.8463                 1.6848
 Frc consts  --      1.2617                 1.3035                 1.2235
 IR Inten    --      4.7643                 2.9123                 3.5401

                     40                     41                     42
                      A                      A                      A
 Frequencies --   1134.2389              1136.5030              1178.4415
 Red. masses --      1.2228                 1.6985                 1.9952
 Frc consts  --      0.9268                 1.2926                 1.6325
 IR Inten    --      7.2306                15.6128                17.0068

                     43                     44                     45
                      A                      A                      A
 Frequencies --   1187.5467              1201.2782              1260.8975
 Red. masses --      1.3782                 1.1837                 3.7414
 Frc consts  --      1.1452                 1.0064                 3.5047
 IR Inten    --      2.5105                 0.9857                27.0741

                     46                     47                     48
                      A                      A                      A
 Frequencies --   1270.3736              1273.5518              1296.1403
 Red. masses --      1.6780                 2.7977                 1.4227
 Frc consts  --      1.5955                 2.6736                 1.4082
 IR Inten    --      2.6456                 0.9361                 1.3665

                     49                     50                     51
                      A                      A                      A
 Frequencies --   1302.2765              1351.9715              1367.4397
 Red. masses --      1.6228                 2.0853                 2.5116
 Frc consts  --      1.6215                 2.2457                 2.7670
 IR Inten    --      1.5271                 3.6036                11.4205

                     52                     53                     54
                      A                      A                      A
 Frequencies --   1372.3627              1380.9467              1428.2985
 Red. masses --      1.5633                 1.6295                 1.2257
 Frc consts  --      1.7347                 1.8309                 1.4732
 IR Inten    --     11.8846                 2.4289                 2.0477

                     55                     56                     57
                      A                      A                      A
 Frequencies --   1436.3630              1467.5629              1486.5948
 Red. masses --      1.2183                 1.1381                 1.3038
 Frc consts  --      1.4809                 1.4442                 1.6977
 IR Inten    --      2.9840                 0.0091                11.4286

                     58                     59                     60
                      A                      A                      A
 Frequencies --   1502.5195              1506.3451              1511.7555
 Red. masses --      1.6088                 1.0718                 1.8646
 Frc consts  --      2.1399                 1.4329                 2.5107
 IR Inten    --     18.3953                 6.0193                 6.2914

                     61                     62                     63
                      A                      A                      A
 Frequencies --   1514.5373              1521.1872              1523.6246
 Red. masses --      1.2472                 1.1711                 1.0895
 Frc consts  --      1.6855                 1.5966                 1.4901
 IR Inten    --      8.3529                 4.1271                 2.0168

                     64                     65                     66
                      A                      A                      A
 Frequencies --   1526.3710              1527.9926              1537.9958
 Red. masses --      1.0552                 1.0560                 1.0870
 Frc consts  --      1.4485                 1.4526                 1.5149
 IR Inten    --      3.2831                 7.2713                 2.6168

                     67                     68                     69
                      A                      A                      A
 Frequencies --   1539.7242              1542.4141              1559.5674
 Red. masses --      1.0723                 1.0888                 1.1034
 Frc consts  --      1.4978                 1.5262                 1.5813
 IR Inten    --      5.5175                 7.9356                 5.2519

                     70                     71                     72
                      A                      A                      A
 Frequencies --   1641.2946              1651.0786              2953.8223
 Red. masses --      6.5993                 5.4586                 1.0590
 Frc consts  --     10.4742                 8.7674                 5.4440
 IR Inten    --      2.1212                 0.1916                73.6436

                     73                     74                     75
                      A                      A                      A
 Frequencies --   2973.4525              3048.7986              3050.0225
 Red. masses --      1.0577                 1.0808                 1.0400
 Frc consts  --      5.5096                 5.9188                 5.7004
 IR Inten    --    116.5054                51.9022                44.7014

                     76                     77                     78
                      A                      A                      A
 Frequencies --   3050.2683              3052.0798              3053.3530
 Red. masses --      1.0704                 1.0379                 1.0621
 Frc consts  --      5.8678                 5.6965                 5.8338
 IR Inten    --     23.9318                48.7734                24.0630

                     79                     80                     81
                      A                      A                      A
 Frequencies --   3058.3294              3103.2728              3114.3415
 Red. masses --      1.0755                 1.0987                 1.1007
 Frc consts  --      5.9267                 6.2340                 6.2903
 IR Inten    --     46.8687                 6.1698                15.4068

                     82                     83                     84
                      A                      A                      A
 Frequencies --   3118.4500              3122.0799              3125.5661
 Red. masses --      1.0995                 1.0996                 1.0984
 Frc consts  --      6.2998                 6.3147                 6.3222
 IR Inten    --     45.2757                21.4396                19.2175

                     85                     86                     87
                      A                      A                      A
 Frequencies --   3128.4547              3138.1690              3141.4786
 Red. masses --      1.0977                 1.1016                 1.0946
 Frc consts  --      6.3299                 6.3918                 6.3649
 IR Inten    --     44.6999                28.8668                43.1005

                     88                     89                     90
                      A                      A                      A
 Frequencies --   3168.4167              3177.2825              3199.7901
 Red. masses --      1.0863                 1.0896                 1.0962
 Frc consts  --      6.4251                 6.4809                 6.6128
 IR Inten    --      5.5978                25.3340                33.8194

 - Thermochemistry -
 -------------------
 Temperature   298.150 Kelvin.  Pressure   1.00000 Atm.
 Atom     1 has atomic number  6 and mass  12.00000

 Molecular mass:   177.15175 amu.
 Principal axes and moments of inertia in atomic units:
                           1         2         3
     Eigenvalues --  1894.206272441.958493554.49191
           X            0.99999  -0.00397   0.00044
           Y            0.00397   0.99999   0.00372
           Z           -0.00046  -0.00372   0.99999
 This molecule is an asymmetric top.
 Rotational symmetry number  1.
 Warning -- assumption of classical behavior for rotation
           may cause significant error
 Rotational temperatures (Kelvin)      0.04573     0.03547     0.02437
 Rotational constants (GHZ):           0.95277     0.73905     0.50774
 Zero-point vibrational energy     755386.4 (Joules/Mol)
                                  180.54169 (Kcal/Mol)
 Warning -- explicit consideration of  21 degrees of freedom as
           vibrations may cause significant error
 Vibrational temperatures:     91.22   100.40   124.54   176.36   210.42
          (Kelvin)            224.77   264.76   291.64   310.66   332.45
                              350.40   395.38   430.47   445.61   481.68
                              545.35   616.90   709.47   748.99   797.49
                              841.25   906.00   930.09  1123.25  1132.54
                             1147.54  1159.74  1188.67  1279.83  1311.52
                             1394.07  1404.87  1417.51  1464.55  1532.70
                             1567.26  1568.72  1574.98  1597.33  1631.92
                             1635.17  1695.51  1708.61  1728.37  1814.15
                             1827.78  1832.36  1864.86  1873.69  1945.19
                             1967.44  1974.52  1986.87  2055.00  2066.61
                             2111.50  2138.88  2161.79  2167.29  2175.08
                             2179.08  2188.65  2192.16  2196.11  2198.44
                             2212.83  2215.32  2219.19  2243.87  2361.46
                             2375.53  4249.89  4278.13  4386.54  4388.30
                             4388.66  4391.26  4393.09  4400.25  4464.92
                             4480.84  4486.75  4491.98  4496.99  4501.15
                             4515.13  4519.89  4558.64  4571.40  4603.78

 Zero-point correction=                           0.287712 (Hartree/Particle)
 Thermal correction to Energy=                    0.301976
 Thermal correction to Enthalpy=                  0.302920
 Thermal correction to Gibbs Free Energy=         0.247555
 Sum of electronic and zero-point Energies=           -523.237835
 Sum of electronic and thermal Energies=              -523.223571
 Sum of electronic and thermal Enthalpies=            -523.222627
 Sum of electronic and thermal Free Energies=         -523.277992

                     E (Thermal)             CV                S
                      KCal/Mol        Cal/Mol-Kelvin    Cal/Mol-Kelvin
 Total                  189.493             53.759            116.526
 Electronic               0.000              0.000              0.000
 Translational            0.889              2.981             41.423
 Rotational               0.889              2.981             31.175
 Vibrational            187.715             47.797             43.928
 Vibration     1          0.597              1.972              4.348
 Vibration     2          0.598              1.969              4.159
 Vibration     3          0.601              1.959              3.736
 Vibration     4          0.610              1.930              3.059
 Vibration     5          0.617              1.907              2.720
 Vibration     6          0.620              1.896              2.595
 Vibration     7          0.631              1.862              2.287
 Vibration     8          0.639              1.836              2.108
 Vibration     9          0.645              1.817              1.993
 Vibration    10          0.653              1.794              1.871
 Vibration    11          0.659              1.773              1.777
 Vibration    12          0.677              1.720              1.566
 Vibration    13          0.692              1.675              1.421
 Vibration    14          0.699              1.655              1.364
 Vibration    15          0.716              1.606              1.237
 Vibration    16          0.749              1.515              1.043
 Vibration    17          0.790              1.408              0.863
 Vibration    18          0.849              1.265              0.676
 Vibration    19          0.876              1.204              0.609
 Vibration    20          0.910              1.130              0.535
 Vibration    21          0.942              1.064              0.477

 Optimization completed.
    -- Stationary point found.
 Normal termination of Gaussian 16 at Mon Dec 14 16:37:27 2020.

 ----------------------------------------------------------------------
 # B3LYP/6-311++G(d,p) empiricaldispersion=gd3bj scf=xqc pop=npa geom=c
 heck
 ----------------------------------------------------------------------

 --------------------------------------
 CID_14146115_JID_3760_Energie_neutraal
 --------------------------------------
 Structure from the checkpoint file:  "JID_3760.chk"
 Charge =  0 Multiplicity = 1

 SCF Done:  E(RB3LYP) =  -523.663615122     A.U. after   14 cycles
 Normal termination of Gaussian 16 at Mon Dec 14 16:41:24 2020.

 ----------------------------------------------------------------------
 # B3LYP/6-311++G(d,p) empiricaldispersion=gd3bj scf=xqc pop=npa geom=c
 heck
 ----------------------------------------------------------------------

 ------------------------------------
 CID_14146115_JID_3760_Energie_kation
 ------------------------------------
 Structure from the checkpoint file:  "JID_3760.chk"
 Charge =  1 Multiplicity = 2

 SCF Done:  E(UB3LYP) =  -523.383033660     A.U. after   27 cycles
 Normal termination of Gaussian 16 at Mon Dec 14 16:52:03 2020.
 Gaussian 16:  ES64L-G16RevA.03 25-Dec-2016

 ----------------------------------------------------------------------
 # B3LYP/6-311++G(d,p) empiricaldispersion=gd3bj scf=xqc pop=npa geom=c
 heck
 ----------------------------------------------------------------------

 -----------------------------------
 CID_14146115_JID_3760_Energie_anion
 -----------------------------------
 Structure from the checkpoint file:  "JID_3760.chk"
 Charge = -1 Multiplicity = 2

                         Standard orientation:
 ---------------------------------------------------------------------
 Center     Atomic      Atomic             Coordinates (Angstroms)
 Number     Number       Type             X           Y           Z
 ---------------------------------------------------------------------
      1          6           0       -3.019510   -0.461056    1.229875
      2          6           0       -2.631113    0.000002   -0.183431
      3          6           0       -1.287585    0.693813   -0.213967
      4          6           0       -0.085718   -0.047999   -0.240284
      5          6           0        1.155388    0.619300   -0.248274
      6          6           0        1.172683    2.020031   -0.203064
      7          6           0       -0.006488    2.755129   -0.166073
      8          6           0       -1.230397    2.089361   -0.176516
      9          6           0        2.485251   -0.106054   -0.282284
     10          6           0        3.185216   -0.126444    1.086706
     11          7           0       -0.213251   -1.478692   -0.283674
     12          6           0        0.333788   -2.253291    0.814736
     13          6           0       -0.068196   -2.092519   -1.591389
     14          1           0       -2.296004   -1.189872    1.606669
     15          1           0       -4.009947   -0.930842    1.231016
     16          1           0       -3.042257    0.386053    1.924712
     17          1           0       -2.622235   -0.868099   -0.848429
     18          1           0       -3.395079    0.691271   -0.560189
     19          1           0        2.131927    2.533404   -0.210765
     20          1           0        0.026224    3.840969   -0.139662
     21          1           0       -2.158016    2.656442   -0.154852
     22          1           0        2.359429   -1.127626   -0.645620
     23          1           0        3.140262    0.397929   -1.004439
     24          1           0        2.573494   -0.640162    1.835096
     25          1           0        4.152295   -0.638518    1.025441
     26          1           0        3.362188    0.892440    1.447930
     27          1           0        0.170284   -1.715168    1.752541
     28          1           0       -0.195191   -3.213837    0.876354
     29          1           0        1.411854   -2.476926    0.732618
     30          1           0       -0.492097   -3.104577   -1.566999
     31          1           0       -0.622003   -1.507208   -2.331527
     32          1           0        0.977721   -2.176480   -1.940392
 ---------------------------------------------------------------------

 SCF Done:  E(UB3LYP) =  -523.647028943     A.U. after   33 cycles
 SCF Done:  E(UB3LYP) =  -523.647028943     a.u. after    1 cycles

 The electronic state is 2-A.
 Alpha  occ. eigenvalues --  -14.20255 -10.09798 -10.08688 -10.08642 -10.07773
 Alpha  occ. eigenvalues --  -10.07613 -10.07190 -10.06955 -10.06811 -10.06806
 Alpha  occ. eigenvalues --  -10.06746 -10.05921 -10.05853  -0.82822  -0.75058
 Alpha  occ. eigenvalues --   -0.69780  -0.66961  -0.63096  -0.61582  -0.60797
 Alpha  occ. eigenvalues --   -0.55004  -0.53450  -0.51697  -0.47144  -0.46276
 Alpha  occ. eigenvalues --   -0.40641  -0.39251  -0.37091  -0.35832  -0.34448
 Alpha  occ. eigenvalues --   -0.33742  -0.33170  -0.33027  -0.31701  -0.30110
 Alpha  occ. eigenvalues --   -0.29113  -0.28805  -0.28487  -0.27202  -0.27129
 Alpha  occ. eigenvalues --   -0.26866  -0.25151  -0.24339  -0.23883  -0.23030
 Alpha  occ. eigenvalues --   -0.22610  -0.14675  -0.14031  -0.10984   0.04538
 Alpha virt. eigenvalues --    0.06472   0.06732   0.07736   0.08325   0.08640
 Alpha virt. eigenvalues --    0.08857   0.08920   0.09763   0.09929   0.10541
 Alpha virt. eigenvalues --    0.10746   0.11312   0.12256   0.12444   0.13023

  Beta  occ. eigenvalues --  -14.20255 -10.09768 -10.08650 -10.08614 -10.07770
  Beta  occ. eigenvalues --  -10.07617 -10.07176 -10.06939 -10.06799 -10.06794
  Beta  occ. eigenvalues --  -10.06734 -10.05887 -10.05831  -0.82798  -0.75035
  Beta  occ. eigenvalues --   -0.69754  -0.66928  -0.63049  -0.61549  -0.60743
  Beta  occ. eigenvalues --   -0.54946  -0.53405  -0.51639  -0.47095  -0.46240
  Beta  occ. eigenvalues --   -0.40601  -0.39230  -0.37055  -0.35779  -0.34407
  Beta  occ. eigenvalues --   -0.33711  -0.33141  -0.32996  -0.31674  -0.30071
  Beta  occ. eigenvalues --   -0.29080  -0.28771  -0.28447  -0.27166  -0.27092
  Beta  occ. eigenvalues --   -0.26825  -0.25126  -0.24300  -0.23851  -0.23007
  Beta  occ. eigenvalues --   -0.22581  -0.14579  -0.14005  -0.10966
  Beta virt. eigenvalues --    0.06560   0.07215   0.07419   0.08207   0.08751
  Beta virt. eigenvalues --    0.08911   0.09190   0.09285   0.10112   0.10315
  Beta virt. eigenvalues --    0.10945   0.11187   0.11851   0.12541   0.12776

 Mulliken charges and spin densities:
               1          2
     1  C    0.727229  -1.343480
     2  C   -0.458334   0.263680
     3  C    0.545671   0.293822
     4  C   -2.150969   1.335377
     5  C   -0.049079   0.347382
     6  C    0.910968  -1.124359
     7  C    0.915153  -1.279618
     8  C   -0.083755  -0.397885
     9  C   -1.645281   1.322188
    10  C    1.190019  -1.826453
    11  N    0.250930   0.038967
    12  C    0.669536  -0.929790
    13  C    0.861954  -1.093915
    14  H   -0.059039   0.207249
    15  H   -0.189682   0.315211
    16  H   -0.034352   0.162462
    17  H    0.000173   0.146210
    18  H   -0.185151   0.345636
    19  H   -0.171117   0.329508
    20  H   -0.292850   0.442967
    21  H   -0.141726   0.279334
    22  H    0.065223   0.037427
    23  H   -0.241720   0.409375
    24  H   -0.072911   0.212018
    25  H   -0.466444   0.606083
    26  H   -0.099935   0.233413
    27  H    0.024605   0.124080
    28  H   -0.145775   0.300852
    29  H   -0.109675   0.260282
    30  H   -0.337836   0.493703
    31  H   -0.110644   0.248238
    32  H   -0.115183   0.240035
 Sum of Mulliken charges =  -1.00000   1.00000

 Dipole moment (field-independent basis, Debye):
    X=             -1.7367    Y=              2.1110    Z=             -0.2421  Tot=              2.7442
 Quadrupole moment (field-independent basis, Debye-Ang):
   XX=           -148.6099   YY=           -135.9096   ZZ=           -115.9824
   XY=             -0.3038   XZ=             -0.4766   YZ=             -1.2893

 Summary of Natural Population Analysis:

                                       Natural Population
                Natural  -----------------------------------------------
    Atom  No    Charge         Core      Valence    Rydberg      Total
 -----------------------------------------------------------------------
      C    1   -0.27746      0.99966     2.27353    0.00427     3.27746
      C    2   -0.19653      0.99960     2.18785    0.00907     3.19653
      C    3   -0.01020      0.99946     1.99993    0.01081     3.01020
      C    4    0.09043      0.99936     1.89794    0.01226     2.90957
      C    5   -0.01398      0.99946     2.00416    0.01035     3.01398
      C    6   -0.10339      0.99951     2.09424    0.00964     3.10339
      C    7   -0.09747      0.99956     2.08837    0.00954     3.09747
      C    8   -0.10509      0.99951     2.09610    0.00948     3.10509
      C    9   -0.20134      0.99961     2.19253    0.00921     3.20134
      C   10   -0.27962      0.99966     2.27516    0.00480     3.27962
      N   11   -0.29522      0.99970     2.78140    0.01412     3.79522
      C   12   -0.17158      0.99963     2.16324    0.00871     3.17158
      C   13   -0.17001      0.99963     2.16199    0.00839     3.17001
      H   14    0.10043      0.00000     0.39800    0.00157     0.39957
      H   15    0.09552      0.00000     0.40329    0.00119     0.40448
      H   16    0.09447      0.00000     0.40430    0.00123     0.40553
      H   17    0.10586      0.00000     0.39252    0.00162     0.39414
      H   18    0.09484      0.00000     0.40393    0.00123     0.40516
      H   19    0.09925      0.00000     0.39962    0.00113     0.40075
      H   20    0.09852      0.00000     0.40056    0.00092     0.40148
      H   21    0.09830      0.00000     0.40061    0.00109     0.40170
      H   22    0.10277      0.00000     0.39506    0.00217     0.39723
      H   23    0.10067      0.00000     0.39793    0.00140     0.39933
      H   24    0.09757      0.00000     0.40128    0.00115     0.40243
      H   25    0.09918      0.00000     0.39928    0.00154     0.40082
      H   26    0.09669      0.00000     0.40213    0.00118     0.40331
      H   27    0.09780      0.00000     0.40113    0.00108     0.40220
      H   28    0.09386      0.00000     0.40505    0.00109     0.40614
      H   29    0.08258      0.00000     0.41600    0.00142     0.41742
      H   30    0.09475      0.00000     0.40390    0.00135     0.40525
      H   31    0.09707      0.00000     0.40199    0.00094     0.40293
      H   32    0.08132      0.00000     0.41722    0.00145     0.41868
 =======================================================================
   * Total *    0.00000     12.99435    35.86026    0.14539    49.00000

 Normal termination of Gaussian 16 at Mon Dec 14 17:04:59 2020.
