 Gaussian 16, Revision A.03,

 -----------------------------------------------------------
 # opt freq B3LYP/6-31G(d) empiricaldispersion=gd3bj scf=xqc
 -----------------------------------------------------------

 ------------------------------
 CID_86610271_JID_4530_neutraal
 ------------------------------
 Symbolic Z-matrix:
 Charge =  0 Multiplicity = 1

 SCF Done:  E(RB3LYP) =  -1015.83586978     A.U. after   15 cycles
 SCF Done:  E(RB3LYP) =  -1015.84170975     A.U. after   13 cycles
 SCF Done:  E(RB3LYP) =  -1015.84229382     A.U. after   12 cycles
 SCF Done:  E(RB3LYP) =  -1015.84218322     A.U. after   12 cycles
 SCF Done:  E(RB3LYP) =  -1015.84263008     A.U. after   11 cycles
 SCF Done:  E(RB3LYP) =  -1015.84260403     A.U. after   11 cycles
 SCF Done:  E(RB3LYP) =  -1015.84274803     A.U. after   12 cycles
 SCF Done:  E(RB3LYP) =  -1015.84276272     A.U. after   10 cycles
 SCF Done:  E(RB3LYP) =  -1015.84280191     A.U. after   10 cycles
 SCF Done:  E(RB3LYP) =  -1015.84289109     A.U. after   11 cycles
 SCF Done:  E(RB3LYP) =  -1015.84298731     A.U. after   10 cycles
 SCF Done:  E(RB3LYP) =  -1015.84299713     A.U. after   10 cycles
 SCF Done:  E(RB3LYP) =  -1015.84300103     A.U. after    9 cycles
 SCF Done:  E(RB3LYP) =  -1015.84300295     A.U. after    9 cycles
 SCF Done:  E(RB3LYP) =  -1015.84300329     A.U. after    7 cycles
 SCF Done:  E(RB3LYP) =  -1015.84300334     A.U. after    6 cycles
 Optimization completed.
    -- Stationary point found.
 Normal termination of Gaussian 16 at Thu Dec 10 10:05:51 2020.

 --------------------------------------------------------------------
 #N Geom=AllCheck Guess=TCheck SCRF=Check GenChk RB3LYP/6-31G(d) Freq
 --------------------------------------------------------------------

 Structure from the checkpoint file:  "JID_4530.chk"
 ------------------------------
 CID_86610271_JID_4530_neutraal
 ------------------------------
 Charge =  0 Multiplicity = 1

 SCF Done:  E(RB3LYP) =  -1015.84300334     A.U. after    1 cycles

  Exact polarizability: 130.058  -1.151 134.439   3.969   8.153 121.309
 Approx polarizability: 163.149   0.766 178.874   6.290  31.546 217.041

                      1                      2                      3
                      A                      A                      A
 Frequencies --     21.5599                36.2476                47.9511
 Red. masses --      3.1528                 6.8085                 3.2343
 Frc consts  --      0.0009                 0.0053                 0.0044
 IR Inten    --      0.7114                 0.8655                 1.7343

                      4                      5                      6
                      A                      A                      A
 Frequencies --     53.4761                64.0496                96.1650
 Red. masses --      2.7168                 3.6802                 1.3205
 Frc consts  --      0.0046                 0.0089                 0.0072
 IR Inten    --      0.1626                 2.3659                 0.4187

                      7                      8                      9
                      A                      A                      A
 Frequencies --    105.0656               125.6780               177.8811
 Red. masses --      2.5738                 3.9430                 4.4403
 Frc consts  --      0.0167                 0.0367                 0.0828
 IR Inten    --      0.5340                 2.6646                 1.1934

                     10                     11                     12
                      A                      A                      A
 Frequencies --    189.6666               216.1846               220.9579
 Red. masses --      2.8212                 1.3669                 1.7899
 Frc consts  --      0.0598                 0.0376                 0.0515
 IR Inten    --      0.1434                 0.3460                 0.7482

                     13                     14                     15
                      A                      A                      A
 Frequencies --    233.1949               238.2677               255.2278
 Red. masses --      1.5243                 1.1145                 1.1510
 Frc consts  --      0.0488                 0.0373                 0.0442
 IR Inten    --      0.5904                 0.2708                 0.1924

                     16                     17                     18
                      A                      A                      A
 Frequencies --    261.0815               313.8944               335.3540
 Red. masses --      2.5875                 2.8288                 2.6413
 Frc consts  --      0.1039                 0.1642                 0.1750
 IR Inten    --      0.6765                 2.6377                 1.9205

                     19                     20                     21
                      A                      A                      A
 Frequencies --    362.2830               385.4970               433.1156
 Red. masses --      3.0298                 2.8660                 3.6587
 Frc consts  --      0.2343                 0.2509                 0.4044
 IR Inten    --      2.1520                 4.2682                 8.0372

                     22                     23                     24
                      A                      A                      A
 Frequencies --    456.6122               499.5563               527.0165
 Red. masses --      4.1111                 3.6913                 3.7552
 Frc consts  --      0.5050                 0.5428                 0.6145
 IR Inten    --      2.0104                 4.4054                 7.2172

                     25                     26                     27
                      A                      A                      A
 Frequencies --    531.2662               599.0126               714.2347
 Red. masses --      3.5449                 4.5563                 3.6125
 Frc consts  --      0.5895                 0.9632                 1.0858
 IR Inten    --      1.0405                 8.9917                 1.8606

                     28                     29                     30
                      A                      A                      A
 Frequencies --    748.4582               767.9686               818.0819
 Red. masses --      5.4973                 6.3530                 5.7377
 Frc consts  --      1.8144                 2.2076                 2.2625
 IR Inten    --      5.8769                10.2015                 2.8101

                     31                     32                     33
                      A                      A                      A
 Frequencies --    886.9619               905.8973               946.9547
 Red. masses --      2.2296                 2.4492                 1.9369
 Frc consts  --      1.0334                 1.1842                 1.0233
 IR Inten    --      2.0575                 3.5906                12.0357

                     34                     35                     36
                      A                      A                      A
 Frequencies --    952.5382               953.3215               974.1099
 Red. masses --      1.1940                 1.1982                 1.7097
 Frc consts  --      0.6383                 0.6416                 0.9558
 IR Inten    --      1.8532                 1.2750                63.0446

                     37                     38                     39
                      A                      A                      A
 Frequencies --    984.6066               995.9922              1042.9226
 Red. masses --      1.5225                 1.9479                 2.1125
 Frc consts  --      0.8696                 1.1385                 1.3538
 IR Inten    --      0.2495                31.0903                77.7785

                     40                     41                     42
                      A                      A                      A
 Frequencies --   1046.4640              1052.9239              1117.4645
 Red. masses --      1.8249                 2.1374                 3.4564
 Frc consts  --      1.1774                 1.3961                 2.5430
 IR Inten    --     55.1311               277.1542               235.5444

                     43                     44                     45
                      A                      A                      A
 Frequencies --   1129.3899              1150.7548              1198.8915
 Red. masses --      2.3956                 2.3709                 2.1222
 Frc consts  --      1.8004                 1.8498                 1.7972
 IR Inten    --      1.1332                17.5308                 3.9042

                     46                     47                     48
                      A                      A                      A
 Frequencies --   1205.1943              1212.5426              1239.3708
 Red. masses --      1.9304                 1.8713                 4.0334
 Frc consts  --      1.6520                 1.6210                 3.6503
 IR Inten    --      4.7331                11.5206               172.5077

                     49                     50                     51
                      A                      A                      A
 Frequencies --   1269.9006              1311.8406              1336.9264
 Red. masses --      3.0361                 3.4652                 1.5728
 Frc consts  --      2.8847                 3.5135                 1.6563
 IR Inten    --    169.2815               322.0751                53.8535

                     52                     53                     54
                      A                      A                      A
 Frequencies --   1359.7508              1366.7581              1379.1474
 Red. masses --      1.4319                 1.3624                 1.3410
 Frc consts  --      1.5598                 1.4995                 1.5028
 IR Inten    --      7.6716                 2.8526                 5.1771

                     55                     56                     57
                      A                      A                      A
 Frequencies --   1412.9239              1424.1251              1424.7229
 Red. masses --      1.4136                 1.2935                 1.2230
 Frc consts  --      1.6628                 1.5456                 1.4626
 IR Inten    --      3.9099                13.4827                 5.5068

                     58                     59                     60
                      A                      A                      A
 Frequencies --   1430.6293              1436.0011              1449.3757
 Red. masses --      1.2388                 1.2398                 1.2353
 Frc consts  --      1.4939                 1.5063                 1.5289
 IR Inten    --      5.7406                 2.1134                10.6668

                     61                     62                     63
                      A                      A                      A
 Frequencies --   1454.0605              1501.0465              1505.1817
 Red. masses --      1.2361                 1.0455                 1.0819
 Frc consts  --      1.5398                 1.3879                 1.4441
 IR Inten    --      4.3534                 9.3539                 2.2059

                     64                     65                     66
                      A                      A                      A
 Frequencies --   1518.1474              1518.4978              1521.1435
 Red. masses --      1.0427                 1.0465                 1.0497
 Frc consts  --      1.4159                 1.4218                 1.4311
 IR Inten    --      1.7511                 0.5959                 3.6449

                     67                     68                     69
                      A                      A                      A
 Frequencies --   1523.6960              1532.2115              1534.2019
 Red. masses --      1.0444                 1.0445                 1.0495
 Frc consts  --      1.4287                 1.4447                 1.4554
 IR Inten    --      0.8147                 7.3963                 7.6449

                     70                     71                     72
                      A                      A                      A
 Frequencies --   1541.7833              1544.4191              1835.4907
 Red. masses --      1.0576                 1.0587                11.5542
 Frc consts  --      1.4812                 1.4878                22.9348
 IR Inten    --     25.1247                13.0445               178.4870

                     73                     74                     75
                      A                      A                      A
 Frequencies --   3046.7660              3051.7470              3054.9342
 Red. masses --      1.0394                 1.0400                 1.0350
 Frc consts  --      5.6847                 5.7068                 5.6913
 IR Inten    --     20.1868                23.3889                28.8585

                     76                     77                     78
                      A                      A                      A
 Frequencies --   3056.4983              3057.8530              3086.1642
 Red. masses --      1.0394                 1.0357                 1.0857
 Frc consts  --      5.7210                 5.7060                 6.0924
 IR Inten    --      3.9442                12.2765                 8.0051

                     79                     80                     81
                      A                      A                      A
 Frequencies --   3103.5177              3112.3756              3112.9504
 Red. masses --      1.0869                 1.0998                 1.0982
 Frc consts  --      6.1683                 6.2768                 6.2702
 IR Inten    --     10.5250                 6.8834                 3.3316

                     82                     83                     84
                      A                      A                      A
 Frequencies --   3116.3699              3119.7892              3123.6332
 Red. masses --      1.0904                 1.1029                 1.1028
 Frc consts  --      6.2392                 6.3245                 6.3399
 IR Inten    --     16.5576                24.4894                33.2412

                     85                     86                     87
                      A                      A                      A
 Frequencies --   3132.5830              3137.2668              3138.8217
 Red. masses --      1.0923                 1.1019                 1.1006
 Frc consts  --      6.3152                 6.3901                 6.3885
 IR Inten    --     26.9663                22.7141                34.2087

                     88                     89                     90
                      A                      A                      A
 Frequencies --   3139.4935              3145.3756              3194.6904
 Red. masses --      1.1028                 1.1015                 1.1003
 Frc consts  --      6.4043                 6.4205                 6.6164
 IR Inten    --      4.9460                34.7974                 3.8084

 - Thermochemistry -
 -------------------
 Temperature   298.150 Kelvin.  Pressure   1.00000 Atm.
 Atom     1 has atomic number  6 and mass  12.00000

 Molecular mass:   218.09767 amu.
 Principal axes and moments of inertia in atomic units:
                           1         2         3
     Eigenvalues --  2799.863613499.760405022.76394
           X            0.99494   0.09603   0.02954
           Y           -0.09493   0.99481  -0.03668
           Z           -0.03291   0.03369   0.99889
 This molecule is an asymmetric top.
 Rotational symmetry number  1.
 Warning -- assumption of classical behavior for rotation
           may cause significant error
 Rotational temperatures (Kelvin)      0.03094     0.02475     0.01724
 Rotational constants (GHZ):           0.64458     0.51568     0.35931
 Zero-point vibrational energy     717126.1 (Joules/Mol)
                                  171.39725 (Kcal/Mol)
 Warning -- explicit consideration of  26 degrees of freedom as
           vibrations may cause significant error
 Vibrational temperatures:     31.02    52.15    68.99    76.94    92.15
          (Kelvin)            138.36   151.17   180.82   255.93   272.89
                              311.04   317.91   335.52   342.81   367.22
                              375.64   451.62   482.50   521.24   554.64
                              623.16   656.96   718.75   758.26   764.37
                              861.85  1027.62  1076.86  1104.94  1177.04
                             1276.14  1303.38  1362.46  1370.49  1371.62
                             1401.53  1416.63  1433.01  1500.53  1505.63
                             1514.92  1607.78  1624.94  1655.68  1724.94
                             1734.01  1744.58  1783.18  1827.10  1887.45
                             1923.54  1956.38  1966.46  1984.29  2032.88
                             2049.00  2049.86  2058.36  2066.09  2085.33
                             2092.07  2159.67  2165.62  2184.28  2184.78
                             2188.59  2192.26  2204.51  2207.37  2218.28
                             2222.07  2640.86  4383.62  4390.78  4395.37
                             4397.62  4399.57  4440.30  4465.27  4478.01
                             4478.84  4483.76  4488.68  4494.21  4507.09
                             4513.83  4516.06  4517.03  4525.49  4596.45

 Zero-point correction=                           0.273139 (Hartree/Particle)
 Thermal correction to Energy=                    0.290435
 Thermal correction to Enthalpy=                  0.291379
 Thermal correction to Gibbs Free Energy=         0.226272
 Sum of electronic and zero-point Energies=          -1015.569864
 Sum of electronic and thermal Energies=             -1015.552569
 Sum of electronic and thermal Enthalpies=           -1015.551625
 Sum of electronic and thermal Free Energies=        -1015.616731

                     E (Thermal)             CV                S
                      KCal/Mol        Cal/Mol-Kelvin    Cal/Mol-Kelvin
 Total                  182.250             60.860            137.029
 Electronic               0.000              0.000              0.000
 Translational            0.889              2.981             42.042
 Rotational               0.889              2.981             32.265
 Vibrational            180.473             54.899             62.722
 Vibration     1          0.593              1.985              6.485
 Vibration     2          0.594              1.982              5.454
 Vibration     3          0.595              1.978              4.900
 Vibration     4          0.596              1.976              4.685
 Vibration     5          0.597              1.971              4.328
 Vibration     6          0.603              1.952              3.531
 Vibration     7          0.605              1.945              3.358
 Vibration     8          0.611              1.927              3.011
 Vibration     9          0.628              1.870              2.351
 Vibration    10          0.633              1.854              2.231
 Vibration    11          0.645              1.816              1.991
 Vibration    12          0.648              1.809              1.951
 Vibration    13          0.654              1.790              1.854
 Vibration    14          0.656              1.782              1.816
 Vibration    15          0.666              1.754              1.694
 Vibration    16          0.669              1.744              1.655
 Vibration    17          0.702              1.647              1.342
 Vibration    18          0.716              1.605              1.234
 Vibration    19          0.736              1.550              1.112
 Vibration    20          0.754              1.501              1.018
 Vibration    21          0.794              1.398              0.849
 Vibration    22          0.815              1.346              0.776
 Vibration    23          0.855              1.251              0.659
 Vibration    24          0.882              1.190              0.594
 Vibration    25          0.886              1.181              0.584
 Vibration    26          0.957              1.034              0.451

 Optimization completed.
    -- Stationary point found.
 Normal termination of Gaussian 16 at Thu Dec 10 10:15:27 2020.

 ----------------------------------------------------------------------
 # B3LYP/6-311++G(d,p) empiricaldispersion=gd3bj scf=xqc pop=npa geom=c
 heck
 ----------------------------------------------------------------------

 --------------------------------------
 CID_86610271_JID_4530_Energie_neutraal
 --------------------------------------
 Structure from the checkpoint file:  "JID_4530.chk"
 Charge =  0 Multiplicity = 1

 SCF Done:  E(RB3LYP) =  -1016.04775035     A.U. after   14 cycles
 Normal termination of Gaussian 16 at Thu Dec 10 10:19:27 2020.

 ----------------------------------------------------------------------
 # B3LYP/6-311++G(d,p) empiricaldispersion=gd3bj scf=xqc pop=npa geom=c
 heck
 ----------------------------------------------------------------------

 ------------------------------------
 CID_86610271_JID_4530_Energie_kation
 ------------------------------------
 Structure from the checkpoint file:  "JID_4530.chk"
 Charge =  1 Multiplicity = 2

 SCF Done:  E(UB3LYP) =  -1015.73233013     A.U. after   25 cycles
 Normal termination of Gaussian 16 at Thu Dec 10 10:30:09 2020.
 Gaussian 16:  ES64L-G16RevA.03 25-Dec-2016

 ----------------------------------------------------------------------
 # B3LYP/6-311++G(d,p) empiricaldispersion=gd3bj scf=xqc pop=npa geom=c
 heck
 ----------------------------------------------------------------------

 -----------------------------------
 CID_86610271_JID_4530_Energie_anion
 -----------------------------------
 Structure from the checkpoint file:  "JID_4530.chk"
 Charge = -1 Multiplicity = 2

                         Standard orientation:
 ---------------------------------------------------------------------
 Center     Atomic      Atomic             Coordinates (Angstroms)
 Number     Number       Type             X           Y           Z
 ---------------------------------------------------------------------
      1          6           0        2.058743    2.747046   -0.040430
      2          6           0        0.629492    2.213042    0.119716
      3          6           0       -0.373615    3.055309   -0.676996
      4          6           0        0.579368    0.759810   -0.346031
      5          8           0        1.408433   -0.010269    0.530168
      6          6           0        1.887523   -1.206782    0.146922
      7         16           0        1.660602   -1.921316   -1.316098
      8          6           0        2.670395   -1.797679    1.285981
      9          8           0       -0.721334    0.187086   -0.409620
     10          6           0       -1.468067    0.041926    0.725608
     11          8           0       -1.129759    0.429841    1.819024
     12          6           0       -2.753172   -0.700232    0.408372
     13          6           0       -3.566318    0.024441   -0.675302
     14          6           0       -2.429981   -2.148547   -0.000615
     15          1           0        2.373563    2.723132   -1.091643
     16          1           0        2.772391    2.158722    0.543304
     17          1           0        2.114226    3.785976    0.300382
     18          1           0        0.355527    2.229026    1.177530
     19          1           0       -0.159601    3.014559   -1.752417
     20          1           0       -1.401896    2.715154   -0.525481
     21          1           0       -0.313754    4.102682   -0.364178
     22          1           0        0.953496    0.650014   -1.366299
     23          1           0        2.007236   -1.927232    2.149753
     24          1           0        3.103878   -2.755723    1.003748
     25          1           0        3.461846   -1.102662    1.590479
     26          1           0       -3.317248   -0.705587    1.346561
     27          1           0       -3.016595    0.047848   -1.620600
     28          1           0       -4.515067   -0.497154   -0.840682
     29          1           0       -3.794171    1.055694   -0.383300
     30          1           0       -1.865182   -2.665886    0.782285
     31          1           0       -3.358324   -2.703524   -0.173507
     32          1           0       -1.834897   -2.167235   -0.918296
 ---------------------------------------------------------------------

 SCF Done:  E(UB3LYP) =  -1016.04785628     A.U. after   32 cycles

 The electronic state is 2-A.
 Alpha  occ. eigenvalues --  -88.64239 -19.05138 -19.02606 -19.00333 -10.19130
 Alpha  occ. eigenvalues --  -10.16608 -10.09018 -10.08330 -10.07793 -10.06852
 Alpha  occ. eigenvalues --  -10.06649 -10.06307 -10.05515 -10.03775  -7.73030
 Alpha  occ. eigenvalues --   -5.69330  -5.68989  -5.68588  -1.00334  -0.94612
 Alpha  occ. eigenvalues --   -0.90809  -0.71921  -0.69925  -0.64775  -0.59746
 Alpha  occ. eigenvalues --   -0.59200  -0.58578  -0.55544  -0.52875  -0.49773
 Alpha  occ. eigenvalues --   -0.46903  -0.42503  -0.38514  -0.37661  -0.36525
 Alpha  occ. eigenvalues --   -0.34701  -0.34262  -0.33626  -0.32521  -0.31875
 Alpha  occ. eigenvalues --   -0.30579  -0.29891  -0.29560  -0.29357  -0.28852
 Alpha  occ. eigenvalues --   -0.27941  -0.27178  -0.26239  -0.24857  -0.24483
 Alpha  occ. eigenvalues --   -0.24360  -0.23929  -0.23658  -0.22599  -0.20027
 Alpha  occ. eigenvalues --   -0.18635  -0.16003  -0.11328  -0.06879   0.04846
 Alpha virt. eigenvalues --    0.06557   0.07390   0.08556   0.09378   0.09560
 Alpha virt. eigenvalues --    0.09784   0.10562   0.10850   0.11650   0.12127
 Alpha virt. eigenvalues --    0.12297   0.12756   0.13299   0.13920   0.14364

  Beta  occ. eigenvalues --  -88.64195 -19.05113 -19.02472 -19.00324 -10.19118
  Beta  occ. eigenvalues --  -10.16601 -10.08322 -10.08177 -10.07794 -10.06845
  Beta  occ. eigenvalues --  -10.06646 -10.06276 -10.05496 -10.03837  -7.72990
  Beta  occ. eigenvalues --   -5.69335  -5.68815  -5.68566  -1.00249  -0.94311
  Beta  occ. eigenvalues --   -0.90692  -0.71832  -0.69896  -0.64088  -0.59671
  Beta  occ. eigenvalues --   -0.59114  -0.58528  -0.55281  -0.52803  -0.49728
  Beta  occ. eigenvalues --   -0.46677  -0.42395  -0.38471  -0.37579  -0.36487
  Beta  occ. eigenvalues --   -0.34516  -0.34188  -0.33470  -0.32187  -0.31393
  Beta  occ. eigenvalues --   -0.30137  -0.29632  -0.29549  -0.29001  -0.28770
  Beta  occ. eigenvalues --   -0.27892  -0.27090  -0.26162  -0.24812  -0.24424
  Beta  occ. eigenvalues --   -0.24213  -0.23884  -0.23483  -0.21849  -0.19953
  Beta  occ. eigenvalues --   -0.18290  -0.15905  -0.09632  -0.06758
  Beta virt. eigenvalues --    0.06893   0.07579   0.08636   0.09437   0.09641
  Beta virt. eigenvalues --    0.09786   0.10593   0.10718   0.11574   0.12032
  Beta virt. eigenvalues --    0.12215   0.12602   0.12938   0.13418   0.13906

 Mulliken charges and spin densities:
               1          2
     1  C   -0.596891   0.002667
     2  C    0.448904   0.077375
     3  C   -0.472379  -0.064326
     4  C   -0.809780  -0.119995
     5  O    0.201632   0.026541
     6  C    0.248228   0.367961
     7  S   -0.724709   0.191015
     8  C   -0.315425  -0.024708
     9  O    0.179614  -0.011376
    10  C    0.396529  -0.609545
    11  O   -0.181713   0.010894
    12  C   -1.276290   1.470312
    13  C    0.677710  -1.270627
    14  C    0.144181  -0.663314
    15  H    0.124068   0.003112
    16  H    0.159055  -0.005254
    17  H    0.129079   0.004641
    18  H    0.228561  -0.002239
    19  H    0.102002   0.036956
    20  H    0.159115  -0.028360
    21  H    0.076962   0.057229
    22  H    0.149716  -0.016096
    23  H    0.102364   0.063895
    24  H    0.138909   0.002521
    25  H    0.082336   0.044253
    26  H   -0.045293   0.232246
    27  H    0.092040   0.074379
    28  H   -0.386716   0.538865
    29  H   -0.138262   0.266647
    30  H    0.048489   0.074135
    31  H   -0.052388   0.199130
    32  H    0.110351   0.071062
 Sum of Mulliken charges =  -1.00000   1.00000

 Dipole moment (field-independent basis, Debye):
    X=              0.9507    Y=              5.4183    Z=              1.3405  Tot=              5.6621
 Quadrupole moment (field-independent basis, Debye-Ang):
   XX=           -145.4512   YY=           -122.4158   ZZ=           -119.4218
   XY=              7.6752   XZ=              3.4773   YZ=             -7.8038

 Summary of Natural Population Analysis:

                                       Natural Population
                Natural  -----------------------------------------------
    Atom  No    Charge         Core      Valence    Rydberg      Total
 -----------------------------------------------------------------------
      C    1   -0.28280      0.99965     2.27865    0.00450     3.28280
      C    2   -0.13726      0.99958     2.12848    0.00920     3.13726
      C    3   -0.28514      0.99965     2.27936    0.00613     3.28514
      C    4    0.22051      0.99949     1.76070    0.01930     2.77949
      O    5   -0.27861      0.99983     3.26583    0.01295     4.27861
      C    6    0.25587      0.99968     1.72570    0.01875     2.74413
      S    7   -0.12009      4.99949     3.10573    0.01488     8.12009
      C    8   -0.32193      0.99961     2.31626    0.00606     3.32193
      O    9   -0.28826      0.99985     3.27959    0.00882     4.28826
      C   10    0.41821      0.99964     1.55476    0.02739     2.58179
      O   11   -0.30044      0.99987     3.29541    0.00517     4.30044
      C   12   -0.15369      0.99957     2.14419    0.00993     3.15369
      C   13   -0.28272      0.99965     2.27681    0.00626     3.28272
      C   14   -0.28281      0.99965     2.27699    0.00617     3.28281
      H   15    0.09520      0.00000     0.40400    0.00080     0.40480
      H   16    0.10876      0.00000     0.39046    0.00078     0.39124
      H   17    0.09392      0.00000     0.40536    0.00072     0.40608
      H   18    0.11149      0.00000     0.38672    0.00179     0.38851
      H   19    0.09599      0.00000     0.40321    0.00080     0.40401
      H   20    0.10422      0.00000     0.39494    0.00084     0.39578
      H   21    0.09548      0.00000     0.40385    0.00067     0.40452
      H   22    0.09974      0.00000     0.39904    0.00121     0.40026
      H   23    0.10879      0.00000     0.39006    0.00115     0.39121
      H   24    0.10456      0.00000     0.39484    0.00060     0.39544
      H   25    0.10392      0.00000     0.39513    0.00096     0.39608
      H   26    0.10191      0.00000     0.39619    0.00190     0.39809
      H   27    0.10510      0.00000     0.39380    0.00110     0.39490
      H   28    0.09998      0.00000     0.39870    0.00132     0.40002
      H   29    0.09817      0.00000     0.40078    0.00106     0.40183
      H   30    0.10266      0.00000     0.39649    0.00085     0.39734
      H   31    0.09567      0.00000     0.40348    0.00085     0.40433
      H   32    0.11364      0.00000     0.38547    0.00090     0.38636
 =======================================================================
   * Total *    0.00000     17.99521    40.83098    0.17381    59.00000

 Normal termination of Gaussian 16 at Thu Dec 10 10:49:32 2020.
