 Gaussian 16, Revision A.03,

 -----------------------------------------------------------
 # opt freq B3LYP/6-31G(d) empiricaldispersion=gd3bj scf=xqc
 -----------------------------------------------------------

 -------------------------------
 CID_122416835_JID_1030_neutraal
 -------------------------------
 Symbolic Z-matrix:
 Charge =  0 Multiplicity = 1

 SCF Done:  E(RB3LYP) =  -802.552778710     A.U. after   14 cycles
 SCF Done:  E(RB3LYP) =  -802.553890339     A.U. after   11 cycles
 SCF Done:  E(RB3LYP) =  -802.554006554     A.U. after   10 cycles
 SCF Done:  E(RB3LYP) =  -802.554038288     A.U. after   10 cycles
 SCF Done:  E(RB3LYP) =  -802.554046377     A.U. after    9 cycles
 SCF Done:  E(RB3LYP) =  -802.554049162     A.U. after    9 cycles
 SCF Done:  E(RB3LYP) =  -802.554049728     A.U. after    8 cycles
 SCF Done:  E(RB3LYP) =  -802.554049854     A.U. after    7 cycles
 Optimization completed.
    -- Stationary point found.
 Normal termination of Gaussian 16 at Tue Dec  8 19:09:08 2020.

 --------------------------------------------------------------------
 #N Geom=AllCheck Guess=TCheck SCRF=Check GenChk RB3LYP/6-31G(d) Freq
 --------------------------------------------------------------------

 Structure from the checkpoint file:  "JID_1030.chk"
 -------------------------------
 CID_122416835_JID_1030_neutraal
 -------------------------------
 Charge =  0 Multiplicity = 1

 SCF Done:  E(RB3LYP) =  -802.554049854     A.U. after    1 cycles

  Exact polarizability: 155.059   3.935 123.782   2.918  -2.502  60.789
 Approx polarizability: 222.018   8.725 207.566   4.696  -6.344  97.180

                      1                      2                      3
                      A                      A                      A
 Frequencies --     67.0650               118.2875               181.9676
 Red. masses --      3.0627                 2.8112                 3.5898
 Frc consts  --      0.0081                 0.0232                 0.0700
 IR Inten    --      1.6043                 0.2464                 0.0525

                      4                      5                      6
                      A                      A                      A
 Frequencies --    240.0028               250.3213               284.9188
 Red. masses --      1.4195                 3.5889                 2.0219
 Frc consts  --      0.0482                 0.1325                 0.0967
 IR Inten    --      0.0304                 1.2261                 0.9911

                      7                      8                      9
                      A                      A                      A
 Frequencies --    350.3080               367.3337               408.7342
 Red. masses --      2.6243                 4.0136                 4.9521
 Frc consts  --      0.1897                 0.3191                 0.4874
 IR Inten    --      3.5097                 1.3849                 2.0353

                     10                     11                     12
                      A                      A                      A
 Frequencies --    414.6079               443.1463               489.2641
 Red. masses --      4.2141                 3.0987                 4.7001
 Frc consts  --      0.4268                 0.3585                 0.6629
 IR Inten    --      0.7397                 2.5789                 1.0778

                     13                     14                     15
                      A                      A                      A
 Frequencies --    512.6406               636.5423               697.6254
 Red. masses --      3.9514                 5.2968                 5.9078
 Frc consts  --      0.6118                 1.2645                 1.6940
 IR Inten    --      0.2491                 0.1444                 7.0980

                     16                     17                     18
                      A                      A                      A
 Frequencies --    718.7740               759.6981               766.2350
 Red. masses --      4.2924                 1.2257                 4.6399
 Frc consts  --      1.3066                 0.4168                 1.6050
 IR Inten    --      0.9096                46.6739                 9.4339

                     19                     20                     21
                      A                      A                      A
 Frequencies --    847.2813               870.3427               901.6159
 Red. masses --      3.9964                 1.3480                 4.1293
 Frc consts  --      1.6903                 0.6016                 1.9777
 IR Inten    --      1.4353                 0.3898                15.6632

                     22                     23                     24
                      A                      A                      A
 Frequencies --    938.6889               964.4294               978.4469
 Red. masses --      1.3372                 1.6132                 1.2566
 Frc consts  --      0.6942                 0.8841                 0.7088
 IR Inten    --      1.1253                 3.3554                 0.0988

                     25                     26                     27
                      A                      A                      A
 Frequencies --   1027.2325              1064.4208              1074.4449
 Red. masses --      1.8571                 2.2147                 3.4021
 Frc consts  --      1.1546                 1.4784                 2.3140
 IR Inten    --      1.0564                 7.7869                 9.0651

                     28                     29                     30
                      A                      A                      A
 Frequencies --   1097.4594              1151.1261              1161.9272
 Red. masses --      2.5576                 2.3165                 1.3890
 Frc consts  --      1.8149                 1.8085                 1.1049
 IR Inten    --     19.5249                71.9521                 4.7286

                     31                     32                     33
                      A                      A                      A
 Frequencies --   1171.1086              1197.5809              1222.2912
 Red. masses --      1.6827                 1.0941                 1.8124
 Frc consts  --      1.3598                 0.9245                 1.5954
 IR Inten    --     11.7327                 0.1042                 2.3197

                     34                     35                     36
                      A                      A                      A
 Frequencies --   1242.0790              1283.1829              1308.3985
 Red. masses --      1.4684                 1.8129                 1.6308
 Frc consts  --      1.3347                 1.7588                 1.6449
 IR Inten    --      2.0668                 6.6112                21.5830

                     37                     38                     39
                      A                      A                      A
 Frequencies --   1336.1301              1349.1058              1359.7275
 Red. masses --      1.4463                 2.4863                 1.9120
 Frc consts  --      1.5213                 2.6662                 2.0828
 IR Inten    --     15.2855                20.2196                12.6838

                     40                     41                     42
                      A                      A                      A
 Frequencies --   1424.9701              1478.8990              1490.2365
 Red. masses --      1.4965                 1.2585                 1.8508
 Frc consts  --      1.7904                 1.6218                 2.4217
 IR Inten    --     38.8921                 4.7200                14.1296

                     43                     44                     45
                      A                      A                      A
 Frequencies --   1506.4117              1514.9499              1529.6368
 Red. masses --      1.1107                 1.0545                 1.4987
 Frc consts  --      1.4850                 1.4260                 2.0660
 IR Inten    --      0.5261                20.2030                30.4463

                     46                     47                     48
                      A                      A                      A
 Frequencies --   1533.7733              1538.2097              1631.1967
 Red. masses --      1.2918                 1.1959                 6.0527
 Frc consts  --      1.7904                 1.6672                 9.4889
 IR Inten    --      2.2774                 7.7841                 7.0172

                     49                     50                     51
                      A                      A                      A
 Frequencies --   1658.3183              2882.1977              2942.6515
 Red. masses --      5.5648                 1.0738                 1.0615
 Frc consts  --      9.0165                 5.2555                 5.4159
 IR Inten    --     11.6059                58.2687                71.6098

                     52                     53                     54
                      A                      A                      A
 Frequencies --   2962.8819              3073.2033              3085.1430
 Red. masses --      1.0711                 1.0852                 1.0709
 Frc consts  --      5.5399                 6.0387                 6.0054
 IR Inten    --     94.7747                16.9278                40.3220

                     55                     56                     57
                      A                      A                      A
 Frequencies --   3119.5727              3130.1666              3169.8245
 Red. masses --      1.0916                 1.1036                 1.0878
 Frc consts  --      6.2591                 6.3710                 6.4395
 IR Inten    --      8.3401                27.1484                12.9138

                     58                     59                     60
                      A                      A                      A
 Frequencies --   3185.4751              3198.1391              3211.9631
 Red. masses --      1.0869                 1.0919                 1.0974
 Frc consts  --      6.4982                 6.5800                 6.6703
 IR Inten    --      1.7015                19.7908                27.7511

 - Thermochemistry -
 -------------------
 Temperature   298.150 Kelvin.  Pressure   1.00000 Atm.
 Atom     1 has atomic number  6 and mass  12.00000

 Molecular mass:   165.06122 amu.
 Principal axes and moments of inertia in atomic units:
                           1         2         3
     Eigenvalues --   976.254472353.901963255.00794
           X            0.99974  -0.02227   0.00379
           Y            0.02226   0.99975   0.00141
           Z           -0.00382  -0.00133   0.99999
 This molecule is an asymmetric top.
 Rotational symmetry number  1.
 Warning -- assumption of classical behavior for rotation
           may cause significant error
 Rotational temperatures (Kelvin)      0.08872     0.03680     0.02661
 Rotational constants (GHZ):           1.84864     0.76670     0.55445
 Zero-point vibrational energy     481630.4 (Joules/Mol)
                                  115.11243 (Kcal/Mol)
 Warning -- explicit consideration of  13 degrees of freedom as
           vibrations may cause significant error
 Vibrational temperatures:     96.49   170.19   261.81   345.31   360.16
          (Kelvin)            409.93   504.02   528.51   588.08   596.53
                              637.59   703.94   737.58   915.84  1003.73
                             1034.16  1093.04  1102.44  1219.05  1252.23
                             1297.22  1350.56  1387.60  1407.77  1477.96
                             1531.46  1545.89  1579.00  1656.21  1671.75
                             1684.96  1723.05  1758.60  1787.07  1846.21
                             1882.49  1922.39  1941.06  1956.34  2050.21
                             2127.81  2144.12  2167.39  2179.68  2200.81
                             2206.76  2213.14  2346.93  2385.95  4146.84
                             4233.82  4262.93  4421.65  4438.83  4488.37
                             4503.61  4560.67  4583.19  4601.41  4621.30

 Zero-point correction=                           0.183443 (Hartree/Particle)
 Thermal correction to Energy=                    0.192971
 Thermal correction to Enthalpy=                  0.193915
 Thermal correction to Gibbs Free Energy=         0.148502
 Sum of electronic and zero-point Energies=           -802.370607
 Sum of electronic and thermal Energies=              -802.361079
 Sum of electronic and thermal Enthalpies=            -802.360135
 Sum of electronic and thermal Free Energies=         -802.405548

                     E (Thermal)             CV                S
                      KCal/Mol        Cal/Mol-Kelvin    Cal/Mol-Kelvin
 Total                  121.091             37.628             95.580
 Electronic               0.000              0.000              0.000
 Translational            0.889              2.981             41.212
 Rotational               0.889              2.981             30.393
 Vibrational            119.314             31.667             23.975
 Vibration     1          0.598              1.970              4.238
 Vibration     2          0.608              1.934              3.128
 Vibration     3          0.630              1.864              2.308
 Vibration     4          0.657              1.779              1.803
 Vibration     5          0.663              1.762              1.728
 Vibration     6          0.683              1.702              1.504
 Vibration     7          0.727              1.575              1.165
 Vibration     8          0.740              1.539              1.091
 Vibration     9          0.773              1.451              0.931
 Vibration    10          0.778              1.439              0.910
 Vibration    11          0.803              1.376              0.817
 Vibration    12          0.845              1.274              0.686
 Vibration    13          0.868              1.222              0.627

 Optimization completed.
    -- Stationary point found.
 Normal termination of Gaussian 16 at Tue Dec  8 19:13:10 2020.

 ----------------------------------------------------------------------
 # B3LYP/6-311++G(d,p) empiricaldispersion=gd3bj scf=xqc pop=npa geom=c
 heck
 ----------------------------------------------------------------------

 ---------------------------------------
 CID_122416835_JID_1030_Energie_neutraal
 ---------------------------------------
 Structure from the checkpoint file:  "JID_1030.chk"
 Charge =  0 Multiplicity = 1

 SCF Done:  E(RB3LYP) =  -802.686074344     A.U. after   15 cycles
 Normal termination of Gaussian 16 at Tue Dec  8 19:14:41 2020.

 ----------------------------------------------------------------------
 # B3LYP/6-311++G(d,p) empiricaldispersion=gd3bj scf=xqc pop=npa geom=c
 heck
 ----------------------------------------------------------------------

 -------------------------------------
 CID_122416835_JID_1030_Energie_kation
 -------------------------------------
 Structure from the checkpoint file:  "JID_1030.chk"
 Charge =  1 Multiplicity = 2

 SCF Done:  E(UB3LYP) =  -802.404733743     A.U. after   22 cycles
 Normal termination of Gaussian 16 at Tue Dec  8 19:17:32 2020.
 Gaussian 16:  ES64L-G16RevA.03 25-Dec-2016

 ----------------------------------------------------------------------
 # B3LYP/6-311++G(d,p) empiricaldispersion=gd3bj scf=xqc pop=npa geom=c
 heck
 ----------------------------------------------------------------------

 ------------------------------------
 CID_122416835_JID_1030_Energie_anion
 ------------------------------------
 Structure from the checkpoint file:  "JID_1030.chk"
 Charge = -1 Multiplicity = 2

                         Standard orientation:
 ---------------------------------------------------------------------
 Center     Atomic      Atomic             Coordinates (Angstroms)
 Number     Number       Type             X           Y           Z
 ---------------------------------------------------------------------
      1          6           0        3.269713   -1.090084   -0.228432
      2          7           0        1.970593   -0.437644   -0.313303
      3          6           0        0.908695   -1.327689    0.137659
      4          6           0       -0.486303   -0.740493    0.049053
      5          6           0       -1.572854   -1.623496    0.068433
      6          6           0       -2.887083   -1.170492    0.011202
      7          6           0       -3.135058    0.201534   -0.068366
      8          6           0       -2.071989    1.096902   -0.079679
      9          6           0       -0.748140    0.636616   -0.018324
     10         16           0        0.540978    1.861319   -0.074867
     11          6           0        1.954283    0.809064    0.421021
     12          1           0        4.042325   -0.422453   -0.622625
     13          1           0        3.258802   -1.998349   -0.839622
     14          1           0        3.548709   -1.376250    0.804436
     15          1           0        0.947903   -2.231296   -0.481236
     16          1           0        1.090081   -1.659770    1.183062
     17          1           0       -1.373646   -2.691928    0.122693
     18          1           0       -3.709206   -1.879789    0.022494
     19          1           0       -4.154153    0.574481   -0.116329
     20          1           0       -2.259667    2.165904   -0.131437
     21          1           0        1.923914    0.660084    1.515243
     22          1           0        2.847538    1.390585    0.178909
 ---------------------------------------------------------------------

 SCF Done:  E(UB3LYP) =  -802.670452572     A.U. after   33 cycles
 SCF Done:  E(UB3LYP) =  -802.670452572     a.u. after    1 cycles

 The electronic state is 2-A.
 Alpha  occ. eigenvalues --  -88.74791 -14.21383 -10.12457 -10.10917 -10.09991
 Alpha  occ. eigenvalues --  -10.08821 -10.08393 -10.08123 -10.07951 -10.07693
 Alpha  occ. eigenvalues --  -10.07442  -7.83456  -5.79834  -5.79477  -5.78844
 Alpha  occ. eigenvalues --   -0.84212  -0.76743  -0.69617  -0.67469  -0.64010
 Alpha  occ. eigenvalues --   -0.59829  -0.55832  -0.52234  -0.50801  -0.45659
 Alpha  occ. eigenvalues --   -0.41582  -0.39213  -0.37797  -0.36863  -0.34518
 Alpha  occ. eigenvalues --   -0.34223  -0.31629  -0.31204  -0.30371  -0.28640
 Alpha  occ. eigenvalues --   -0.28163  -0.27009  -0.25824  -0.23870  -0.22359
 Alpha  occ. eigenvalues --   -0.19083  -0.15610  -0.12661  -0.11276   0.04660
 Alpha virt. eigenvalues --    0.06196   0.07559   0.07624   0.08178   0.08642
 Alpha virt. eigenvalues --    0.09087   0.09408   0.10388   0.11181   0.12007
 Alpha virt. eigenvalues --    0.12273   0.12954   0.13784   0.14452   0.15182

  Beta  occ. eigenvalues --  -88.74785 -14.21372 -10.12417 -10.10902 -10.09963
  Beta  occ. eigenvalues --  -10.08812 -10.08336 -10.08122 -10.07940 -10.07682
  Beta  occ. eigenvalues --  -10.07416  -7.83450  -5.79823  -5.79467  -5.78840
  Beta  occ. eigenvalues --   -0.84184  -0.76710  -0.69569  -0.67431  -0.63962
  Beta  occ. eigenvalues --   -0.59758  -0.55773  -0.52147  -0.50763  -0.45585
  Beta  occ. eigenvalues --   -0.41538  -0.39161  -0.37745  -0.36801  -0.34480
  Beta  occ. eigenvalues --   -0.34171  -0.31584  -0.31161  -0.30317  -0.28587
  Beta  occ. eigenvalues --   -0.28112  -0.26958  -0.25780  -0.23828  -0.22310
  Beta  occ. eigenvalues --   -0.19022  -0.15567  -0.12591  -0.11226
  Beta virt. eigenvalues --    0.06814   0.07393   0.07661   0.08251   0.08482
  Beta virt. eigenvalues --    0.09394   0.09568   0.10079   0.11038   0.11801
  Beta virt. eigenvalues --    0.12491   0.12726   0.13287   0.13926   0.14661

 Mulliken charges and spin densities:
               1          2
     1  C    1.569475  -1.867090
     2  N   -0.165124   0.374511
     3  C    1.400100  -1.802337
     4  C   -0.476603   1.135581
     5  C   -0.664869   0.327421
     6  C    0.616702  -1.112079
     7  C    0.249019  -0.402541
     8  C   -0.816637   0.525371
     9  C    0.572097  -0.113712
    10  S   -0.448554  -0.226356
    11  C    0.166136  -0.598310
    12  H   -0.430818   0.567978
    13  H   -0.561580   0.686673
    14  H   -0.568513   0.701538
    15  H    0.112991   0.076075
    16  H   -0.039032   0.196381
    17  H   -0.661791   0.825939
    18  H   -0.486863   0.647781
    19  H   -0.232401   0.385161
    20  H    0.101828   0.044208
    21  H   -0.115779   0.294791
    22  H   -0.119783   0.333014
 Sum of Mulliken charges =  -1.00000   1.00000

 Dipole moment (field-independent basis, Debye):
    X=             -3.8897    Y=              4.7567    Z=             -0.2182  Tot=              6.1485
 Quadrupole moment (field-independent basis, Debye-Ang):
   XX=           -149.1171   YY=           -115.2468   ZZ=           -103.3454
   XY=             -0.0010   XZ=              0.0847   YZ=              0.9418

 Summary of Natural Population Analysis:

                                       Natural Population
                Natural  -----------------------------------------------
    Atom  No    Charge         Core      Valence    Rydberg      Total
 -----------------------------------------------------------------------
      C    1   -0.17639      0.99964     2.16776    0.00899     3.17639
      N    2   -0.27754      0.99970     2.76387    0.01397     3.77754
      C    3   -0.08916      0.99958     2.07682    0.01276     3.08916
      C    4   -0.02975      0.99945     2.01885    0.01146     3.02975
      C    5   -0.09063      0.99952     2.08112    0.00999     3.09063
      C    6   -0.10452      0.99956     2.09449    0.01047     3.10452
      C    7   -0.10084      0.99956     2.09075    0.01052     3.10084
      C    8   -0.10967      0.99951     2.09940    0.01077     3.10967
      C    9   -0.08189      0.99936     2.07122    0.01130     3.08189
      S   10    0.12407      4.99954     2.85696    0.01944     7.87593
      C   11   -0.14307      0.99958     2.12833    0.01515     3.14307
      H   12    0.09838      0.00000     0.39956    0.00207     0.40162
      H   13    0.09995      0.00000     0.39793    0.00211     0.40005
      H   14    0.08487      0.00000     0.41192    0.00321     0.41513
      H   15    0.10547      0.00000     0.39266    0.00188     0.39453
      H   16    0.08947      0.00000     0.40850    0.00203     0.41053
      H   17    0.10249      0.00000     0.39604    0.00147     0.39751
      H   18    0.10203      0.00000     0.39650    0.00147     0.39797
      H   19    0.09988      0.00000     0.39922    0.00089     0.40012
      H   20    0.10039      0.00000     0.39868    0.00094     0.39961
      H   21    0.08809      0.00000     0.40962    0.00230     0.41191
      H   22    0.10838      0.00000     0.38994    0.00168     0.39162
 =======================================================================
   * Total *    0.00000     14.99500    28.85012    0.15487    44.00000

 Normal termination of Gaussian 16 at Tue Dec  8 19:21:52 2020.
