 Gaussian 16, Revision A.03,

 -----------------------------------------------------------
 # opt freq B3LYP/6-31G(d) empiricaldispersion=gd3bj scf=xqc
 -----------------------------------------------------------

 ------------------------------
 CID_71669781_JID_9388_neutraal
 ------------------------------
 Symbolic Z-matrix:
 Charge =  0 Multiplicity = 1

 SCF Done:  E(RB3LYP) =  -971.171600612     A.U. after   16 cycles
 SCF Done:  E(RB3LYP) =  -971.176291143     A.U. after   14 cycles
 SCF Done:  E(RB3LYP) =  -971.174738786     A.U. after   15 cycles
 SCF Done:  E(RB3LYP) =  -971.174853893     A.U. after   15 cycles
 SCF Done:  E(RB3LYP) =  -971.176648910     A.U. after   10 cycles
 SCF Done:  E(RB3LYP) =  -971.176104715     A.U. after   14 cycles
 SCF Done:  E(RB3LYP) =  -971.177098304     A.U. after   14 cycles
 SCF Done:  E(RB3LYP) =  -971.176778553     A.U. after   13 cycles
 SCF Done:  E(RB3LYP) =  -971.177323671     A.U. after   13 cycles
 SCF Done:  E(RB3LYP) =  -971.177464564     A.U. after   14 cycles
 SCF Done:  E(RB3LYP) =  -971.177696606     A.U. after   10 cycles
 SCF Done:  E(RB3LYP) =  -971.177696954     A.U. after   10 cycles
 SCF Done:  E(RB3LYP) =  -971.177697173     A.U. after    9 cycles
 SCF Done:  E(RB3LYP) =  -971.177697270     A.U. after    8 cycles
 SCF Done:  E(RB3LYP) =  -971.177697291     A.U. after    8 cycles
 Optimization completed.
    -- Stationary point found.
 Normal termination of Gaussian 16 at Mon Dec 14 17:02:19 2020.

 --------------------------------------------------------------------
 #N Geom=AllCheck Guess=TCheck SCRF=Check GenChk RB3LYP/6-31G(d) Freq
 --------------------------------------------------------------------

 Structure from the checkpoint file:  "JID_9388.chk"
 ------------------------------
 CID_71669781_JID_9388_neutraal
 ------------------------------
 Charge =  0 Multiplicity = 1

 SCF Done:  E(RB3LYP) =  -971.177697291     A.U. after    1 cycles

  Exact polarizability: 237.696  -3.857 148.819   0.002   0.009  80.875
 Approx polarizability: 300.041  -8.904 293.641   0.001   0.015 118.068

                      1                      2                      3
                      A                      A                      A
 Frequencies --      8.8502                18.1488                30.1597
 Red. masses --      4.4982                 7.2583                 7.0910
 Frc consts  --      0.0002                 0.0014                 0.0038
 IR Inten    --      0.2572                 0.8112                 1.6957

                      4                      5                      6
                      A                      A                      A
 Frequencies --     58.4326                64.8449                68.2451
 Red. masses --      5.8909                 7.7767                 5.7871
 Frc consts  --      0.0119                 0.0193                 0.0159
 IR Inten    --      0.0375                 0.0726                 1.8886

                      7                      8                      9
                      A                      A                      A
 Frequencies --    111.1529               139.8549               152.6518
 Red. masses --      4.0122                 8.9904                 6.0525
 Frc consts  --      0.0292                 0.1036                 0.0831
 IR Inten    --      0.1094                 1.3862                 2.2465

                     10                     11                     12
                      A                      A                      A
 Frequencies --    185.2122               208.8552               231.0421
 Red. masses --      5.9632                 1.0575                 6.3565
 Frc consts  --      0.1205                 0.0272                 0.1999
 IR Inten    --      0.3740                 0.0412                 3.2203

                     13                     14                     15
                      A                      A                      A
 Frequencies --    257.2652               271.9169               282.7590
 Red. masses --      1.0826                 1.0717                 5.0705
 Frc consts  --      0.0422                 0.0467                 0.2389
 IR Inten    --      0.3709                 0.1665                10.6322

                     16                     17                     18
                      A                      A                      A
 Frequencies --    317.1644               323.6882               349.5520
 Red. masses --      6.7790                 3.3787                 2.6377
 Frc consts  --      0.4018                 0.2086                 0.1899
 IR Inten    --      0.9467                12.1663                 0.4566

                     19                     20                     21
                      A                      A                      A
 Frequencies --    355.0432               409.9465               422.2049
 Red. masses --      6.7601                 4.7902                 3.5424
 Frc consts  --      0.5021                 0.4743                 0.3720
 IR Inten    --      0.1762                14.8079                10.9536

                     22                     23                     24
                      A                      A                      A
 Frequencies --    425.6167               444.4154               470.3319
 Red. masses --      3.1847                 3.3618                 2.7881
 Frc consts  --      0.3399                 0.3912                 0.3634
 IR Inten    --      0.0190                 1.1841                 4.9740

                     25                     26                     27
                      A                      A                      A
 Frequencies --    506.4481               522.7293               535.8711
 Red. masses --      3.5531                 9.6695                 5.7021
 Frc consts  --      0.5369                 1.5567                 0.9647
 IR Inten    --     18.7566                 0.2537                13.3550

                     28                     29                     30
                      A                      A                      A
 Frequencies --    544.8342               641.3950               648.1731
 Red. masses --      7.2336                 7.2818                 7.2999
 Frc consts  --      1.2651                 1.7650                 1.8070
 IR Inten    --      1.1689                 1.1282                 2.7732

                     31                     32                     33
                      A                      A                      A
 Frequencies --    695.0737               748.5668               759.1833
 Red. masses --      4.1599                 5.4544                 5.8551
 Frc consts  --      1.1841                 1.8008                 1.9883
 IR Inten    --      8.9112                 1.3785                24.4227

                     34                     35                     36
                      A                      A                      A
 Frequencies --    800.7478               813.0085               824.0800
 Red. masses --     12.0219                 5.5101                10.2833
 Frc consts  --      4.5417                 2.1459                 4.1145
 IR Inten    --      0.0629                31.8470                37.5554

                     37                     38                     39
                      A                      A                      A
 Frequencies --    846.2548               860.8706               877.7446
 Red. masses --      1.2509                 4.2194                 9.1487
 Frc consts  --      0.5278                 1.8424                 4.1528
 IR Inten    --      0.4498                71.6576                22.1149

                     40                     41                     42
                      A                      A                      A
 Frequencies --    884.3832               932.1547               939.9503
 Red. masses --      1.6772                 3.9409                 1.6249
 Frc consts  --      0.7729                 2.0175                 0.8458
 IR Inten    --     45.8126                 1.2514                 0.1214

                     43                     44                     45
                      A                      A                      A
 Frequencies --    945.0813               984.9792               985.5623
 Red. masses --      2.0557                 1.3113                 1.1986
 Frc consts  --      1.0818                 0.7496                 0.6860
 IR Inten    --      0.2654                 0.0946                 0.1450

                     46                     47                     48
                      A                      A                      A
 Frequencies --    995.9442              1035.6424              1067.2091
 Red. masses --      1.3010                 2.7158                 1.4092
 Frc consts  --      0.7603                 1.7162                 0.9457
 IR Inten    --      0.0006                 4.2761                 0.4885

                     49                     50                     51
                      A                      A                      A
 Frequencies --   1074.1018              1136.9473              1140.6916
 Red. masses --      1.4350                 1.5841                 1.9100
 Frc consts  --      0.9754                 1.2065                 1.4642
 IR Inten    --      5.9347                33.4564                42.7627

                     52                     53                     54
                      A                      A                      A
 Frequencies --   1182.0635              1196.7638              1220.2652
 Red. masses --      4.8359                 1.4758                 2.3092
 Frc consts  --      3.9811                 1.2454                 2.0259
 IR Inten    --    759.5303               352.2208                62.1287

                     55                     56                     57
                      A                      A                      A
 Frequencies --   1264.9240              1289.2208              1302.3456
 Red. masses --      4.5715                 2.7234                 2.8400
 Frc consts  --      4.3097                 2.6670                 2.8381
 IR Inten    --    701.6127                16.2730                15.2494

                     58                     59                     60
                      A                      A                      A
 Frequencies --   1326.6262              1341.7262              1382.2928
 Red. masses --      1.3478                 8.6966                 9.2771
 Frc consts  --      1.3976                 9.2242                10.4439
 IR Inten    --      8.6476                16.1826                66.1829

                     61                     62                     63
                      A                      A                      A
 Frequencies --   1400.8045              1426.9053              1430.7244
 Red. masses --     14.0113                 1.2738                 1.2866
 Frc consts  --     16.1989                 1.5281                 1.5517
 IR Inten    --    284.0831                17.4405                17.5988

                     64                     65                     66
                      A                      A                      A
 Frequencies --   1455.7801              1465.1186              1500.4741
 Red. masses --      1.2323                 3.5211                 1.0461
 Frc consts  --      1.5387                 4.4532                 1.3877
 IR Inten    --     12.3834                 2.9298                 0.3899

                     67                     68                     69
                      A                      A                      A
 Frequencies --   1518.6397              1520.4643              1526.9717
 Red. masses --      1.0459                 1.0518                 1.0649
 Frc consts  --      1.4212                 1.4327                 1.4630
 IR Inten    --      0.5406                 0.5722                12.5469

                     70                     71                     72
                      A                      A                      A
 Frequencies --   1533.7237              1536.7063              1555.5803
 Red. masses --      1.0533                 2.3962                 1.0548
 Frc consts  --      1.4598                 3.3339                 1.5038
 IR Inten    --      1.3210                97.5322                10.1801

                     73                     74                     75
                      A                      A                      A
 Frequencies --   1621.2443              1653.2701              1675.7250
 Red. masses --     10.8701                 6.1873                 9.1057
 Frc consts  --     16.8337                 9.9641                15.0650
 IR Inten    --    114.3555                85.6995                94.8773

                     76                     77                     78
                      A                      A                      A
 Frequencies --   1825.0599              1839.1978              3063.3659
 Red. masses --     12.3791                12.9612                 1.0354
 Frc consts  --     24.2937                25.8317                 5.7249
 IR Inten    --    212.4740               225.5053                 6.3932

                     79                     80                     81
                      A                      A                      A
 Frequencies --   3064.6031              3071.3655              3128.7039
 Red. masses --      1.0374                 1.0376                 1.1027
 Frc consts  --      5.7406                 5.7672                 6.3596
 IR Inten    --     19.2986                16.5606                 6.8504

                     82                     83                     84
                      A                      A                      A
 Frequencies --   3130.1635              3142.4547              3143.0037
 Red. masses --      1.1026                 1.1026                 1.1035
 Frc consts  --      6.3649                 6.4153                 6.4229
 IR Inten    --     12.7829                41.3831                23.3026

                     85                     86                     87
                      A                      A                      A
 Frequencies --   3169.8742              3172.8556              3231.7116
 Red. masses --      1.1009                 1.1002                 1.0910
 Frc consts  --      6.5174                 6.5257                 6.7135
 IR Inten    --      0.8879                14.0095                 0.5014

                     88                     89                     90
                      A                      A                      A
 Frequencies --   3254.1519              3259.0431              3298.8215
 Red. masses --      1.0911                 1.0933                 1.0925
 Frc consts  --      6.8078                 6.8415                 7.0049
 IR Inten    --      1.5182                 1.7617                 5.4035

 - Thermochemistry -
 -------------------
 Temperature   298.150 Kelvin.  Pressure   1.00000 Atm.
 Atom     1 has atomic number  6 and mass  12.00000

 Molecular mass:   267.07429 amu.
 Principal axes and moments of inertia in atomic units:
                           1         2         3
     Eigenvalues --  1185.80686********************
           X            1.00000  -0.00145  -0.00000
           Y            0.00145   1.00000   0.00003
           Z            0.00000  -0.00003   1.00000
 This molecule is an asymmetric top.
 Rotational symmetry number  1.
 Warning -- assumption of classical behavior for rotation
           may cause significant error
 Rotational temperatures (Kelvin)      0.07304     0.00580     0.00551
 Rotational constants (GHZ):           1.52195     0.12076     0.11477
 Zero-point vibrational energy     642859.5 (Joules/Mol)
                                  153.64711 (Kcal/Mol)
 Warning -- explicit consideration of  28 degrees of freedom as
           vibrations may cause significant error
 Vibrational temperatures:     12.73    26.11    43.39    84.07    93.30
          (Kelvin)             98.19   159.92   201.22   219.63   266.48
                              300.50   332.42   370.15   391.23   406.83
                              456.33   465.72   502.93   510.83   589.82
                              607.46   612.37   639.41   676.70   728.67
                              752.09   771.00   783.89   922.82   932.58
                             1000.06  1077.02  1092.30  1152.10  1169.74
                             1185.67  1217.57  1238.60  1262.88  1272.43
                             1341.16  1352.38  1359.76  1417.17  1418.00
                             1432.94  1490.06  1535.48  1545.39  1635.81
                             1641.20  1700.73  1721.88  1755.69  1819.94
                             1854.90  1873.78  1908.72  1930.44  1988.81
                             2015.45  2053.00  2058.49  2094.54  2107.98
                             2158.85  2184.98  2187.61  2196.97  2206.69
                             2210.98  2238.13  2332.61  2378.69  2410.99
                             2625.85  2646.20  4407.50  4409.28  4419.01
                             4501.51  4503.61  4521.29  4522.08  4560.74
                             4565.03  4649.71  4682.00  4689.04  4746.27

 Zero-point correction=                           0.244852 (Hartree/Particle)
 Thermal correction to Energy=                    0.263174
 Thermal correction to Enthalpy=                  0.264118
 Thermal correction to Gibbs Free Energy=         0.194753
 Sum of electronic and zero-point Energies=           -970.932845
 Sum of electronic and thermal Energies=              -970.914523
 Sum of electronic and thermal Enthalpies=            -970.913579
 Sum of electronic and thermal Free Energies=         -970.982944

                     E (Thermal)             CV                S
                      KCal/Mol        Cal/Mol-Kelvin    Cal/Mol-Kelvin
 Total                  165.144             67.189            145.991
 Electronic               0.000              0.000              0.000
 Translational            0.889              2.981             42.646
 Rotational               0.889              2.981             33.988
 Vibrational            163.367             61.228             69.357
 Vibration     1          0.593              1.987              8.254
 Vibration     2          0.593              1.986              6.827
 Vibration     3          0.594              1.984              5.819
 Vibration     4          0.596              1.974              4.509
 Vibration     5          0.597              1.971              4.304
 Vibration     6          0.598              1.969              4.203
 Vibration     7          0.607              1.940              3.249
 Vibration     8          0.615              1.913              2.806
 Vibration     9          0.619              1.900              2.639
 Vibration    10          0.631              1.860              2.275
 Vibration    11          0.642              1.827              2.054
 Vibration    12          0.653              1.794              1.871
 Vibration    13          0.667              1.750              1.680
 Vibration    14          0.675              1.725              1.584
 Vibration    15          0.682              1.706              1.517
 Vibration    16          0.704              1.641              1.325
 Vibration    17          0.708              1.628              1.291
 Vibration    18          0.727              1.576              1.168
 Vibration    19          0.731              1.565              1.144
 Vibration    20          0.774              1.449              0.927
 Vibration    21          0.785              1.422              0.885
 Vibration    22          0.787              1.415              0.873
 Vibration    23          0.804              1.373              0.813
 Vibration    24          0.827              1.316              0.737
 Vibration    25          0.862              1.236              0.642
 Vibration    26          0.878              1.200              0.604
 Vibration    27          0.891              1.171              0.574
 Vibration    28          0.900              1.151              0.555

                           ! Non-Optimized Parameters !
 Normal termination of Gaussian 16 at Mon Dec 14 17:14:30 2020.

 ----------------------------------------------------------------------
 # B3LYP/6-311++G(d,p) empiricaldispersion=gd3bj scf=xqc pop=npa geom=c
 heck
 ----------------------------------------------------------------------

 --------------------------------------
 CID_71669781_JID_9388_Energie_neutraal
 --------------------------------------
 Structure from the checkpoint file:  "JID_9388.chk"
 Charge =  0 Multiplicity = 1

 SCF Done:  E(RB3LYP) =  -971.456396620     A.U. after   16 cycles
 Normal termination of Gaussian 16 at Mon Dec 14 17:20:26 2020.

 ----------------------------------------------------------------------
 # B3LYP/6-311++G(d,p) empiricaldispersion=gd3bj scf=xqc pop=npa geom=c
 heck
 ----------------------------------------------------------------------

 ------------------------------------
 CID_71669781_JID_9388_Energie_kation
 ------------------------------------
 Structure from the checkpoint file:  "JID_9388.chk"
 Charge =  1 Multiplicity = 2

 SCF Done:  E(UB3LYP) =  -971.109269420     A.U. after   33 cycles
 SCF Done:  E(UB3LYP) =  -971.109269445     a.u. after    2 cycles
 Normal termination of Gaussian 16 at Mon Dec 14 17:56:38 2020.
 Gaussian 16:  ES64L-G16RevA.03 25-Dec-2016

 ----------------------------------------------------------------------
 # B3LYP/6-311++G(d,p) empiricaldispersion=gd3bj scf=xqc pop=npa geom=c
 heck
 ----------------------------------------------------------------------

 -----------------------------------
 CID_71669781_JID_9388_Energie_anion
 -----------------------------------
 Structure from the checkpoint file:  "JID_9388.chk"
 Charge = -1 Multiplicity = 2

                         Standard orientation:
 ---------------------------------------------------------------------
 Center     Atomic      Atomic             Coordinates (Angstroms)
 Number     Number       Type             X           Y           Z
 ---------------------------------------------------------------------
      1          6           0        5.502631   -1.452995   -0.000152
      2          6           0        4.769849   -0.113932   -0.000132
      3          6           0        5.067586    0.680153    1.271708
      4          6           0        5.067279    0.679971   -1.272152
      5          8           0        3.346362   -0.530885    0.000106
      6          6           0        2.368972    0.364826    0.000055
      7          8           0        2.451685    1.571432   -0.000177
      8          6           0        1.014896   -0.383773    0.000490
      9          8           0        0.894146   -1.581271    0.001465
     10          8           0        0.025684    0.537469   -0.000341
     11          6           0       -1.329888    0.252148   -0.000152
     12          6           0       -2.127147    1.402690    0.000242
     13          6           0       -3.508657    1.285478    0.000293
     14          6           0       -4.070882    0.009326   -0.000074
     15          6           0       -3.285204   -1.138769   -0.000453
     16          6           0       -1.896818   -1.027139   -0.000494
     17          7           0       -5.531799   -0.125078   -0.000059
     18          8           0       -6.199477    0.909208    0.000315
     19          8           0       -6.001628   -1.262674   -0.000418
     20          1           0        6.584006   -1.283868   -0.000287
     21          1           0        5.239719   -2.036193   -0.887670
     22          1           0        5.239927   -2.036116    0.887478
     23          1           0        6.143304    0.877301    1.328077
     24          1           0        4.537419    1.633565    1.279571
     25          1           0        4.780386    0.102890    2.156564
     26          1           0        4.779610    0.102697   -2.156850
     27          1           0        4.537365    1.633524   -1.279939
     28          1           0        6.143030    0.876821   -1.328933
     29          1           0       -1.642467    2.372452    0.000507
     30          1           0       -4.152451    2.155469    0.000619
     31          1           0       -3.763705   -2.109814   -0.000743
     32          1           0       -1.273430   -1.907315   -0.000670
 ---------------------------------------------------------------------

 SCF Done:  E(UB3LYP) =  -971.511967582     A.U. after   23 cycles

 The electronic state is 2-A.
 Alpha  occ. eigenvalues --  -19.06958 -19.06719 -19.00197 -18.99231 -18.98725
 Alpha  occ. eigenvalues --  -18.98721 -14.37099 -10.19163 -10.17961 -10.16993
 Alpha  occ. eigenvalues --  -10.12524 -10.09445 -10.08953 -10.08953 -10.08758
 Alpha  occ. eigenvalues --  -10.06590 -10.06525 -10.06325 -10.06139  -1.06600
 Alpha  occ. eigenvalues --   -1.01563  -0.99487  -0.92555  -0.91441  -0.89444
 Alpha  occ. eigenvalues --   -0.75590  -0.74177  -0.67472  -0.64433  -0.62658
 Alpha  occ. eigenvalues --   -0.62537  -0.60462  -0.56427  -0.51769  -0.50459
 Alpha  occ. eigenvalues --   -0.46067  -0.44384  -0.42541  -0.40790  -0.39432
 Alpha  occ. eigenvalues --   -0.38659  -0.38376  -0.37850  -0.37124  -0.36920
 Alpha  occ. eigenvalues --   -0.36018  -0.34231  -0.34200  -0.33718  -0.33459
 Alpha  occ. eigenvalues --   -0.32275  -0.31940  -0.30901  -0.30430  -0.30028
 Alpha  occ. eigenvalues --   -0.28300  -0.27944  -0.26677  -0.26526  -0.25098
 Alpha  occ. eigenvalues --   -0.24026  -0.22889  -0.21423  -0.20755  -0.17127
 Alpha  occ. eigenvalues --   -0.15976  -0.15121  -0.14705  -0.14027  -0.13505
 Alpha  occ. eigenvalues --    0.00148
 Alpha virt. eigenvalues --    0.04210   0.05200   0.07774   0.07828   0.08465
 Alpha virt. eigenvalues --    0.09477   0.09725   0.10390   0.10632   0.10996
 Alpha virt. eigenvalues --    0.11781   0.11965   0.12254   0.12578   0.13666

  Beta  occ. eigenvalues --  -19.07053 -19.06669 -18.99988 -18.98899 -18.98400
  Beta  occ. eigenvalues --  -18.98398 -14.36708 -10.19056 -10.17742 -10.16996
  Beta  occ. eigenvalues --  -10.12340 -10.09445 -10.08950 -10.08950 -10.08680
  Beta  occ. eigenvalues --  -10.06609 -10.06462 -10.06244 -10.06162  -1.05917
  Beta  occ. eigenvalues --   -1.01361  -0.99386  -0.92175  -0.91059  -0.88836
  Beta  occ. eigenvalues --   -0.75395  -0.74145  -0.67045  -0.64280  -0.62653
  Beta  occ. eigenvalues --   -0.62531  -0.59892  -0.56135  -0.51513  -0.50244
  Beta  occ. eigenvalues --   -0.45829  -0.44298  -0.42437  -0.40355  -0.39182
  Beta  occ. eigenvalues --   -0.38550  -0.37596  -0.36896  -0.36475  -0.36239
  Beta  occ. eigenvalues --   -0.35662  -0.34074  -0.33945  -0.33585  -0.33282
  Beta  occ. eigenvalues --   -0.32249  -0.31898  -0.30679  -0.30289  -0.29994
  Beta  occ. eigenvalues --   -0.28269  -0.27682  -0.26648  -0.25561  -0.24985
  Beta  occ. eigenvalues --   -0.23944  -0.21999  -0.20756  -0.20561  -0.15653
  Beta  occ. eigenvalues --   -0.15291  -0.14421  -0.14237  -0.13706  -0.12705
  Beta virt. eigenvalues --    0.05195   0.05376   0.07344   0.07766   0.07900
  Beta virt. eigenvalues --    0.08458   0.09648   0.09714   0.10401   0.10624
  Beta virt. eigenvalues --    0.10982   0.11813   0.11957   0.12266   0.13655

 Mulliken charges and spin densities:
               1          2
     1  C   -0.369967  -0.001885
     2  C   -0.167020  -0.003854
     3  C   -0.374244  -0.000110
     4  C   -0.374482  -0.000117
     5  O    0.156714   0.004315
     6  C   -0.101720   0.069393
     7  O   -0.281174   0.072031
     8  C   -0.153835   0.160940
     9  O   -0.301239   0.120737
    10  O   -0.045502  -0.041489
    11  C   -0.220840   0.096744
    12  C   -0.221221  -0.011189
    13  C    0.210337   0.089997
    14  C   -0.571627  -0.012550
    15  C   -0.402148   0.101962
    16  C    0.456606  -0.016301
    17  N   -0.236121   0.131194
    18  O   -0.140791   0.122427
    19  O   -0.132668   0.122093
    20  H    0.125023  -0.000099
    21  H    0.161058   0.000449
    22  H    0.161068   0.000451
    23  H    0.142422   0.001040
    24  H    0.194871   0.001169
    25  H    0.141754  -0.000268
    26  H    0.141756  -0.000267
    27  H    0.194863   0.001162
    28  H    0.142393   0.001038
    29  H    0.178148   0.001079
    30  H    0.227223  -0.004757
    31  H    0.227961  -0.005255
    32  H    0.232403  -0.000080
 Sum of Mulliken charges =  -1.00000   1.00000

 Dipole moment (field-independent basis, Debye):
    X=             14.9201    Y=              0.6563    Z=             -0.0015  Tot=             14.9345
 Quadrupole moment (field-independent basis, Debye-Ang):
   XX=           -222.0614   YY=           -126.9164   ZZ=           -114.3495
   XY=             -4.6812   XZ=             -0.0028   YZ=              0.0069

 Summary of Natural Population Analysis:

                                       Natural Population
                Natural  -----------------------------------------------
    Atom  No    Charge         Core      Valence    Rydberg      Total
 -----------------------------------------------------------------------
      C    1   -0.28939      0.99961     2.28385    0.00593     3.28939
      C    2    0.13544      0.99955     1.85432    0.01070     2.86456
      C    3   -0.30191      0.99961     2.29690    0.00540     3.30191
      C    4   -0.30191      0.99961     2.29690    0.00540     3.30191
      O    5   -0.27936      0.99985     3.26874    0.01077     4.27936
      C    6    0.37533      0.99970     1.60023    0.02475     2.62467
      O    7   -0.28301      0.99987     3.27741    0.00573     4.28301
      C    8    0.38789      0.99969     1.58904    0.02338     2.61211
      O    9   -0.25795      0.99987     3.25203    0.00606     4.25795
      O   10   -0.27180      0.99984     3.26274    0.00923     4.27180
      C   11    0.18420      0.99937     1.80553    0.01090     2.81580
      C   12   -0.12632      0.99954     2.11815    0.00863     3.12632
      C   13   -0.08010      0.99954     2.07110    0.00946     3.08010
      C   14    0.04253      0.99939     1.94689    0.01118     2.95747
      C   15   -0.07340      0.99954     2.06444    0.00942     3.07340
      C   16   -0.14040      0.99953     2.13250    0.00837     3.14040
      N   17    0.28104      0.99972     2.19175    0.02749     3.21896
      O   18   -0.19733      0.99990     3.18962    0.00782     4.19733
      O   19   -0.19647      0.99990     3.18878    0.00779     4.19647
      H   20    0.09565      0.00000     0.40358    0.00077     0.40435
      H   21    0.10514      0.00000     0.39404    0.00082     0.39486
      H   22    0.10514      0.00000     0.39404    0.00082     0.39486
      H   23    0.09649      0.00000     0.40271    0.00080     0.40351
      H   24    0.11649      0.00000     0.38255    0.00096     0.38351
      H   25    0.10278      0.00000     0.39638    0.00084     0.39722
      H   26    0.10278      0.00000     0.39638    0.00084     0.39722
      H   27    0.11649      0.00000     0.38255    0.00096     0.38351
      H   28    0.09649      0.00000     0.40271    0.00080     0.40351
      H   29    0.10569      0.00000     0.39336    0.00095     0.39431
      H   30    0.11422      0.00000     0.38456    0.00122     0.38578
      H   31    0.11395      0.00000     0.38485    0.00120     0.38605
      H   32    0.12163      0.00000     0.37732    0.00105     0.37837
 =======================================================================
   * Total *    0.00000     18.99359    50.78596    0.22045    70.00000

 Normal termination of Gaussian 16 at Mon Dec 14 18:08:51 2020.
