 Gaussian 16, Revision A.03,

 -----------------------------------------------------------
 # opt freq B3LYP/6-31G(d) empiricaldispersion=gd3bj scf=xqc
 -----------------------------------------------------------

 -------------------------------
 CID_21178576_JID_10063_neutraal
 -------------------------------
 Symbolic Z-matrix:
 Charge =  0 Multiplicity = 1

 SCF Done:  E(RB3LYP) =  -912.662543644     A.U. after   15 cycles
 SCF Done:  E(RB3LYP) =  -912.634385801     A.U. after   15 cycles
 SCF Done:  E(RB3LYP) =  -912.673038961     A.U. after   13 cycles
 SCF Done:  E(RB3LYP) =  -912.673769872     A.U. after   13 cycles
 SCF Done:  E(RB3LYP) =  -912.674759899     A.U. after   13 cycles
 SCF Done:  E(RB3LYP) =  -912.675659105     A.U. after   12 cycles
 SCF Done:  E(RB3LYP) =  -912.675961399     A.U. after   13 cycles
 SCF Done:  E(RB3LYP) =  -912.676021776     A.U. after   12 cycles
 SCF Done:  E(RB3LYP) =  -912.676190774     A.U. after   12 cycles
 SCF Done:  E(RB3LYP) =  -912.676277688     A.U. after   11 cycles
 SCF Done:  E(RB3LYP) =  -912.676863246     A.U. after   10 cycles
 SCF Done:  E(RB3LYP) =  -912.676864054     A.U. after    9 cycles
 SCF Done:  E(RB3LYP) =  -912.676864376     A.U. after    9 cycles
 SCF Done:  E(RB3LYP) =  -912.676864566     A.U. after    8 cycles
 SCF Done:  E(RB3LYP) =  -912.676864405     A.U. after    7 cycles
 Optimization completed.
    -- Stationary point found.
 Normal termination of Gaussian 16 at Sat Dec 12 15:14:36 2020.

 --------------------------------------------------------------------
 #N Geom=AllCheck Guess=TCheck SCRF=Check GenChk RB3LYP/6-31G(d) Freq
 --------------------------------------------------------------------

 Structure from the checkpoint file:  "JID_10063.chk"
 -------------------------------
 CID_21178576_JID_10063_neutraal
 -------------------------------
 Charge =  0 Multiplicity = 1

 SCF Done:  E(RB3LYP) =  -912.676864405     A.U. after    1 cycles

  Exact polarizability: 168.081 -20.158 171.015 -24.625 -18.051 147.299
 Approx polarizability: 276.842 -52.981 304.338 -52.614 -42.993 238.366

                      1                      2                      3
                      A                      A                      A
 Frequencies --     23.8912                35.2565                66.7746
 Red. masses --      4.4704                 5.7226                 4.1047
 Frc consts  --      0.0015                 0.0042                 0.0108
 IR Inten    --      0.7015                 0.0419                 1.4486

                      4                      5                      6
                      A                      A                      A
 Frequencies --     77.0370                95.5415                98.2597
 Red. masses --      4.5063                 1.4945                 3.4543
 Frc consts  --      0.0158                 0.0080                 0.0196
 IR Inten    --      0.1853                 3.9049                 0.7807

                      7                      8                      9
                      A                      A                      A
 Frequencies --    111.6805               120.5412               165.8081
 Red. masses --      2.4852                 3.1844                 5.9390
 Frc consts  --      0.0183                 0.0273                 0.0962
 IR Inten    --      4.6853                 1.7331                 3.9083

                     10                     11                     12
                      A                      A                      A
 Frequencies --    178.1355               211.4841               219.3215
 Red. masses --      2.2243                 2.7637                 1.9476
 Frc consts  --      0.0416                 0.0728                 0.0552
 IR Inten    --      0.4736                 2.2492                 2.1400

                     13                     14                     15
                      A                      A                      A
 Frequencies --    266.7150               277.0427               320.4004
 Red. masses --      4.3570                 3.5224                 2.5054
 Frc consts  --      0.1826                 0.1593                 0.1515
 IR Inten    --      3.0231                 5.5155                 3.8102

                     16                     17                     18
                      A                      A                      A
 Frequencies --    331.3619               346.1007               374.6131
 Red. masses --      2.2563                 2.4206                 3.0445
 Frc consts  --      0.1460                 0.1708                 0.2517
 IR Inten    --     17.2352                 9.2332                29.1169

                     19                     20                     21
                      A                      A                      A
 Frequencies --    393.6758               406.8683               420.5203
 Red. masses --      3.3141                 2.7115                 2.9901
 Frc consts  --      0.3026                 0.2645                 0.3115
 IR Inten    --      7.8441                22.7604                 1.7494

                     22                     23                     24
                      A                      A                      A
 Frequencies --    427.4709               446.4718               468.6969
 Red. masses --      6.2843                 6.3592                 7.0829
 Frc consts  --      0.6766                 0.7469                 0.9167
 IR Inten    --     47.6222                 7.2181                 6.1136

                     25                     26                     27
                      A                      A                      A
 Frequencies --    485.5770               491.2728               511.4677
 Red. masses --      3.2806                 2.9090                 1.3741
 Frc consts  --      0.4557                 0.4137                 0.2118
 IR Inten    --      6.1338                13.9087               142.5449

                     28                     29                     30
                      A                      A                      A
 Frequencies --    539.8398               599.6722               636.8033
 Red. masses --      5.0156                 5.3860                 6.3334
 Frc consts  --      0.8612                 1.1411                 1.5132
 IR Inten    --     10.6481                 1.1332                 0.3683

                     31                     32                     33
                      A                      A                      A
 Frequencies --    671.5906               674.0601               712.5098
 Red. masses --      7.8203                 8.0723                 2.5811
 Frc consts  --      2.0782                 2.1609                 0.7720
 IR Inten    --      4.4996                19.5558                 7.9780

                     34                     35                     36
                      A                      A                      A
 Frequencies --    723.8743               730.1358               745.8072
 Red. masses --      3.2565                 4.3503                10.3797
 Frc consts  --      1.0054                 1.3664                 3.4016
 IR Inten    --     42.4381                 4.7166                34.5109

                     37                     38                     39
                      A                      A                      A
 Frequencies --    754.4732               787.6714               848.1528
 Red. masses --      1.8896                 5.2603                 3.8768
 Frc consts  --      0.6337                 1.9229                 1.6431
 IR Inten    --     27.0440                15.2217                17.4439

                     40                     41                     42
                      A                      A                      A
 Frequencies --    862.3814               900.4283               919.5343
 Red. masses --      1.2814                 1.6624                 1.9533
 Frc consts  --      0.5615                 0.7941                 0.9731
 IR Inten    --      2.1168                18.6103                 4.3733

                     43                     44                     45
                      A                      A                      A
 Frequencies --    926.2778               968.1087               977.0655
 Red. masses --      2.6182                 1.3575                 2.7928
 Frc consts  --      1.3235                 0.7496                 1.5709
 IR Inten    --      9.4033                 1.1848                11.9790

                     46                     47                     48
                      A                      A                      A
 Frequencies --    982.5860               988.4816              1013.0173
 Red. masses --      3.0826                 1.2869                 1.9367
 Frc consts  --      1.7535                 0.7409                 1.1710
 IR Inten    --      3.1205                 1.1774                 1.9950

                     49                     50                     51
                      A                      A                      A
 Frequencies --   1023.8525              1060.9594              1079.7317
 Red. masses --      5.6832                 2.2334                 2.5217
 Frc consts  --      3.5101                 1.4812                 1.7321
 IR Inten    --      0.5426                 0.8606                13.1873

                     52                     53                     54
                      A                      A                      A
 Frequencies --   1084.3756              1116.4554              1165.0442
 Red. masses --      2.2977                 1.5568                 1.2809
 Frc consts  --      1.5919                 1.1433                 1.0243
 IR Inten    --     16.0123                 2.5703                 0.3559

                     55                     56                     57
                      A                      A                      A
 Frequencies --   1168.8267              1175.9806              1192.2539
 Red. masses --      1.3001                 1.7118                 1.0984
 Frc consts  --      1.0465                 1.3948                 0.9199
 IR Inten    --      1.7265                 9.9066                 0.0914

                     58                     59                     60
                      A                      A                      A
 Frequencies --   1215.5784              1222.3056              1238.6830
 Red. masses --      1.1469                 2.6249                 3.7777
 Frc consts  --      0.9985                 2.3106                 3.4151
 IR Inten    --      1.1187                 1.9684                49.3079

                     61                     62                     63
                      A                      A                      A
 Frequencies --   1265.0248              1291.1695              1309.4511
 Red. masses --      1.3077                 3.9938                 7.1952
 Frc consts  --      1.2330                 3.9229                 7.2689
 IR Inten    --      2.7330                 5.8707                 2.7153

                     64                     65                     66
                      A                      A                      A
 Frequencies --   1314.7728              1356.4667              1368.2867
 Red. masses --      3.2304                 2.5020                 1.6385
 Frc consts  --      3.2900                 2.7124                 1.8074
 IR Inten    --     10.0715                 2.8525                 1.7873

                     67                     68                     69
                      A                      A                      A
 Frequencies --   1384.3195              1408.4901              1425.3571
 Red. masses --      1.3453                 2.8820                 1.2318
 Frc consts  --      1.5189                 3.3686                 1.4745
 IR Inten    --      8.1650                62.9896                 4.6921

                     70                     71                     72
                      A                      A                      A
 Frequencies --   1445.0483              1478.2773              1499.3770
 Red. masses --      1.2625                 1.5972                 1.6728
 Frc consts  --      1.5532                 2.0564                 2.2157
 IR Inten    --      4.4290                96.3023                 2.4204

                     73                     74                     75
                      A                      A                      A
 Frequencies --   1506.6445              1514.3248              1522.9040
 Red. masses --      1.3223                 1.5786                 1.1243
 Frc consts  --      1.7685                 2.1328                 1.5363
 IR Inten    --     32.3335                89.1938                14.8222

                     76                     77                     78
                      A                      A                      A
 Frequencies --   1532.2496              1537.0139              1546.7628
 Red. masses --      1.0997                 1.1880                 2.1694
 Frc consts  --      1.5212                 1.6536                 3.0579
 IR Inten    --     28.5954                54.1967                 9.4900

                     79                     80                     81
                      A                      A                      A
 Frequencies --   1549.6922              1643.8779              1645.2279
 Red. masses --      1.3546                 4.7182                 3.0458
 Frc consts  --      1.9167                 7.5122                 4.8574
 IR Inten    --    158.3757                28.3771               112.6853

                     82                     83                     84
                      A                      A                      A
 Frequencies --   1665.6430              1699.5860              1711.1583
 Red. masses --      5.4778                 1.8033                 5.8672
 Frc consts  --      8.9541                 3.0691                10.1218
 IR Inten    --      4.7844               304.2387                42.1305

                     85                     86                     87
                      A                      A                      A
 Frequencies --   1744.4340              1796.3469              3035.7542
 Red. masses --     11.1375                10.6674                 1.0835
 Frc consts  --     19.9685                20.2809                 5.8831
 IR Inten    --    597.2441               222.5977                67.1762

                     88                     89                     90
                      A                      A                      A
 Frequencies --   3052.3097              3054.1658              3082.7541
 Red. masses --      1.0633                 1.0429                 1.0389
 Frc consts  --      5.8365                 5.7316                 5.8168
 IR Inten    --     53.0874                38.7511                24.6962

                     91                     92                     93
                      A                      A                      A
 Frequencies --   3099.2005              3124.5123              3153.5788
 Red. masses --      1.1005                 1.1004                 1.1000
 Frc consts  --      6.2278                 6.3295                 6.4455
 IR Inten    --      5.6597                13.5719                16.2860

                     94                     95                     96
                      A                      A                      A
 Frequencies --   3176.9301              3185.1934              3194.2911
 Red. masses --      1.0846                 1.0872                 1.0915
 Frc consts  --      6.4498                 6.4987                 6.5616
 IR Inten    --      1.7051                 2.4573                18.6979

                     97                     98                     99
                      A                      A                      A
 Frequencies --   3201.2694              3208.7310              3209.3860
 Red. masses --      1.0937                 1.0979                 1.0977
 Frc consts  --      6.6040                 6.6603                 6.6613
 IR Inten    --     26.9031                 2.4238                10.5310

                    100                    101                    102
                      A                      A                      A
 Frequencies --   3214.1481              3587.3620              3692.6238
 Red. masses --      1.1030                 1.0470                 1.1011
 Frc consts  --      6.7134                 7.9385                 8.8460
 IR Inten    --      0.4659                41.7294                29.4673

 - Thermochemistry -
 -------------------
 Temperature   298.150 Kelvin.  Pressure   1.00000 Atm.
 Atom     1 has atomic number  6 and mass  12.00000

 Molecular mass:   272.12733 amu.
 Principal axes and moments of inertia in atomic units:
                           1         2         3
     Eigenvalues --  3909.237064863.964135306.99184
           X            0.99992  -0.00980  -0.00854
           Y            0.00849   0.98975  -0.14253
           Z            0.00985   0.14245   0.98975
 This molecule is an asymmetric top.
 Rotational symmetry number  1.
 Warning -- assumption of classical behavior for rotation
           may cause significant error
 Rotational temperatures (Kelvin)      0.02216     0.01781     0.01632
 Rotational constants (GHZ):           0.46166     0.37104     0.34007
 Zero-point vibrational energy     768676.2 (Joules/Mol)
                                  183.71802 (Kcal/Mol)
 Warning -- explicit consideration of  29 degrees of freedom as
           vibrations may cause significant error
 Vibrational temperatures:     34.37    50.73    96.07   110.84   137.46
          (Kelvin)            141.37   160.68   173.43   238.56   256.30
                              304.28   315.55   383.74   398.60   460.98
                              476.76   497.96   538.98   566.41   585.39
                              605.03   615.04   642.37   674.35   698.64
                              706.83   735.89   776.71   862.79   916.22
                              966.27   969.82  1025.14  1041.49  1050.50
                             1073.05  1085.52  1133.28  1220.30  1240.77
                             1295.52  1323.00  1332.71  1392.89  1405.78
                             1413.72  1422.20  1457.51  1473.10  1526.48
                             1553.49  1560.17  1606.33  1676.24  1681.68
                             1691.97  1715.39  1748.95  1758.63  1782.19
                             1820.09  1857.70  1884.01  1891.66  1951.65
                             1968.66  1991.73  2026.50  2050.77  2079.10
                             2126.91  2157.27  2167.73  2178.78  2191.12
                             2204.57  2211.42  2225.45  2229.66  2365.17
                             2367.12  2396.49  2445.33  2461.98  2509.85
                             2584.54  4367.77  4391.59  4394.26  4435.40
                             4459.06  4495.48  4537.30  4570.89  4582.78
                             4595.87  4605.91  4616.65  4617.59  4624.44
                             5161.41  5312.86

 Zero-point correction=                           0.292773 (Hartree/Particle)
 Thermal correction to Energy=                    0.311107
 Thermal correction to Enthalpy=                  0.312051
 Thermal correction to Gibbs Free Energy=         0.246029
 Sum of electronic and zero-point Energies=           -912.384091
 Sum of electronic and thermal Energies=              -912.365757
 Sum of electronic and thermal Enthalpies=            -912.364813
 Sum of electronic and thermal Free Energies=         -912.430835

                     E (Thermal)             CV                S
                      KCal/Mol        Cal/Mol-Kelvin    Cal/Mol-Kelvin
 Total                  195.223             70.137            138.956
 Electronic               0.000              0.000              0.000
 Translational            0.889              2.981             42.702
 Rotational               0.889              2.981             32.978
 Vibrational            193.445             64.175             63.275
 Vibration     1          0.593              1.985              6.281
 Vibration     2          0.594              1.982              5.509
 Vibration     3          0.598              1.970              4.246
 Vibration     4          0.599              1.964              3.965
 Vibration     5          0.603              1.952              3.543
 Vibration     6          0.604              1.950              3.489
 Vibration     7          0.607              1.940              3.239
 Vibration     8          0.609              1.932              3.092
 Vibration     9          0.624              1.884              2.482
 Vibration    10          0.629              1.869              2.348
 Vibration    11          0.643              1.823              2.031
 Vibration    12          0.647              1.812              1.965
 Vibration    13          0.672              1.734              1.617
 Vibration    14          0.678              1.716              1.552
 Vibration    15          0.706              1.635              1.308
 Vibration    16          0.714              1.613              1.253
 Vibration    17          0.724              1.583              1.184
 Vibration    18          0.746              1.524              1.061
 Vibration    19          0.761              1.484              0.986
 Vibration    20          0.772              1.455              0.938
 Vibration    21          0.783              1.426              0.890
 Vibration    22          0.789              1.410              0.867
 Vibration    23          0.806              1.369              0.807
 Vibration    24          0.826              1.319              0.741
 Vibration    25          0.842              1.282              0.695
 Vibration    26          0.847              1.269              0.680
 Vibration    27          0.867              1.225              0.630
 Vibration    28          0.895              1.162              0.566
 Vibration    29          0.958              1.032              0.450

                           ! Non-Optimized Parameters !
 Normal termination of Gaussian 16 at Sat Dec 12 15:37:51 2020.

 ----------------------------------------------------------------------
 # B3LYP/6-311++G(d,p) empiricaldispersion=gd3bj scf=xqc pop=npa geom=c
 heck
 ----------------------------------------------------------------------

 ---------------------------------------
 CID_21178576_JID_10063_Energie_neutraal
 ---------------------------------------
 Structure from the checkpoint file:  "JID_10063.chk"
 Charge =  0 Multiplicity = 1

 SCF Done:  E(RB3LYP) =  -912.930917094     A.U. after   17 cycles
 Normal termination of Gaussian 16 at Sat Dec 12 15:46:49 2020.

 ----------------------------------------------------------------------
 # B3LYP/6-311++G(d,p) empiricaldispersion=gd3bj scf=xqc pop=npa geom=c
 heck
 ----------------------------------------------------------------------

 -------------------------------------
 CID_21178576_JID_10063_Energie_kation
 -------------------------------------
 Structure from the checkpoint file:  "JID_10063.chk"
 Charge =  1 Multiplicity = 2

 SCF Done:  E(UB3LYP) =  -912.642308545     A.U. after   26 cycles
 Normal termination of Gaussian 16 at Sat Dec 12 16:06:02 2020.
 Gaussian 16:  ES64L-G16RevA.03 25-Dec-2016

 ----------------------------------------------------------------------
 # B3LYP/6-311++G(d,p) empiricaldispersion=gd3bj scf=xqc pop=npa geom=c
 heck
 ----------------------------------------------------------------------

 ------------------------------------
 CID_21178576_JID_10063_Energie_anion
 ------------------------------------
 Structure from the checkpoint file:  "JID_10063.chk"
 Charge = -1 Multiplicity = 2

                         Standard orientation:
 ---------------------------------------------------------------------
 Center     Atomic      Atomic             Coordinates (Angstroms)
 Number     Number       Type             X           Y           Z
 ---------------------------------------------------------------------
      1          6           0       -2.250965    2.027668   -1.149097
      2          7           0       -1.658625    0.704848   -0.959467
      3          6           0       -0.459837    0.379286   -1.556675
      4          6           0        0.214808   -0.774153   -1.234504
      5          6           0       -0.326341   -1.674567   -0.248839
      6          8           0        0.214079   -2.711756    0.127668
      7          7           0       -1.584033   -1.298247    0.288149
      8          6           0       -2.243309   -0.119072    0.020036
      9          8           0       -3.277037    0.201392    0.588555
     10          6           0       -2.184529   -2.146750    1.317974
     11          6           0        1.549582   -1.031220   -1.826017
     12          7           0        2.676220   -1.162112   -1.242940
     13          6           0        2.774775   -1.051779    0.219308
     14          6           0        2.024611    0.111364    0.847522
     15          6           0        1.135525   -0.090770    1.908811
     16          6           0        0.395404    0.969588    2.433520
     17          6           0        0.543879    2.254246    1.909053
     18          6           0        1.453437    2.472307    0.871324
     19          6           0        2.191165    1.410300    0.351674
     20          7           0        0.066051    1.323362   -2.404713
     21          1           0       -3.088660    2.101288   -0.459508
     22          1           0       -1.508891    2.800064   -0.927761
     23          1           0       -2.626129    2.149944   -2.171893
     24          1           0       -2.123275   -1.654540    2.293114
     25          1           0       -3.235103   -2.320603    1.081015
     26          1           0       -1.624411   -3.078728    1.332213
     27          1           0        1.582290   -1.102960   -2.922278
     28          1           0        2.421448   -1.994536    0.650977
     29          1           0        3.843451   -0.963223    0.448061
     30          1           0        0.991938   -1.096336    2.293323
     31          1           0       -0.306258    0.789764    3.243541
     32          1           0       -0.037229    3.079540    2.311041
     33          1           0        1.585855    3.471305    0.464198
     34          1           0        2.879952    1.580803   -0.471383
     35          1           0       -0.570621    1.875350   -2.961293
     36          1           0        0.912792    1.052134   -2.884897
 ---------------------------------------------------------------------

 SCF Done:  E(UB3LYP) =  -912.931134412     A.U. after   33 cycles
 SCF Done:  E(UB3LYP) =  -912.931134411     a.u. after    1 cycles

 The electronic state is 2-A.
 Alpha  occ. eigenvalues --  -19.00924 -18.99671 -14.28464 -14.27547 -14.24066
 Alpha  occ. eigenvalues --  -14.20559 -10.22360 -10.18686 -10.18382 -10.11532
 Alpha  occ. eigenvalues --  -10.11528 -10.10755 -10.09953 -10.09230 -10.08866
 Alpha  occ. eigenvalues --  -10.08623 -10.08534 -10.08388 -10.08144 -10.07805
 Alpha  occ. eigenvalues --   -0.98682  -0.94775  -0.90296  -0.85223  -0.82459
 Alpha  occ. eigenvalues --   -0.81400  -0.76727  -0.70376  -0.67614  -0.65835
 Alpha  occ. eigenvalues --   -0.63973  -0.62085  -0.60186  -0.56609  -0.54685
 Alpha  occ. eigenvalues --   -0.51943  -0.50714  -0.49287  -0.46950  -0.43467
 Alpha  occ. eigenvalues --   -0.42794  -0.41592  -0.40820  -0.40171  -0.38058
 Alpha  occ. eigenvalues --   -0.37298  -0.36792  -0.36686  -0.36062  -0.35487
 Alpha  occ. eigenvalues --   -0.34489  -0.33652  -0.33282  -0.31926  -0.31192
 Alpha  occ. eigenvalues --   -0.31098  -0.30707  -0.30047  -0.29865  -0.28187
 Alpha  occ. eigenvalues --   -0.27085  -0.25988  -0.25522  -0.21267  -0.20496
 Alpha  occ. eigenvalues --   -0.19370  -0.18094  -0.17233  -0.16637  -0.16189
 Alpha  occ. eigenvalues --   -0.15043  -0.12499   0.03808
 Alpha virt. eigenvalues --    0.06287   0.06540   0.06946   0.07228   0.07542
 Alpha virt. eigenvalues --    0.08030   0.08525   0.08980   0.09312   0.09617
 Alpha virt. eigenvalues --    0.10416   0.10674   0.10940   0.11452   0.12102

  Beta  occ. eigenvalues --  -19.00914 -18.99672 -14.28466 -14.27549 -14.23937
  Beta  occ. eigenvalues --  -14.20491 -10.22354 -10.18682 -10.18366 -10.11526
  Beta  occ. eigenvalues --  -10.11504 -10.10681 -10.09956 -10.09225 -10.08864
  Beta  occ. eigenvalues --  -10.08614 -10.08524 -10.08386 -10.08140 -10.07810
  Beta  occ. eigenvalues --   -0.98666  -0.94771  -0.90243  -0.85204  -0.82362
  Beta  occ. eigenvalues --   -0.81258  -0.76711  -0.70319  -0.67591  -0.65824
  Beta  occ. eigenvalues --   -0.63921  -0.62014  -0.60153  -0.56572  -0.54627
  Beta  occ. eigenvalues --   -0.51927  -0.50681  -0.49226  -0.46880  -0.43383
  Beta  occ. eigenvalues --   -0.42751  -0.41504  -0.40790  -0.40097  -0.38032
  Beta  occ. eigenvalues --   -0.37271  -0.36770  -0.36654  -0.36029  -0.35450
  Beta  occ. eigenvalues --   -0.34460  -0.33623  -0.33267  -0.31895  -0.31158
  Beta  occ. eigenvalues --   -0.31058  -0.30666  -0.30025  -0.29817  -0.28143
  Beta  occ. eigenvalues --   -0.27031  -0.25968  -0.25500  -0.21102  -0.20456
  Beta  occ. eigenvalues --   -0.19296  -0.18075  -0.17227  -0.16627  -0.16137
  Beta  occ. eigenvalues --   -0.14976  -0.12450
  Beta virt. eigenvalues --    0.06388   0.06594   0.06829   0.07201   0.07513
  Beta virt. eigenvalues --    0.08007   0.08508   0.08649   0.09265   0.09676
  Beta virt. eigenvalues --    0.10017   0.10441   0.10797   0.11172   0.12037

 Mulliken charges and spin densities:
               1          2
     1  C    1.253985  -1.573543
     2  N   -0.235866   0.154732
     3  C    1.494819  -0.736972
     4  C    0.954481  -0.066148
     5  C   -1.521607   0.183416
     6  O   -0.271853  -0.000522
     7  N    0.038940   0.022704
     8  C    0.170601  -0.052214
     9  O   -0.321242   0.002900
    10  C   -0.236657   0.001137
    11  C   -0.327261  -0.449390
    12  N    0.000265   0.039530
    13  C   -0.463785  -0.314885
    14  C    0.680063  -0.011645
    15  C   -0.570267   0.348493
    16  C   -0.424158   0.133476
    17  C    0.197651  -0.614522
    18  C   -0.269276   0.004417
    19  C    0.031131  -0.145416
    20  N   -0.402455   0.084613
    21  H    0.161939   0.033333
    22  H   -0.145305   0.322486
    23  H   -0.777836   0.974546
    24  H    0.171093   0.009943
    25  H    0.160194   0.025414
    26  H    0.160989   0.008053
    27  H   -0.109924   0.311264
    28  H    0.237042  -0.007363
    29  H    0.177359   0.007602
    30  H    0.166630   0.019453
    31  H    0.146663   0.016919
    32  H    0.063838   0.088205
    33  H   -0.320548   0.507286
    34  H    0.056193   0.122991
    35  H   -0.563629   0.881257
    36  H   -0.362205   0.668450
 Sum of Mulliken charges =  -1.00000   1.00000

 Dipole moment (field-independent basis, Debye):
    X=              0.5618    Y=             -4.7372    Z=              8.9905  Tot=             10.1777
 Quadrupole moment (field-independent basis, Debye-Ang):
   XX=           -163.7768   YY=           -168.8074   ZZ=           -173.0357
   XY=             10.7451   XZ=             -2.3051   YZ=             16.7012

 Summary of Natural Population Analysis:

                                       Natural Population
                Natural  -----------------------------------------------
    Atom  No    Charge         Core      Valence    Rydberg      Total
 -----------------------------------------------------------------------
      C    1   -0.18487      0.99963     2.17639    0.00885     3.18487
      N    2   -0.23909      0.99960     2.72924    0.01024     3.73909
      C    3    0.24540      0.99947     1.73850    0.01662     2.75460
      C    4   -0.17136      0.99940     2.15946    0.01251     3.17136
      C    5    0.33609      0.99956     1.64118    0.02317     2.66391
      O    6   -0.33325      0.99988     3.32845    0.00492     4.33325
      N    7   -0.25553      0.99961     2.74795    0.00797     3.75553
      C    8    0.42071      0.99965     1.55724    0.02240     2.57929
      O    9   -0.32626      0.99988     3.32186    0.00452     4.32626
      C   10   -0.17937      0.99965     2.17310    0.00662     3.17937
      C   11    0.06565      0.99960     1.91639    0.01836     2.93435
      N   12   -0.21121      0.99970     2.70033    0.01117     3.71121
      C   13   -0.11638      0.99952     2.10534    0.01152     3.11638
      C   14   -0.02542      0.99951     2.01417    0.01174     3.02542
      C   15   -0.09157      0.99947     2.08585    0.00625     3.09157
      C   16   -0.11013      0.99958     2.09807    0.01248     3.11013
      C   17   -0.10917      0.99956     2.09952    0.01009     3.10917
      C   18   -0.09666      0.99956     2.08670    0.01040     3.09666
      C   19   -0.09900      0.99950     2.08945    0.01005     3.09900
      N   20   -0.38337      0.99970     2.87358    0.01009     3.88337
      H   21    0.11942      0.00000     0.37945    0.00112     0.38058
      H   22    0.10537      0.00000     0.39278    0.00185     0.39463
      H   23    0.10423      0.00000     0.39298    0.00279     0.39577
      H   24    0.09668      0.00000     0.40218    0.00114     0.40332
      H   25    0.10212      0.00000     0.39699    0.00089     0.39788
      H   26    0.11314      0.00000     0.38580    0.00106     0.38686
      H   27    0.08673      0.00000     0.41141    0.00187     0.41327
      H   28    0.11294      0.00000     0.38565    0.00141     0.38706
      H   29    0.09590      0.00000     0.40291    0.00120     0.40410
      H   30    0.10259      0.00000     0.39605    0.00136     0.39741
      H   31    0.09920      0.00000     0.39975    0.00106     0.40080
      H   32    0.10088      0.00000     0.39828    0.00084     0.39912
      H   33    0.10390      0.00000     0.39513    0.00098     0.39610
      H   34    0.10542      0.00000     0.39307    0.00151     0.39458
      H   35    0.21232      0.00000     0.25114    0.03654     0.28768
      H   36    0.20405      0.00000     0.28991    0.00604     0.29595
 =======================================================================
   * Total *    0.00009     19.99203    51.71624    0.29164    71.99991

 Normal termination of Gaussian 16 at Sat Dec 12 16:29:06 2020.
