 Gaussian 16, Revision A.03,

 -----------------------------------------------------------
 # opt freq B3LYP/6-31G(d) empiricaldispersion=gd3bj scf=xqc
 -----------------------------------------------------------

 ------------------------------
 CID_90917373_JID_4618_neutraal
 ------------------------------
 Symbolic Z-matrix:
 Charge =  0 Multiplicity = 1

 SCF Done:  E(RB3LYP) =  -636.988292438     A.U. after   18 cycles
 SCF Done:  E(RB3LYP) =  -636.992940764     A.U. after   14 cycles
 SCF Done:  E(RB3LYP) =  -636.993833743     A.U. after   15 cycles
 SCF Done:  E(RB3LYP) =  -636.994057657     A.U. after   15 cycles
 SCF Done:  E(RB3LYP) =  -636.994894586     A.U. after   14 cycles
 SCF Done:  E(RB3LYP) =  -636.996294616     A.U. after   14 cycles
 SCF Done:  E(RB3LYP) =  -636.997613948     A.U. after   15 cycles
 SCF Done:  E(RB3LYP) =  -636.998047714     A.U. after   14 cycles
 SCF Done:  E(RB3LYP) =  -636.998498631     A.U. after   14 cycles
 SCF Done:  E(RB3LYP) =  -636.998984120     A.U. after   15 cycles
 SCF Done:  E(RB3LYP) =  -636.999409785     A.U. after   13 cycles
 SCF Done:  E(RB3LYP) =  -636.999411368     A.U. after   12 cycles
 SCF Done:  E(RB3LYP) =  -636.999411648     A.U. after   10 cycles
 SCF Done:  E(RB3LYP) =  -636.999411955     A.U. after    9 cycles
 SCF Done:  E(RB3LYP) =  -636.999411987     A.U. after    9 cycles
 Optimization completed.
    -- Stationary point found.
 Normal termination of Gaussian 16 at Thu Dec 10 10:49:18 2020.

 --------------------------------------------------------------------
 #N Geom=AllCheck Guess=TCheck SCRF=Check GenChk RB3LYP/6-31G(d) Freq
 --------------------------------------------------------------------

 Structure from the checkpoint file:  "JID_4618.chk"
 ------------------------------
 CID_90917373_JID_4618_neutraal
 ------------------------------
 Charge =  0 Multiplicity = 1

 SCF Done:  E(RB3LYP) =  -636.999411987     A.U. after    1 cycles

  Exact polarizability: 144.696   4.179 121.610  -2.701   1.085 111.333
 Approx polarizability: 175.839   7.458 184.549  -4.351   4.387 172.718

                      1                      2                      3
                      A                      A                      A
 Frequencies --     12.7085                34.1240                37.6135
 Red. masses --      3.7571                 3.6581                 4.7067
 Frc consts  --      0.0004                 0.0025                 0.0039
 IR Inten    --      1.4105                 1.9438                 0.7500

                      4                      5                      6
                      A                      A                      A
 Frequencies --     56.4059                74.7861               101.1901
 Red. masses --      3.6763                 3.9916                 2.7035
 Frc consts  --      0.0069                 0.0132                 0.0163
 IR Inten    --      0.3394                 0.1236                 0.3638

                      7                      8                      9
                      A                      A                      A
 Frequencies --    108.7814               143.7896               160.2153
 Red. masses --      3.3552                 2.7835                 4.7467
 Frc consts  --      0.0234                 0.0339                 0.0718
 IR Inten    --      0.0746                 1.0139                 0.4565

                     10                     11                     12
                      A                      A                      A
 Frequencies --    204.6020               208.9312               222.0456
 Red. masses --      1.8693                 1.3571                 1.7372
 Frc consts  --      0.0461                 0.0349                 0.0505
 IR Inten    --      0.7837                 0.1254                 0.8112

                     13                     14                     15
                      A                      A                      A
 Frequencies --    248.8345               263.1504               270.3538
 Red. masses --      1.2391                 2.7478                 3.0353
 Frc consts  --      0.0452                 0.1121                 0.1307
 IR Inten    --      1.1158                 1.9117                 6.4721

                     16                     17                     18
                      A                      A                      A
 Frequencies --    286.0670               321.8436               334.7646
 Red. masses --      1.7580                 2.2640                 2.4933
 Frc consts  --      0.0848                 0.1382                 0.1646
 IR Inten    --      1.9476                 1.0105                 0.1446

                     19                     20                     21
                      A                      A                      A
 Frequencies --    379.3019               438.4104               474.1467
 Red. masses --      2.3055                 2.0067                 2.9007
 Frc consts  --      0.1954                 0.2272                 0.3842
 IR Inten    --      1.8899                 1.2853                 3.0718

                     22                     23                     24
                      A                      A                      A
 Frequencies --    515.6691               528.4805               555.8236
 Red. masses --      4.4478                 2.9144                 3.2258
 Frc consts  --      0.6968                 0.4796                 0.5872
 IR Inten    --      4.6694                 2.0950                 9.2413

                     25                     26                     27
                      A                      A                      A
 Frequencies --    661.6093               693.7359               732.9852
 Red. masses --      2.8065                 3.8278                 1.4339
 Frc consts  --      0.7238                 1.0854                 0.4539
 IR Inten    --      4.2683                 1.4502                15.9430

                     28                     29                     30
                      A                      A                      A
 Frequencies --    767.0917               778.9316               802.5106
 Red. masses --      3.5252                 1.7098                 2.9579
 Frc consts  --      1.2221                 0.6112                 1.1224
 IR Inten    --      7.9110                 0.0405                 5.5298

                     31                     32                     33
                      A                      A                      A
 Frequencies --    820.5162               860.3755               881.1598
 Red. masses --      1.2240                 1.8603                 1.7705
 Frc consts  --      0.4855                 0.8114                 0.8100
 IR Inten    --      1.3062                14.1799                 2.2770

                     34                     35                     36
                      A                      A                      A
 Frequencies --    906.9012               957.2509               963.2692
 Red. masses --      2.2044                 1.5121                 1.9031
 Frc consts  --      1.0682                 0.8164                 1.0404
 IR Inten    --      2.7308                 3.6029                32.9900

                     37                     38                     39
                      A                      A                      A
 Frequencies --    996.3365              1026.3874              1029.1381
 Red. masses --      1.7326                 1.4986                 2.0938
 Frc consts  --      1.0134                 0.9302                 1.3066
 IR Inten    --      4.0338                 3.5027                47.1417

                     40                     41                     42
                      A                      A                      A
 Frequencies --   1039.5124              1062.2828              1080.0948
 Red. masses --      1.6478                 1.5017                 1.7848
 Frc consts  --      1.0491                 0.9984                 1.2268
 IR Inten    --      4.5393                 0.7074                 1.0046

                     43                     44                     45
                      A                      A                      A
 Frequencies --   1093.5507              1116.7598              1137.3771
 Red. masses --      1.5267                 1.9106                 1.8992
 Frc consts  --      1.0757                 1.4039                 1.4475
 IR Inten    --      2.9650                12.1213                 2.5039

                     46                     47                     48
                      A                      A                      A
 Frequencies --   1155.7558              1173.5744              1218.8714
 Red. masses --      2.1159                 2.1549                 1.8281
 Frc consts  --      1.6652                 1.7487                 1.6002
 IR Inten    --      0.4677                 2.5827                34.9461

                     49                     50                     51
                      A                      A                      A
 Frequencies --   1227.8824              1242.5378              1272.4058
 Red. masses --      1.4113                 1.4964                 1.5071
 Frc consts  --      1.2537                 1.3612                 1.4376
 IR Inten    --      2.2246                 8.5115                 5.2339

                     52                     53                     54
                      A                      A                      A
 Frequencies --   1289.6616              1302.4462              1314.9856
 Red. masses --      1.2815                 1.2658                 1.3141
 Frc consts  --      1.2558                 1.2651                 1.3388
 IR Inten    --      0.5577                10.1337                26.1275

                     55                     56                     57
                      A                      A                      A
 Frequencies --   1338.7351              1351.7686              1353.4432
 Red. masses --      1.2741                 1.2706                 1.4455
 Frc consts  --      1.3454                 1.3679                 1.5601
 IR Inten    --      0.7650                 3.4137                 7.2673

                     58                     59                     60
                      A                      A                      A
 Frequencies --   1360.3086              1386.4344              1393.9817
 Red. masses --      1.5621                 1.4833                 1.4677
 Frc consts  --      1.7030                 1.6799                 1.6804
 IR Inten    --     10.4287                 4.0036                 7.2531

                     61                     62                     63
                      A                      A                      A
 Frequencies --   1415.8446              1420.4558              1434.7764
 Red. masses --      1.4243                 1.4305                 1.2170
 Frc consts  --      1.6822                 1.7005                 1.4761
 IR Inten    --      2.4516                 1.5029                 4.8610

                     64                     65                     66
                      A                      A                      A
 Frequencies --   1443.1463              1444.9437              1508.8964
 Red. masses --      1.2276                 1.2716                 1.0761
 Frc consts  --      1.5064                 1.5642                 1.4436
 IR Inten    --      5.7007                 6.3919                 8.2833

                     67                     68                     69
                      A                      A                      A
 Frequencies --   1511.6620              1520.5519              1527.1123
 Red. masses --      1.0780                 1.0695                 1.0538
 Frc consts  --      1.4514                 1.4569                 1.4480
 IR Inten    --      5.3785                 1.7367                 3.6087

                     70                     71                     72
                      A                      A                      A
 Frequencies --   1528.8949              1531.1279              1532.2494
 Red. masses --      1.0423                 1.0814                 1.0544
 Frc consts  --      1.4355                 1.4937                 1.4585
 IR Inten    --      5.5495                 8.9762                 6.5328

                     73                     74                     75
                      A                      A                      A
 Frequencies --   1535.5305              1539.3727              1541.4791
 Red. masses --      1.0667                 1.0527                 1.0557
 Frc consts  --      1.4819                 1.4697                 1.4779
 IR Inten    --      9.8335                 2.3423                 3.4944

                     76                     77                     78
                      A                      A                      A
 Frequencies --   1544.9456              1674.1349              1794.5543
 Red. masses --      1.0747                13.2547                11.5455
 Frc consts  --      1.5114                21.8878                21.9067
 IR Inten    --      3.4985                93.9890               113.3413

                     79                     80                     81
                      A                      A                      A
 Frequencies --   3028.0032              3034.7232              3038.2560
 Red. masses --      1.0638                 1.0726                 1.0696
 Frc consts  --      5.7470                 5.8203                 5.8175
 IR Inten    --     14.1351                17.4068                21.6730

                     82                     83                     84
                      A                      A                      A
 Frequencies --   3041.7351              3045.4531              3048.6886
 Red. masses --      1.0639                 1.0419                 1.0765
 Frc consts  --      5.7995                 5.6934                 5.8953
 IR Inten    --     27.4626                16.4535                 8.7481

                     85                     86                     87
                      A                      A                      A
 Frequencies --   3057.4473              3059.8316              3062.3450
 Red. masses --      1.0350                 1.0862                 1.0712
 Frc consts  --      5.7004                 5.9916                 5.9186
 IR Inten    --     19.2144                 8.6857                 6.9275

                     88                     89                     90
                      A                      A                      A
 Frequencies --   3066.4459              3070.5634              3077.9162
 Red. masses --      1.0458                 1.0969                 1.0600
 Frc consts  --      5.7940                 6.0933                 5.9164
 IR Inten    --     13.3737                38.2905                16.6761

                     91                     92                     93
                      A                      A                      A
 Frequencies --   3080.2998              3102.6358              3110.3654
 Red. masses --      1.0971                 1.0984                 1.1015
 Frc consts  --      6.1331                 6.2297                 6.2786
 IR Inten    --     81.9245                44.6266                51.4413

                     94                     95                     96
                      A                      A                      A
 Frequencies --   3116.8434              3117.1214              3129.9407
 Red. masses --      1.1028                 1.1019                 1.1018
 Frc consts  --      6.3120                 6.3079                 6.3594
 IR Inten    --      4.3904                42.5707                38.9162

                     97                     98                     99
                      A                      A                      A
 Frequencies --   3132.0282              3138.2787              3141.6912
 Red. masses --      1.1024                 1.1044                 1.1026
 Frc consts  --      6.3717                 6.4087                 6.4121
 IR Inten    --     20.7011                27.1572                19.9360

 - Thermochemistry -
 -------------------
 Temperature   298.150 Kelvin.  Pressure   1.00000 Atm.
 Atom     1 has atomic number  6 and mass  12.00000

 Molecular mass:   199.15723 amu.
 Principal axes and moments of inertia in atomic units:
                           1         2         3
     Eigenvalues --  1924.237974816.995835525.66865
           X            0.99992  -0.00406  -0.01158
           Y            0.00431   0.99976   0.02135
           Z            0.01149  -0.02140   0.99970
 This molecule is an asymmetric top.
 Rotational symmetry number  1.
 Warning -- assumption of classical behavior for rotation
           may cause significant error
 Rotational temperatures (Kelvin)      0.04501     0.01798     0.01567
 Rotational constants (GHZ):           0.93790     0.37466     0.32661
 Zero-point vibrational energy     818980.8 (Joules/Mol)
                                  195.74111 (Kcal/Mol)
 Warning -- explicit consideration of  24 degrees of freedom as
           vibrations may cause significant error
 Vibrational temperatures:     18.28    49.10    54.12    81.16   107.60
          (Kelvin)            145.59   156.51   206.88   230.51   294.38
                              300.61   319.47   358.02   378.61   388.98
                              411.59   463.06   481.65   545.73   630.77
                              682.19   741.93   760.37   799.71   951.91
                              998.13  1054.60  1103.67  1120.71  1154.63
                             1180.54  1237.89  1267.79  1304.83  1377.27
                             1385.93  1433.51  1476.74  1480.70  1495.63
                             1528.39  1554.02  1573.38  1606.77  1636.43
                             1662.87  1688.51  1753.68  1766.65  1787.73
                             1830.71  1855.54  1873.93  1891.97  1926.14
                             1944.89  1947.30  1957.18  1994.77  2005.63
                             2037.08  2043.72  2064.32  2076.37  2078.95
                             2170.97  2174.94  2187.74  2197.17  2199.74
                             2202.95  2204.57  2209.29  2214.81  2217.84
                             2222.83  2408.71  2581.96  4356.62  4366.29
                             4371.37  4376.38  4381.73  4386.38  4398.98
                             4402.42  4406.03  4411.93  4417.86  4428.43
                             4431.86  4464.00  4475.12  4484.44  4484.84
                             4503.29  4506.29  4515.28  4520.19

 Zero-point correction=                           0.311933 (Hartree/Particle)
 Thermal correction to Energy=                    0.328903
 Thermal correction to Enthalpy=                  0.329847
 Thermal correction to Gibbs Free Energy=         0.265042
 Sum of electronic and zero-point Energies=           -636.687479
 Sum of electronic and thermal Energies=              -636.670509
 Sum of electronic and thermal Enthalpies=            -636.669565
 Sum of electronic and thermal Free Energies=         -636.734370

                     E (Thermal)             CV                S
                      KCal/Mol        Cal/Mol-Kelvin    Cal/Mol-Kelvin
 Total                  206.390             60.961            136.396
 Electronic               0.000              0.000              0.000
 Translational            0.889              2.981             41.772
 Rotational               0.889              2.981             32.304
 Vibrational            204.612             54.999             62.319
 Vibration     1          0.593              1.987              7.535
 Vibration     2          0.594              1.983              5.574
 Vibration     3          0.594              1.982              5.381
 Vibration     4          0.596              1.975              4.579
 Vibration     5          0.599              1.966              4.023
 Vibration     6          0.604              1.948              3.431
 Vibration     7          0.606              1.942              3.291
 Vibration     8          0.616              1.909              2.753
 Vibration     9          0.622              1.891              2.547
 Vibration    10          0.640              1.833              2.091
 Vibration    11          0.642              1.827              2.053
 Vibration    12          0.648              1.808              1.942
 Vibration    13          0.662              1.765              1.739
 Vibration    14          0.670              1.740              1.641
 Vibration    15          0.674              1.728              1.594
 Vibration    16          0.684              1.700              1.497
 Vibration    17          0.707              1.632              1.301
 Vibration    18          0.716              1.606              1.237
 Vibration    19          0.749              1.514              1.042
 Vibration    20          0.799              1.386              0.832
 Vibration    21          0.831              1.307              0.726
 Vibration    22          0.871              1.215              0.620
 Vibration    23          0.883              1.187              0.591
 Vibration    24          0.911              1.127              0.532

                           ! Non-Optimized Parameters !
 Normal termination of Gaussian 16 at Thu Dec 10 11:00:30 2020.

 ----------------------------------------------------------------------
 # B3LYP/6-311++G(d,p) empiricaldispersion=gd3bj scf=xqc pop=npa geom=c
 heck
 ----------------------------------------------------------------------

 --------------------------------------
 CID_90917373_JID_4618_Energie_neutraal
 --------------------------------------
 Structure from the checkpoint file:  "JID_4618.chk"
 Charge =  0 Multiplicity = 1

 SCF Done:  E(RB3LYP) =  -637.184229714     A.U. after   16 cycles
 Normal termination of Gaussian 16 at Thu Dec 10 11:06:58 2020.

 ----------------------------------------------------------------------
 # B3LYP/6-311++G(d,p) empiricaldispersion=gd3bj scf=xqc pop=npa geom=c
 heck
 ----------------------------------------------------------------------

 ------------------------------------
 CID_90917373_JID_4618_Energie_kation
 ------------------------------------
 Structure from the checkpoint file:  "JID_4618.chk"
 Charge =  1 Multiplicity = 2

 SCF Done:  E(UB3LYP) =  -636.872924617     A.U. after   28 cycles
 Normal termination of Gaussian 16 at Thu Dec 10 11:22:02 2020.
 Gaussian 16:  ES64L-G16RevA.03 25-Dec-2016

 ----------------------------------------------------------------------
 # B3LYP/6-311++G(d,p) empiricaldispersion=gd3bj scf=xqc pop=npa geom=c
 heck
 ----------------------------------------------------------------------

 -----------------------------------
 CID_90917373_JID_4618_Energie_anion
 -----------------------------------
 Structure from the checkpoint file:  "JID_4618.chk"
 Charge = -1 Multiplicity = 2

                         Standard orientation:
 ---------------------------------------------------------------------
 Center     Atomic      Atomic             Coordinates (Angstroms)
 Number     Number       Type             X           Y           Z
 ---------------------------------------------------------------------
      1          6           0        4.564266   -0.684402   -0.215824
      2          6           0        3.197168   -1.110300   -0.758854
      3          6           0        2.185668   -1.496297    0.331181
      4          6           0        1.869264   -0.384829    1.346099
      5          6           0        1.351200    0.924178    0.731251
      6          6           0        0.142772    0.741824   -0.179859
      7          6           0       -1.111476    0.100611    0.455456
      8          6           0       -1.793319    1.028756    1.468482
      9          6           0       -2.017584   -0.458741   -0.659364
     10          8           0       -1.517069   -0.942503   -1.659355
     11          6           0       -3.519682   -0.507648   -0.446007
     12          6           0       -3.902010   -1.670811    0.489245
     13          7           0       -0.341565    2.000604   -0.840284
     14          8           0        0.373936    2.964530   -0.679227
     15          1           0        4.497073    0.232088    0.381035
     16          1           0        5.270412   -0.493724   -1.031296
     17          1           0        4.994448   -1.465201    0.423714
     18          1           0        2.785787   -0.304845   -1.381563
     19          1           0        3.325386   -1.969141   -1.429848
     20          1           0        1.257682   -1.830843   -0.151781
     21          1           0        2.571154   -2.365559    0.881493
     22          1           0        1.139021   -0.768296    2.071363
     23          1           0        2.768113   -0.154497    1.930844
     24          1           0        1.110003    1.636875    1.529105
     25          1           0        2.143307    1.402621    0.146209
     26          1           0        0.393247    0.112661   -1.045107
     27          1           0       -0.768001   -0.797265    0.988724
     28          1           0       -2.185292    1.927465    0.981677
     29          1           0       -2.618289    0.531701    1.985962
     30          1           0       -1.076759    1.349771    2.231052
     31          1           0       -3.882069    0.439459   -0.032988
     32          1           0       -3.978791   -0.654672   -1.427338
     33          1           0       -3.458501   -1.557766    1.484502
     34          1           0       -4.988490   -1.721038    0.611044
     35          1           0       -3.561025   -2.624293    0.072995
 ---------------------------------------------------------------------

 SCF Done:  E(UB3LYP) =  -637.199058979     A.U. after   33 cycles
 SCF Done:  E(UB3LYP) =  -637.199058979     a.u. after    1 cycles

 The electronic state is 2-A.
 Alpha  occ. eigenvalues --  -18.98543 -18.94037 -14.17602 -10.13529 -10.06836
 Alpha  occ. eigenvalues --  -10.06762 -10.06606 -10.06551 -10.05867 -10.05747
 Alpha  occ. eigenvalues --  -10.05444 -10.04357 -10.03813 -10.03456  -0.93625
 Alpha  occ. eigenvalues --   -0.91969  -0.70814  -0.68973  -0.66973  -0.63807
 Alpha  occ. eigenvalues --   -0.59617  -0.56318  -0.54670  -0.51892  -0.50504
 Alpha  occ. eigenvalues --   -0.45350  -0.42171  -0.38233  -0.37457  -0.36190
 Alpha  occ. eigenvalues --   -0.36046  -0.34532  -0.33448  -0.32157  -0.31742
 Alpha  occ. eigenvalues --   -0.30562  -0.29697  -0.29259  -0.28667  -0.27277
 Alpha  occ. eigenvalues --   -0.27066  -0.26249  -0.25831  -0.25355  -0.24609
 Alpha  occ. eigenvalues --   -0.24259  -0.23697  -0.22517  -0.21997  -0.21475
 Alpha  occ. eigenvalues --   -0.20347  -0.18887  -0.18099  -0.12646  -0.02066
 Alpha  occ. eigenvalues --    0.04466
 Alpha virt. eigenvalues --    0.06520   0.06868   0.08169   0.08996   0.09394
 Alpha virt. eigenvalues --    0.09773   0.10259   0.10569   0.11229   0.11689
 Alpha virt. eigenvalues --    0.12190   0.12729   0.13212   0.13352   0.14102

  Beta  occ. eigenvalues --  -18.98504 -18.93213 -14.16655 -10.13517 -10.06802
  Beta  occ. eigenvalues --  -10.06760 -10.06603 -10.06547 -10.05861 -10.05708
  Beta  occ. eigenvalues --  -10.05441 -10.04341 -10.03862 -10.03453  -0.92087
  Beta  occ. eigenvalues --   -0.91799  -0.70755  -0.68901  -0.66892  -0.63787
  Beta  occ. eigenvalues --   -0.59402  -0.56051  -0.54601  -0.51825  -0.49842
  Beta  occ. eigenvalues --   -0.44996  -0.41912  -0.37888  -0.37409  -0.36065
  Beta  occ. eigenvalues --   -0.35717  -0.34408  -0.33159  -0.32058  -0.31627
  Beta  occ. eigenvalues --   -0.30495  -0.29514  -0.29219  -0.28408  -0.27119
  Beta  occ. eigenvalues --   -0.26941  -0.26127  -0.25549  -0.25128  -0.24389
  Beta  occ. eigenvalues --   -0.23722  -0.22775  -0.22201  -0.21858  -0.20332
  Beta  occ. eigenvalues --   -0.19911  -0.17970  -0.17049  -0.12582  -0.01114
  Beta virt. eigenvalues --    0.06673   0.06984   0.08266   0.08900   0.09380
  Beta virt. eigenvalues --    0.09758   0.10391   0.10556   0.11332   0.11622
  Beta virt. eigenvalues --    0.12105   0.12680   0.13196   0.13255   0.14040

 Mulliken charges and spin densities:
               1          2
     1  C   -0.495108  -0.138619
     2  C   -0.245676   0.052708
     3  C   -0.299417   0.028164
     4  C   -0.114380  -0.231176
     5  C   -0.364805  -0.032064
     6  C    0.289408  -0.345476
     7  C    0.195895   0.454990
     8  C   -0.550278  -0.390019
     9  C   -0.154394  -0.296317
    10  O   -0.203336   0.007680
    11  C   -0.760903   0.641717
    12  C    0.346262  -0.885108
    13  N   -0.394423   0.458740
    14  O   -0.123506   0.264386
    15  H    0.141666  -0.000415
    16  H    0.106525   0.017011
    17  H    0.095126   0.026418
    18  H    0.144257   0.023828
    19  H    0.112058   0.019567
    20  H    0.167382   0.031998
    21  H    0.039089   0.078669
    22  H   -0.026170   0.178943
    23  H    0.121840   0.011533
    24  H    0.180463  -0.025478
    25  H    0.140293   0.050427
    26  H    0.300503   0.017450
    27  H    0.248165  -0.108671
    28  H    0.161784   0.033338
    29  H    0.031340   0.097822
    30  H    0.101799   0.010348
    31  H    0.093380   0.053302
    32  H    0.108204   0.067276
    33  H   -0.141505   0.275885
    34  H   -0.319911   0.470710
    35  H    0.068377   0.080430
 Sum of Mulliken charges =  -1.00000   1.00000

 Dipole moment (field-independent basis, Debye):
    X=              3.1313    Y=             -4.1510    Z=              2.8319  Tot=              5.9208
 Quadrupole moment (field-independent basis, Debye-Ang):
   XX=           -126.9441   YY=           -128.2137   ZZ=           -110.6872
   XY=             -7.8916   XZ=              0.4962   YZ=              7.0297

 Summary of Natural Population Analysis:

                                       Natural Population
                Natural  -----------------------------------------------
    Atom  No    Charge         Core      Valence    Rydberg      Total
 -----------------------------------------------------------------------
      C    1   -0.28744      0.99967     2.28323    0.00454     3.28744
      C    2   -0.19364      0.99964     2.18636    0.00763     3.19364
      C    3   -0.19163      0.99963     2.18424    0.00777     3.19163
      C    4   -0.19225      0.99963     2.18274    0.00988     3.19225
      C    5   -0.20469      0.99960     2.19396    0.01113     3.20469
      C    6   -0.06481      0.99957     2.04767    0.01756     3.06481
      C    7   -0.15828      0.99952     2.14380    0.01497     3.15828
      C    8   -0.29278      0.99965     2.28579    0.00734     3.29278
      C    9    0.30514      0.99963     1.66913    0.02610     2.69486
      O   10   -0.29333      0.99987     3.28693    0.00653     4.29333
      C   11   -0.23758      0.99959     2.22769    0.01030     3.23758
      C   12   -0.28292      0.99966     2.27868    0.00458     3.28292
      N   13    0.12697      0.99979     2.34385    0.02939     3.37303
      O   14   -0.11926      0.99990     3.10821    0.01116     4.11926
      H   15    0.09799      0.00000     0.40086    0.00115     0.40201
      H   16    0.09506      0.00000     0.40404    0.00091     0.40494
      H   17    0.09095      0.00000     0.40790    0.00114     0.40905
      H   18    0.10135      0.00000     0.39722    0.00143     0.39865
      H   19    0.09177      0.00000     0.40701    0.00122     0.40823
      H   20    0.10369      0.00000     0.39506    0.00125     0.39631
      H   21    0.08904      0.00000     0.40983    0.00113     0.41096
      H   22    0.09336      0.00000     0.40547    0.00116     0.40664
      H   23    0.08983      0.00000     0.40906    0.00111     0.41017
      H   24    0.10004      0.00000     0.39849    0.00147     0.39996
      H   25    0.10580      0.00000     0.39238    0.00181     0.39420
      H   26    0.11314      0.00000     0.38443    0.00243     0.38686
      H   27    0.10755      0.00000     0.39030    0.00215     0.39245
      H   28    0.10956      0.00000     0.38935    0.00109     0.39044
      H   29    0.09310      0.00000     0.40613    0.00077     0.40690
      H   30    0.09975      0.00000     0.39939    0.00086     0.40025
      H   31    0.10486      0.00000     0.39374    0.00140     0.39514
      H   32    0.10448      0.00000     0.39385    0.00167     0.39552
      H   33    0.09840      0.00000     0.40055    0.00105     0.40160
      H   34    0.09846      0.00000     0.40040    0.00113     0.40154
      H   35    0.09831      0.00000     0.40065    0.00104     0.40169
 =======================================================================
   * Total *   -0.00000     13.99536    40.80839    0.19625    55.00000

 Normal termination of Gaussian 16 at Thu Dec 10 11:39:40 2020.
