 Gaussian 16, Revision A.03,

 -----------------------------------------------------------
 # opt freq B3LYP/6-31G(d) empiricaldispersion=gd3bj scf=xqc
 -----------------------------------------------------------

 -------------------------------
 CID_107756695_JID_5583_neutraal
 -------------------------------
 Symbolic Z-matrix:
 Charge =  0 Multiplicity = 1

 SCF Done:  E(RB3LYP) =  -1403.83293022     A.U. after   16 cycles
 SCF Done:  E(RB3LYP) =  -1403.84496969     A.U. after   14 cycles
 SCF Done:  E(RB3LYP) =  -1403.84752669     A.U. after   13 cycles
 SCF Done:  E(RB3LYP) =  -1403.84805146     A.U. after   13 cycles
 SCF Done:  E(RB3LYP) =  -1403.84703484     A.U. after   14 cycles
 SCF Done:  E(RB3LYP) =  -1403.84815129     A.U. after   13 cycles
 SCF Done:  E(RB3LYP) =  -1403.84905112     A.U. after   15 cycles
 SCF Done:  E(RB3LYP) =  -1403.84959493     A.U. after   12 cycles
 SCF Done:  E(RB3LYP) =  -1403.84994209     A.U. after   13 cycles
 SCF Done:  E(RB3LYP) =  -1403.85168908     A.U. after   14 cycles
 SCF Done:  E(RB3LYP) =  -1403.86255563     A.U. after   12 cycles
 SCF Done:  E(RB3LYP) =  -1403.86265852     A.U. after   12 cycles
 SCF Done:  E(RB3LYP) =  -1403.86265798     A.U. after   10 cycles
 SCF Done:  E(RB3LYP) =  -1403.86266343     A.U. after   10 cycles
 SCF Done:  E(RB3LYP) =  -1403.86266356     A.U. after    9 cycles
 Optimization completed.
    -- Stationary point found.
 Normal termination of Gaussian 16 at Thu Dec 10 17:10:03 2020.

 --------------------------------------------------------------------
 #N Geom=AllCheck Guess=TCheck SCRF=Check GenChk RB3LYP/6-31G(d) Freq
 --------------------------------------------------------------------

 Structure from the checkpoint file:  "JID_5583.chk"
 -------------------------------
 CID_107756695_JID_5583_neutraal
 -------------------------------
 Charge =  0 Multiplicity = 1

 SCF Done:  E(RB3LYP) =  -1403.86266356     A.U. after    1 cycles

  Exact polarizability: 160.601  -4.930 141.506  14.612   1.653 122.656
 Approx polarizability: 238.040  -2.448 260.277  38.389  16.608 210.139

                      1                      2                      3
                      A                      A                      A
 Frequencies --     20.1382                40.3113                59.0658
 Red. masses --      5.5851                 3.8377                 5.5348
 Frc consts  --      0.0013                 0.0037                 0.0114
 IR Inten    --      0.5605                 1.1816                 1.0225

                      4                      5                      6
                      A                      A                      A
 Frequencies --     82.5594               119.4399               132.5008
 Red. masses --      4.0340                 4.7106                 5.4293
 Frc consts  --      0.0162                 0.0396                 0.0562
 IR Inten    --      0.4499                 2.7943                 1.0374

                      7                      8                      9
                      A                      A                      A
 Frequencies --    161.3487               190.4231               208.4709
 Red. masses --      5.1463                 3.6314                 1.9257
 Frc consts  --      0.0789                 0.0776                 0.0493
 IR Inten    --      5.9773                 1.3172                 2.3049

                     10                     11                     12
                      A                      A                      A
 Frequencies --    217.5529               241.1043               246.1769
 Red. masses --      2.8428                 2.6929                 1.5974
 Frc consts  --      0.0793                 0.0922                 0.0570
 IR Inten    --      2.3642                 6.4137                 4.5167

                     13                     14                     15
                      A                      A                      A
 Frequencies --    292.3086               303.1020               343.8515
 Red. masses --      2.5523                 1.7800                 3.1380
 Frc consts  --      0.1285                 0.0963                 0.2186
 IR Inten    --      5.9520                 7.7490                 2.6719

                     16                     17                     18
                      A                      A                      A
 Frequencies --    349.3354               369.5537               411.5349
 Red. masses --      3.1957                 5.3912                 6.0676
 Frc consts  --      0.2298                 0.4338                 0.6055
 IR Inten    --      6.5466                20.2027                 5.6213

                     19                     20                     21
                      A                      A                      A
 Frequencies --    452.7874               488.1244               547.8859
 Red. masses --      4.5246                 3.4602                 3.6060
 Frc consts  --      0.5465                 0.4857                 0.6378
 IR Inten    --      2.0731                51.2303                 5.6162

                     22                     23                     24
                      A                      A                      A
 Frequencies --    557.1981               582.9208               611.6549
 Red. masses --      6.0424                 4.3746                 4.1516
 Frc consts  --      1.1053                 0.8758                 0.9151
 IR Inten    --      7.7037                75.7045                57.3986

                     25                     26                     27
                      A                      A                      A
 Frequencies --    659.3492               674.0930               708.2281
 Red. masses --      2.9663                 4.2298                 2.2551
 Frc consts  --      0.7598                 1.1324                 0.6664
 IR Inten    --      2.1138                 9.3032                66.2853

                     28                     29                     30
                      A                      A                      A
 Frequencies --    713.4206               736.0866               831.0194
 Red. masses --      3.6257                 4.1013                 9.5653
 Frc consts  --      1.0873                 1.3093                 3.8920
 IR Inten    --     16.5867                 5.5438                43.3083

                     31                     32                     33
                      A                      A                      A
 Frequencies --    865.7957               884.1144               898.3469
 Red. masses --      1.6417                 2.2133                 1.9522
 Frc consts  --      0.7251                 1.0193                 0.9282
 IR Inten    --      0.4723                23.3590                 3.7132

                     34                     35                     36
                      A                      A                      A
 Frequencies --    916.4651               935.9532               953.7191
 Red. masses --      2.2455                 1.7346                 2.6351
 Frc consts  --      1.1112                 0.8953                 1.4122
 IR Inten    --      0.6791               115.1152                 2.2654

                     37                     38                     39
                      A                      A                      A
 Frequencies --   1030.5246              1042.7284              1058.0564
 Red. masses --      4.9882                 5.5724                 1.3837
 Frc consts  --      3.1211                 3.5697                 0.9126
 IR Inten    --     11.5889                 6.8124                 2.7541

                     40                     41                     42
                      A                      A                      A
 Frequencies --   1078.8179              1120.8880              1151.5164
 Red. masses --      3.5964                 1.9408                 2.8634
 Frc consts  --      2.4661                 1.4367                 2.2370
 IR Inten    --     44.6737                 7.8276                37.7119

                     43                     44                     45
                      A                      A                      A
 Frequencies --   1165.4666              1171.0040              1209.9223
 Red. masses --      1.7868                 1.5352                 2.8422
 Frc consts  --      1.4299                 1.2403                 2.4514
 IR Inten    --     17.3390                 5.1808                21.4816

                     46                     47                     48
                      A                      A                      A
 Frequencies --   1227.5727              1265.4453              1269.1610
 Red. masses --      1.2777                 1.3421                 1.2400
 Frc consts  --      1.1344                 1.2662                 1.1768
 IR Inten    --      6.9036                 4.9644                19.1052

                     49                     50                     51
                      A                      A                      A
 Frequencies --   1295.4586              1324.8608              1328.6740
 Red. masses --      1.2543                 1.1923                 1.3319
 Frc consts  --      1.2402                 1.2331                 1.3853
 IR Inten    --      4.8862                 4.9502                 0.3816

                     52                     53                     54
                      A                      A                      A
 Frequencies --   1332.2709              1355.3728              1381.5948
 Red. masses --      1.8576                 1.5286                 1.2056
 Frc consts  --      1.9426                 1.6545                 1.3559
 IR Inten    --      1.3712                13.1480                 3.6759

                     55                     56                     57
                      A                      A                      A
 Frequencies --   1403.6585              1410.3203              1416.5324
 Red. masses --      5.5228                 1.3838                 1.2991
 Frc consts  --      6.4111                 1.6216                 1.5358
 IR Inten    --     41.3053                 0.3758                 1.2231

                     58                     59                     60
                      A                      A                      A
 Frequencies --   1432.5007              1442.2834              1472.8509
 Red. masses --      7.4477                 1.4270                 1.6704
 Frc consts  --      9.0046                 1.7489                 2.1350
 IR Inten    --    201.9721                19.5723                15.1099

                     61                     62                     63
                      A                      A                      A
 Frequencies --   1498.7173              1515.9492              1523.2298
 Red. masses --      1.1538                 1.0473                 1.0854
 Frc consts  --      1.5270                 1.4181                 1.4837
 IR Inten    --      9.0436                 3.6598                 0.7294

                     64                     65                     66
                      A                      A                      A
 Frequencies --   1528.8099              1549.0066              1573.3144
 Red. masses --      1.0514                 1.1003                 2.7065
 Frc consts  --      1.4478                 1.5556                 3.9471
 IR Inten    --      4.0934                 1.0729               101.0974

                     67                     68                     69
                      A                      A                      A
 Frequencies --   1721.0845              3021.5744              3036.0268
 Red. masses --      1.0626                 1.0818                 1.0697
 Frc consts  --      1.8544                 5.8194                 5.8095
 IR Inten    --     28.0184                17.3337                38.7906

                     70                     71                     72
                      A                      A                      A
 Frequencies --   3059.2563              3066.1132              3076.1682
 Red. masses --      1.0354                 1.0676                 1.0828
 Frc consts  --      5.7096                 5.9133                 6.0372
 IR Inten    --     15.7291                12.0888                 6.7339

                     73                     74                     75
                      A                      A                      A
 Frequencies --   3093.9913              3127.1729              3131.1564
 Red. masses --      1.0726                 1.0958                 1.1026
 Frc consts  --      6.0495                 6.3136                 6.3691
 IR Inten    --     19.7069                40.4129                21.2593

                     76                     77                     78
                      A                      A                      A
 Frequencies --   3139.5756              3145.2398              3161.9802
 Red. masses --      1.1029                 1.0975                 1.0972
 Frc consts  --      6.4052                 6.3966                 6.4635
 IR Inten    --     17.2817                 2.8914                22.6183

                     79                     80                     81
                      A                      A                      A
 Frequencies --   3418.1843              3508.8947              3531.0156
 Red. masses --      1.0507                 1.0784                 1.0913
 Frc consts  --      7.2330                 7.8227                 8.0163
 IR Inten    --      2.7836                85.2099                 6.5659

 - Thermochemistry -
 -------------------
 Temperature   298.150 Kelvin.  Pressure   1.00000 Atm.
 Atom     1 has atomic number  6 and mass  12.00000

 Molecular mass:   246.06090 amu.
 Principal axes and moments of inertia in atomic units:
                           1         2         3
     Eigenvalues --  2420.646424957.830115629.82101
           X            0.99973   0.01892   0.01361
           Y           -0.01852   0.99941  -0.02910
           Z           -0.01416   0.02884   0.99948
 This molecule is an asymmetric top.
 Rotational symmetry number  1.
 Warning -- assumption of classical behavior for rotation
           may cause significant error
 Rotational temperatures (Kelvin)      0.03578     0.01747     0.01538
 Rotational constants (GHZ):           0.74556     0.36402     0.32057
 Zero-point vibrational energy     613803.2 (Joules/Mol)
                                  146.70249 (Kcal/Mol)
 Warning -- explicit consideration of  24 degrees of freedom as
           vibrations may cause significant error
 Vibrational temperatures:     28.97    58.00    84.98   118.78   171.85
          (Kelvin)            190.64   232.14   273.98   299.94   313.01
                              346.90   354.19   420.57   436.10   494.73
                              502.62   531.71   592.11   651.46   702.30
                              788.29   801.68   838.69   880.03   948.66
                              969.87  1018.98  1026.45  1059.06  1195.65
                             1245.69  1272.04  1292.52  1318.59  1346.63
                             1372.19  1482.70  1500.25  1522.31  1552.18
                             1612.71  1656.78  1676.85  1684.81  1740.81
                             1766.20  1820.69  1826.04  1863.88  1906.18
                             1911.67  1916.84  1950.08  1987.81  2019.55
                             2029.14  2038.07  2061.05  2075.12  2119.10
                             2156.32  2181.11  2191.59  2199.62  2228.67
                             2263.65  2476.26  4347.37  4368.17  4401.59
                             4411.45  4425.92  4451.56  4499.30  4505.04
                             4517.15  4525.30  4549.38  4918.00  5048.52
                             5080.34

 Zero-point correction=                           0.233785 (Hartree/Particle)
 Thermal correction to Energy=                    0.249348
 Thermal correction to Enthalpy=                  0.250292
 Thermal correction to Gibbs Free Energy=         0.189611
 Sum of electronic and zero-point Energies=          -1403.628878
 Sum of electronic and thermal Energies=             -1403.613315
 Sum of electronic and thermal Enthalpies=           -1403.612371
 Sum of electronic and thermal Free Energies=        -1403.673052

                     E (Thermal)             CV                S
                      KCal/Mol        Cal/Mol-Kelvin    Cal/Mol-Kelvin
 Total                  156.468             57.595            127.714
 Electronic               0.000              0.000              0.000
 Translational            0.889              2.981             42.402
 Rotational               0.889              2.981             32.580
 Vibrational            154.691             51.634             52.732
 Vibration     1          0.593              1.986              6.621
 Vibration     2          0.594              1.981              5.244
 Vibration     3          0.596              1.974              4.488
 Vibration     4          0.600              1.961              3.829
 Vibration     5          0.609              1.933              3.109
 Vibration     6          0.613              1.921              2.909
 Vibration     7          0.622              1.890              2.534
 Vibration     8          0.634              1.853              2.224
 Vibration     9          0.642              1.828              2.057
 Vibration    10          0.646              1.814              1.979
 Vibration    11          0.658              1.777              1.795
 Vibration    12          0.661              1.769              1.758
 Vibration    13          0.688              1.688              1.461
 Vibration    14          0.695              1.668              1.400
 Vibration    15          0.723              1.588              1.194
 Vibration    16          0.727              1.577              1.169
 Vibration    17          0.742              1.535              1.082
 Vibration    18          0.776              1.445              0.921
 Vibration    19          0.811              1.355              0.787
 Vibration    20          0.844              1.276              0.688
 Vibration    21          0.903              1.144              0.549
 Vibration    22          0.913              1.124              0.529
 Vibration    23          0.940              1.068              0.480
 Vibration    24          0.971              1.007              0.430

                           ! Non-Optimized Parameters !
 Normal termination of Gaussian 16 at Thu Dec 10 17:21:47 2020.

 ----------------------------------------------------------------------
 # B3LYP/6-311++G(d,p) empiricaldispersion=gd3bj scf=xqc pop=npa geom=c
 heck
 ----------------------------------------------------------------------

 ---------------------------------------
 CID_107756695_JID_5583_Energie_neutraal
 ---------------------------------------
 Structure from the checkpoint file:  "JID_5583.chk"
 Charge =  0 Multiplicity = 1

 SCF Done:  E(RB3LYP) =  -1404.09236157     A.U. after   17 cycles
 Normal termination of Gaussian 16 at Thu Dec 10 17:27:42 2020.

 ----------------------------------------------------------------------
 # B3LYP/6-311++G(d,p) empiricaldispersion=gd3bj scf=xqc pop=npa geom=c
 heck
 ----------------------------------------------------------------------

 -------------------------------------
 CID_107756695_JID_5583_Energie_kation
 -------------------------------------
 Structure from the checkpoint file:  "JID_5583.chk"
 Charge =  1 Multiplicity = 2

 SCF Done:  E(UB3LYP) =  -1403.78908412     A.U. after   26 cycles
 Normal termination of Gaussian 16 at Thu Dec 10 17:40:35 2020.
 Gaussian 16:  ES64L-G16RevA.03 25-Dec-2016

 ----------------------------------------------------------------------
 # B3LYP/6-311++G(d,p) empiricaldispersion=gd3bj scf=xqc pop=npa geom=c
 heck
 ----------------------------------------------------------------------

 ------------------------------------
 CID_107756695_JID_5583_Energie_anion
 ------------------------------------
 Structure from the checkpoint file:  "JID_5583.chk"
 Charge = -1 Multiplicity = 2

                         Standard orientation:
 ---------------------------------------------------------------------
 Center     Atomic      Atomic             Coordinates (Angstroms)
 Number     Number       Type             X           Y           Z
 ---------------------------------------------------------------------
      1          6           0       -3.939865   -0.020595   -0.662456
      2          6           0       -2.566469   -0.409760   -0.154979
      3          6           0       -1.848057    0.682513    0.674804
      4          6           0       -0.998971   -0.121590    1.695880
      5          6           0       -1.420424   -1.580828    1.421323
      6          8           0       -2.681176   -1.496419    0.758771
      7         16           0       -1.015754    2.003954   -0.295183
      8          6           0       -0.077818    1.095240   -1.611037
      9          6           0        0.869214    0.049429   -1.126554
     10          6           0        1.930575    0.240499   -0.240609
     11         16           0        2.741953   -1.256041    0.022136
     12          7           0        1.579254   -2.091177   -1.091578
     13          7           0        0.746662   -1.245380   -1.529927
     14          7           0        2.271837    1.419275    0.353846
     15          7           0        3.199484    1.481004    1.412242
     16          1           0       -4.396201   -0.849702   -1.211071
     17          1           0       -3.864964    0.843618   -1.330724
     18          1           0       -4.592556    0.239991    0.177704
     19          1           0       -1.925682   -0.719802   -0.993666
     20          1           0       -2.612662    1.252279    1.212447
     21          1           0       -1.255782    0.183716    2.714265
     22          1           0        0.072877    0.026885    1.565844
     23          1           0       -1.561345   -2.177156    2.325861
     24          1           0       -0.686156   -2.083748    0.776157
     25          1           0       -0.768065    0.646199   -2.327058
     26          1           0        0.451443    1.905504   -2.126167
     27          1           0        1.515049    2.092853    0.446692
     28          1           0        3.048252    0.699789    2.054981
     29          1           0        4.136246    1.388816    1.023003
 ---------------------------------------------------------------------

 SCF Done:  E(UB3LYP) =  -1404.08933905     A.U. after   33 cycles
 SCF Done:  E(UB3LYP) =  -1404.09010021     a.u. after    9 cycles

 The electronic state is 2-A.
 Alpha  occ. eigenvalues --  -88.73925 -88.73861 -19.02021 -14.23746 -14.22639
 Alpha  occ. eigenvalues --  -14.20546 -14.20449 -10.12103 -10.10486 -10.10362
 Alpha  occ. eigenvalues --  -10.10162 -10.09795 -10.07050 -10.07030 -10.06380
 Alpha  occ. eigenvalues --   -7.82487  -7.82481  -5.78875  -5.78801  -5.78487
 Alpha  occ. eigenvalues --   -5.78435  -5.78048  -5.77867  -0.94109  -0.89770
 Alpha  occ. eigenvalues --   -0.87874  -0.72715  -0.70832  -0.67447  -0.66725
 Alpha  occ. eigenvalues --   -0.63918  -0.62064  -0.57820  -0.53391  -0.49145
 Alpha  occ. eigenvalues --   -0.48420  -0.46767  -0.45241  -0.40422  -0.39184
 Alpha  occ. eigenvalues --   -0.38663  -0.37957  -0.36957  -0.36002  -0.33664
 Alpha  occ. eigenvalues --   -0.33384  -0.32343  -0.30550  -0.30182  -0.29024
 Alpha  occ. eigenvalues --   -0.27540  -0.26795  -0.25119  -0.24087  -0.23066
 Alpha  occ. eigenvalues --   -0.22778  -0.21951  -0.21385  -0.20050  -0.17072
 Alpha  occ. eigenvalues --   -0.16136  -0.14403  -0.12699  -0.11310  -0.09570
 Alpha  occ. eigenvalues --    0.05027
 Alpha virt. eigenvalues --    0.07069   0.07627   0.08071   0.09080   0.09372
 Alpha virt. eigenvalues --    0.10630   0.10935   0.11428   0.11556   0.11782
 Alpha virt. eigenvalues --    0.12422   0.13410   0.13640   0.13937   0.14421

  Beta  occ. eigenvalues --  -88.73884 -88.73861 -19.02020 -14.23618 -14.22605
  Beta  occ. eigenvalues --  -14.20203 -14.20052 -10.12096 -10.10482 -10.10357
  Beta  occ. eigenvalues --  -10.10149 -10.09386 -10.07157 -10.07046 -10.06368
  Beta  occ. eigenvalues --   -7.82480  -7.82448  -5.78876  -5.78790  -5.78492
  Beta  occ. eigenvalues --   -5.78427  -5.77900  -5.77866  -0.94104  -0.89251
  Beta  occ. eigenvalues --   -0.87569  -0.72554  -0.70618  -0.67334  -0.66688
  Beta  occ. eigenvalues --   -0.63621  -0.61845  -0.57723  -0.53282  -0.49084
  Beta  occ. eigenvalues --   -0.48006  -0.46707  -0.44992  -0.40220  -0.39105
  Beta  occ. eigenvalues --   -0.38571  -0.37773  -0.36891  -0.35910  -0.33475
  Beta  occ. eigenvalues --   -0.33243  -0.32280  -0.30396  -0.29640  -0.28927
  Beta  occ. eigenvalues --   -0.27520  -0.26424  -0.25030  -0.23656  -0.22884
  Beta  occ. eigenvalues --   -0.22527  -0.21635  -0.20390  -0.19766  -0.16964
  Beta  occ. eigenvalues --   -0.16084  -0.13614  -0.12624  -0.10851  -0.08366
  Beta virt. eigenvalues --    0.07211   0.07933   0.08319   0.09117   0.09485
  Beta virt. eigenvalues --    0.10516   0.10894   0.11468   0.11558   0.11771
  Beta virt. eigenvalues --    0.11823   0.12752   0.13454   0.13711   0.13997

 Mulliken charges and spin densities:
               1          2
     1  C   -0.602224  -0.080700
     2  C   -0.333696  -0.287534
     3  C    0.174840   0.529853
     4  C    0.254714  -0.867420
     5  C   -0.322500   0.101389
     6  O   -0.063649  -0.001052
     7  S    0.194757  -0.206940
     8  C   -0.744644  -0.075497
     9  C    0.491375  -0.922460
    10  C   -0.547618   0.773018
    11  S    0.020387   0.052208
    12  N   -0.236612   0.191428
    13  N    0.056030   0.141540
    14  N   -0.002400   0.008999
    15  N   -0.513299   0.063602
    16  H    0.120807   0.011924
    17  H    0.098569   0.031747
    18  H    0.129940   0.012269
    19  H    0.209822   0.016674
    20  H    0.040420   0.222166
    21  H   -0.292055   0.459174
    22  H    0.140932   0.005949
    23  H   -0.058912   0.232453
    24  H    0.171195  -0.001240
    25  H    0.227981  -0.011930
    26  H    0.213535   0.011831
    27  H    0.172018   0.089447
    28  H   -0.075848   0.306858
    29  H    0.076136   0.192245
 Sum of Mulliken charges =  -1.00000   1.00000

 Dipole moment (field-independent basis, Debye):
    X=             -3.4813    Y=              2.3558    Z=             -2.3034  Tot=              4.7932
 Quadrupole moment (field-independent basis, Debye-Ang):
   XX=           -145.2573   YY=           -140.1847   ZZ=           -134.1805
   XY=              0.4469   XZ=              0.5463   YZ=             -9.5706

 Summary of Natural Population Analysis:

                                       Natural Population
                Natural  -----------------------------------------------
    Atom  No    Charge         Core      Valence    Rydberg      Total
 -----------------------------------------------------------------------
      C    1   -0.28975      0.99964     2.28515    0.00496     3.28975
      C    2    0.05213      0.99953     1.93418    0.01416     2.94787
      C    3   -0.17693      0.99952     2.16208    0.01533     3.17693
      C    4   -0.21136      0.99960     2.20098    0.01078     3.21136
      C    5   -0.01607      0.99960     2.00376    0.01271     3.01607
      O    6   -0.30332      0.99989     3.29514    0.00830     4.30332
      S    7    0.07460      4.99961     2.90649    0.01931     7.92540
      C    8   -0.24932      0.99954     2.24053    0.00925     3.24932
      C    9   -0.04852      0.99943     2.03232    0.01677     3.04852
      C   10    0.06704      0.99945     1.91484    0.01867     2.93296
      S   11    0.19193      4.99947     2.78606    0.02253     7.80807
      N   12   -0.11167      0.99982     2.59714    0.01471     3.61167
      N   13   -0.07958      0.99967     2.56179    0.01812     3.57958
      N   14   -0.22025      0.99962     2.70517    0.01546     3.72025
      N   15   -0.32202      0.99978     2.80961    0.01263     3.82202
      H   16    0.10098      0.00000     0.39824    0.00078     0.39902
      H   17    0.10338      0.00000     0.39587    0.00076     0.39662
      H   18    0.09830      0.00000     0.40062    0.00108     0.40170
      H   19    0.09135      0.00000     0.40645    0.00220     0.40865
      H   20    0.10528      0.00000     0.39326    0.00146     0.39472
      H   21    0.09922      0.00000     0.39916    0.00163     0.40078
      H   22    0.11145      0.00000     0.38609    0.00246     0.38855
      H   23    0.08762      0.00000     0.41122    0.00116     0.41238
      H   24    0.09325      0.00000     0.40517    0.00159     0.40675
      H   25    0.10983      0.00000     0.38876    0.00141     0.39017
      H   26    0.10530      0.00000     0.39339    0.00130     0.39470
      H   27    0.19213      0.00000     0.30379    0.00409     0.30787
      H   28    0.17124      0.00000     0.32622    0.00254     0.32876
      H   29    0.17380      0.00000     0.32402    0.00218     0.32620
 =======================================================================
   * Total *   -0.00000     22.99417    41.76749    0.23833    65.00000

 Normal termination of Gaussian 16 at Thu Dec 10 19:47:51 2020.
