 Gaussian 16, Revision A.03,

 -----------------------------------------------------------
 # opt freq B3LYP/6-31G(d) empiricaldispersion=gd3bj scf=xqc
 -----------------------------------------------------------

 -------------------------------
 CID_130261176_JID_1583_neutraal
 -------------------------------
 Symbolic Z-matrix:
 Charge =  0 Multiplicity = 1

 SCF Done:  E(RB3LYP) =  -512.768337103     A.U. after   15 cycles
 SCF Done:  E(RB3LYP) =  -512.774282080     A.U. after   12 cycles
 SCF Done:  E(RB3LYP) =  -512.774595294     A.U. after   12 cycles
 SCF Done:  E(RB3LYP) =  -512.774884295     A.U. after   12 cycles
 SCF Done:  E(RB3LYP) =  -512.775426306     A.U. after   12 cycles
 SCF Done:  E(RB3LYP) =  -512.775452071     A.U. after   10 cycles
 SCF Done:  E(RB3LYP) =  -512.775461249     A.U. after   10 cycles
 SCF Done:  E(RB3LYP) =  -512.775463078     A.U. after    9 cycles
 SCF Done:  E(RB3LYP) =  -512.775463800     A.U. after    8 cycles
 Optimization completed.
    -- Stationary point found.
 Normal termination of Gaussian 16 at Tue Dec  8 20:25:08 2020.

 --------------------------------------------------------------------
 #N Geom=AllCheck Guess=TCheck SCRF=Check GenChk RB3LYP/6-31G(d) Freq
 --------------------------------------------------------------------

 Structure from the checkpoint file:  "JID_1583.chk"
 -------------------------------
 CID_130261176_JID_1583_neutraal
 -------------------------------
 Charge =  0 Multiplicity = 1

 SCF Done:  E(RB3LYP) =  -512.775463800     A.U. after    1 cycles

  Exact polarizability: 115.227  -0.000  91.272  -2.085   0.000  62.834
 Approx polarizability: 163.139  -0.000 148.540  -5.141   0.001  99.108

                      1                      2                      3
                      A                      A                      A
 Frequencies --     77.6366                83.1166               179.4159
 Red. masses --      3.9310                 3.1422                 2.9655
 Frc consts  --      0.0140                 0.0128                 0.0562
 IR Inten    --      1.8385                 0.1542                 0.7746

                      4                      5                      6
                      A                      A                      A
 Frequencies --    241.5311               243.6795               265.0908
 Red. masses --      1.1739                 1.5221                 2.7109
 Frc consts  --      0.0403                 0.0533                 0.1122
 IR Inten    --      0.0340                 2.7666                 0.9468

                      7                      8                      9
                      A                      A                      A
 Frequencies --    286.7170               301.2331               344.4981
 Red. masses --      2.9068                 2.0112                 2.3881
 Frc consts  --      0.1408                 0.1075                 0.1670
 IR Inten    --      2.3408                 3.8198                 0.4251

                     10                     11                     12
                      A                      A                      A
 Frequencies --    391.5387               453.4571               516.7380
 Red. masses --      3.7940                 2.3529                 4.1055
 Frc consts  --      0.3427                 0.2851                 0.6459
 IR Inten    --      0.6006                 0.9980                 0.0000

                     13                     14                     15
                      A                      A                      A
 Frequencies --    572.4684               608.9190               685.2528
 Red. masses --      2.8903                13.9033                 4.3092
 Frc consts  --      0.5581                 3.0373                 1.1922
 IR Inten    --      2.3529                 1.4381                 0.4752

                     16                     17                     18
                      A                      A                      A
 Frequencies --    732.9623               773.1099               807.8829
 Red. masses --      5.8246                 3.4593                13.8186
 Frc consts  --      1.8436                 1.2182                 5.3139
 IR Inten    --      1.2592                 9.7982                 5.6006

                     19                     20                     21
                      A                      A                      A
 Frequencies --    847.1768               882.5008               898.2976
 Red. masses --      5.3277                 7.2346                 2.8603
 Frc consts  --      2.2529                 3.3197                 1.3599
 IR Inten    --      3.6940                41.3725                 3.8398

                     22                     23                     24
                      A                      A                      A
 Frequencies --    945.2558               972.4174              1029.6656
 Red. masses --      1.1507                 1.4747                 1.6374
 Frc consts  --      0.6058                 0.8216                 1.0228
 IR Inten    --      0.6858                 0.0053                 0.6435

                     25                     26                     27
                      A                      A                      A
 Frequencies --   1044.3078              1049.3265              1068.6765
 Red. masses --      1.8694                 3.8304                 2.8432
 Frc consts  --      1.2012                 2.4849                 1.9132
 IR Inten    --      0.9882                 1.6230                26.4135

                     28                     29                     30
                      A                      A                      A
 Frequencies --   1100.4591              1181.9313              1198.1734
 Red. masses --      3.4458                 2.4866                 1.8503
 Frc consts  --      2.4586                 2.0467                 1.5651
 IR Inten    --     16.9404                14.5866                 2.7488

                     31                     32                     33
                      A                      A                      A
 Frequencies --   1213.6702              1215.3181              1229.2112
 Red. masses --      1.1941                 1.2506                 2.1782
 Frc consts  --      1.0363                 1.0883                 1.9391
 IR Inten    --     20.6008                 6.1483                36.4415

                     34                     35                     36
                      A                      A                      A
 Frequencies --   1230.5116              1340.6427              1365.4500
 Red. masses --      3.0101                 1.4151                 1.5722
 Frc consts  --      2.6854                 1.4985                 1.7271
 IR Inten    --      1.3444                 0.0399                60.9794

                     37                     38                     39
                      A                      A                      A
 Frequencies --   1387.0486              1406.4535              1431.2884
 Red. masses --      1.5050                 1.4590                 1.3238
 Frc consts  --      1.7059                 1.7004                 1.5978
 IR Inten    --      6.9630                15.3607                12.1065

                     40                     41                     42
                      A                      A                      A
 Frequencies --   1444.7785              1448.9468              1516.8350
 Red. masses --      3.5375                 1.4174                 1.0546
 Frc consts  --      4.3506                 1.7532                 1.4296
 IR Inten    --      9.2251                24.1894                 1.0625

                     43                     44                     45
                      A                      A                      A
 Frequencies --   1522.5482              1530.4879              1531.2456
 Red. masses --      1.0488                 1.0616                 1.0746
 Frc consts  --      1.4325                 1.4652                 1.4845
 IR Inten    --      0.2893                 7.3117                 2.8559

                     46                     47                     48
                      A                      A                      A
 Frequencies --   1541.3274              1548.3277              1587.7125
 Red. masses --      1.0853                 1.0514                11.7798
 Frc consts  --      1.5191                 1.4850                17.4958
 IR Inten    --      2.4132                 5.6219                 0.1885

                     49                     50                     51
                      A                      A                      A
 Frequencies --   1688.9748              2893.5071              2947.2766
 Red. masses --     11.9200                 1.0809                 1.0737
 Frc consts  --     20.0342                 5.3319                 5.4953
 IR Inten    --      0.4293                68.8870                43.3152

                     52                     53                     54
                      A                      A                      A
 Frequencies --   2954.6175              3056.2284              3060.8054
 Red. masses --      1.0736                 1.0354                 1.0362
 Frc consts  --      5.5219                 5.6979                 5.7197
 IR Inten    --     52.4804                18.6923                11.7806

                     55                     56                     57
                      A                      A                      A
 Frequencies --   3107.2088              3109.7291              3126.9159
 Red. masses --      1.0875                 1.0898                 1.1030
 Frc consts  --      6.1864                 6.2093                 6.3542
 IR Inten    --     14.9989                17.0014                 0.0100

                     58                     59                     60
                      A                      A                      A
 Frequencies --   3131.3441              3132.1701              3134.4073
 Red. masses --      1.1017                 1.1017                 1.1018
 Frc consts  --      6.3648                 6.3680                 6.3777
 IR Inten    --     27.6283                31.0994                51.6288

 - Thermochemistry -
 -------------------
 Temperature   298.150 Kelvin.  Pressure   1.00000 Atm.
 Atom     1 has atomic number  6 and mass  12.00000

 Molecular mass:   153.09021 amu.
 Principal axes and moments of inertia in atomic units:
                           1         2         3
     Eigenvalues --   584.551992710.491453212.93865
           X            1.00000   0.00000   0.00136
           Y           -0.00000   1.00000  -0.00000
           Z           -0.00136   0.00000   1.00000
 This molecule is an asymmetric top.
 Rotational symmetry number  1.
 Warning -- assumption of classical behavior for rotation
           may cause significant error
 Rotational temperatures (Kelvin)      0.14817     0.03196     0.02696
 Rotational constants (GHZ):           3.08739     0.66584     0.56171
 Zero-point vibrational energy     482205.3 (Joules/Mol)
                                  115.24982 (Kcal/Mol)
 Warning -- explicit consideration of  14 degrees of freedom as
           vibrations may cause significant error
 Vibrational temperatures:    111.70   119.59   258.14   347.51   350.60
          (Kelvin)            381.41   412.52   433.41   495.66   563.34
                              652.42   743.47   823.65   876.10   985.93
                             1054.57  1112.33  1162.36  1218.90  1269.72
                             1292.45  1360.01  1399.09  1481.46  1502.53
                             1509.75  1537.59  1583.32  1700.54  1723.90
                             1746.20  1748.57  1768.56  1770.43  1928.89
                             1964.58  1995.65  2023.57  2059.30  2078.71
                             2084.71  2182.39  2190.61  2202.03  2203.12
                             2217.63  2227.70  2284.36  2430.06  4163.11
                             4240.47  4251.04  4397.23  4403.82  4470.58
                             4474.21  4498.93  4505.31  4506.49  4509.71

 Zero-point correction=                           0.183662 (Hartree/Particle)
 Thermal correction to Energy=                    0.193411
 Thermal correction to Enthalpy=                  0.194355
 Thermal correction to Gibbs Free Energy=         0.148630
 Sum of electronic and zero-point Energies=           -512.591802
 Sum of electronic and thermal Energies=              -512.582053
 Sum of electronic and thermal Enthalpies=            -512.581108
 Sum of electronic and thermal Free Energies=         -512.626833

                     E (Thermal)             CV                S
                      KCal/Mol        Cal/Mol-Kelvin    Cal/Mol-Kelvin
 Total                  121.367             37.579             96.236
 Electronic               0.000              0.000              0.000
 Translational            0.889              2.981             40.987
 Rotational               0.889              2.981             30.011
 Vibrational            119.590             31.617             25.238
 Vibration     1          0.599              1.964              3.950
 Vibration     2          0.600              1.961              3.816
 Vibration     3          0.629              1.868              2.334
 Vibration     4          0.658              1.777              1.792
 Vibration     5          0.659              1.773              1.776
 Vibration     6          0.671              1.737              1.628
 Vibration     7          0.684              1.698              1.493
 Vibration     8          0.693              1.671              1.410
 Vibration     9          0.723              1.586              1.191
 Vibration    10          0.759              1.488              0.994
 Vibration    11          0.812              1.353              0.785
 Vibration    12          0.872              1.213              0.618
 Vibration    13          0.929              1.091              0.500
 Vibration    14          0.968              1.013              0.435

 Optimization completed.
    -- Stationary point found.
 Normal termination of Gaussian 16 at Tue Dec  8 20:29:44 2020.

 ----------------------------------------------------------------------
 # B3LYP/6-311++G(d,p) empiricaldispersion=gd3bj scf=xqc pop=npa geom=c
 heck
 ----------------------------------------------------------------------

 ---------------------------------------
 CID_130261176_JID_1583_Energie_neutraal
 ---------------------------------------
 Structure from the checkpoint file:  "JID_1583.chk"
 Charge =  0 Multiplicity = 1

 SCF Done:  E(RB3LYP) =  -512.911538499     A.U. after   14 cycles
 Normal termination of Gaussian 16 at Tue Dec  8 20:32:16 2020.

 ----------------------------------------------------------------------
 # B3LYP/6-311++G(d,p) empiricaldispersion=gd3bj scf=xqc pop=npa geom=c
 heck
 ----------------------------------------------------------------------

 -------------------------------------
 CID_130261176_JID_1583_Energie_kation
 -------------------------------------
 Structure from the checkpoint file:  "JID_1583.chk"
 Charge =  1 Multiplicity = 2

 SCF Done:  E(UB3LYP) =  -512.590136366     A.U. after   17 cycles
 Normal termination of Gaussian 16 at Tue Dec  8 20:36:37 2020.
 Gaussian 16:  ES64L-G16RevA.03 25-Dec-2016

 ----------------------------------------------------------------------
 # B3LYP/6-311++G(d,p) empiricaldispersion=gd3bj scf=xqc pop=npa geom=c
 heck
 ----------------------------------------------------------------------

 ------------------------------------
 CID_130261176_JID_1583_Energie_anion
 ------------------------------------
 Structure from the checkpoint file:  "JID_1583.chk"
 Charge = -1 Multiplicity = 2

                         Standard orientation:
 ---------------------------------------------------------------------
 Center     Atomic      Atomic             Coordinates (Angstroms)
 Number     Number       Type             X           Y           Z
 ---------------------------------------------------------------------
      1          6           0       -2.971885    1.254131   -0.147796
      2          6           0       -2.223627    0.000019    0.314327
      3          6           0       -2.971770   -1.254192   -0.147690
      4          7           0       -0.855947    0.000032   -0.210711
      5          6           0       -0.071031    1.219373    0.117829
      6          6           0        1.328586    0.707286    0.023780
      7          7           0        2.546110    1.155189   -0.042422
      8          8           0        3.325242   -0.000012   -0.084542
      9          7           0        2.546087   -1.155199   -0.042485
     10          6           0        1.328572   -0.707274    0.023740
     11          6           0       -0.071056   -1.219333    0.117790
     12          1           0       -2.978339    1.307040   -1.242222
     13          1           0       -2.522475    2.173674    0.239100
     14          1           0       -4.007829    1.221388    0.204125
     15          1           0       -2.199259    0.000059    1.424851
     16          1           0       -2.978256   -1.307169   -1.242113
     17          1           0       -2.522248   -2.173665    0.239249
     18          1           0       -4.007708   -1.221533    0.204259
     19          1           0       -0.291871    2.026611   -0.585446
     20          1           0       -0.271240    1.595223    1.138752
     21          1           0       -0.271253   -1.595192    1.138712
     22          1           0       -0.291940   -2.026552   -0.585491
 ---------------------------------------------------------------------

 SCF Done:  E(UB3LYP) =  -512.907441430     A.U. after   30 cycles

 The electronic state is 2-A.
 Alpha  occ. eigenvalues --  -19.07090 -14.21793 -14.21790 -14.20331 -10.09861
 Alpha  occ. eigenvalues --  -10.09845 -10.09845 -10.06919 -10.06871 -10.05439
 Alpha  occ. eigenvalues --  -10.05438  -1.01732  -0.83179  -0.75918  -0.73032
 Alpha  occ. eigenvalues --   -0.66924  -0.62367  -0.57933  -0.56378  -0.47201
 Alpha  occ. eigenvalues --   -0.46604  -0.45784  -0.37813  -0.37054  -0.35447
 Alpha  occ. eigenvalues --   -0.34886  -0.33059  -0.32037  -0.31429  -0.29581
 Alpha  occ. eigenvalues --   -0.28392  -0.27413  -0.26891  -0.24289  -0.23320
 Alpha  occ. eigenvalues --   -0.22858  -0.18964  -0.17286  -0.17103  -0.16110
 Alpha  occ. eigenvalues --   -0.11367   0.04940
 Alpha virt. eigenvalues --    0.06625   0.08090   0.09030   0.09239   0.11231
 Alpha virt. eigenvalues --    0.11490   0.11561   0.12624   0.13201   0.14392
 Alpha virt. eigenvalues --    0.14978   0.15870   0.17270   0.17371   0.17997

  Beta  occ. eigenvalues --  -19.06785 -14.21377 -14.21374 -14.20334 -10.09852
  Beta  occ. eigenvalues --  -10.09848 -10.09847 -10.06892 -10.06844 -10.05405
  Beta  occ. eigenvalues --  -10.05404  -1.01163  -0.83118  -0.75211  -0.72731
  Beta  occ. eigenvalues --   -0.66778  -0.62285  -0.57858  -0.56139  -0.46896
  Beta  occ. eigenvalues --   -0.46423  -0.45680  -0.37650  -0.36811  -0.34987
  Beta  occ. eigenvalues --   -0.34799  -0.32831  -0.31334  -0.31052  -0.29478
  Beta  occ. eigenvalues --   -0.28345  -0.27356  -0.26757  -0.24198  -0.23290
  Beta  occ. eigenvalues --   -0.22686  -0.18441  -0.16725  -0.14940  -0.14932
  Beta  occ. eigenvalues --   -0.11295
  Beta virt. eigenvalues --    0.07417   0.08629   0.09127   0.09692   0.10548
  Beta virt. eigenvalues --    0.11551   0.11720   0.11802   0.12971   0.13457
  Beta virt. eigenvalues --    0.14553   0.15328   0.15904   0.17217   0.17591

 Mulliken charges and spin densities:
               1          2
     1  C    0.559681  -1.060905
     2  C   -0.762892   0.745430
     3  C    0.559532  -1.060755
     4  N    0.191365   0.053997
     5  C    0.076580  -0.260589
     6  C   -0.168100  -0.037196
     7  N   -0.387040   0.206404
     8  O    0.229189   0.053341
     9  N   -0.387032   0.206400
    10  C   -0.168136  -0.037242
    11  C    0.076632  -0.260574
    12  H    0.006880   0.151784
    13  H   -0.187803   0.333565
    14  H   -0.413774   0.554383
    15  H    0.115224  -0.024906
    16  H    0.006872   0.151791
    17  H   -0.187742   0.333506
    18  H   -0.413754   0.554367
    19  H   -0.019324   0.201022
    20  H    0.146476  -0.002418
    21  H    0.146486  -0.002428
    22  H   -0.019321   0.201022
 Sum of Mulliken charges =  -1.00000   1.00000

 Dipole moment (field-independent basis, Debye):
    X=              0.1748    Y=             -0.0002    Z=              1.1714  Tot=              1.1844
 Quadrupole moment (field-independent basis, Debye-Ang):
   XX=           -143.2914   YY=            -93.1641   ZZ=            -80.7792
   XY=              0.0005   XZ=              1.8940   YZ=              0.0001

 Summary of Natural Population Analysis:

                                       Natural Population
                Natural  -----------------------------------------------
    Atom  No    Charge         Core      Valence    Rydberg      Total
 -----------------------------------------------------------------------
      C    1   -0.28922      0.99964     2.28323    0.00634     3.28922
      C    2   -0.00208      0.99961     1.98945    0.01301     3.00208
      C    3   -0.28922      0.99964     2.28324    0.00634     3.28922
      N    4   -0.27924      0.99971     2.76839    0.01115     3.77924
      C    5   -0.09432      0.99959     2.08499    0.00973     3.09432
      C    6    0.04719      0.99949     1.93573    0.01760     2.95281
      N    7   -0.01253      0.99964     2.50056    0.01233     3.51253
      O    8   -0.08336      0.99991     3.07373    0.00972     4.08336
      N    9   -0.01253      0.99964     2.50056    0.01233     3.51253
      C   10    0.04719      0.99949     1.93573    0.01760     2.95281
      C   11   -0.09432      0.99959     2.08500    0.00973     3.09432
      H   12    0.10083      0.00000     0.39782    0.00135     0.39917
      H   13    0.09909      0.00000     0.39981    0.00110     0.40091
      H   14    0.10189      0.00000     0.39679    0.00132     0.39811
      H   15    0.07324      0.00000     0.42447    0.00229     0.42676
      H   16    0.10083      0.00000     0.39782    0.00135     0.39917
      H   17    0.09909      0.00000     0.39981    0.00110     0.40091
      H   18    0.10189      0.00000     0.39679    0.00132     0.39811
      H   19    0.10453      0.00000     0.39359    0.00189     0.39547
      H   20    0.08826      0.00000     0.41033    0.00141     0.41174
      H   21    0.08826      0.00000     0.41033    0.00141     0.41174
      H   22    0.10453      0.00000     0.39359    0.00189     0.39547
 =======================================================================
   * Total *    0.00000     10.99595    29.86175    0.14230    41.00000

 Normal termination of Gaussian 16 at Tue Dec  8 20:44:50 2020.
