 Gaussian 16, Revision A.03,

 -----------------------------------------------------------
 # opt freq B3LYP/6-31G(d) empiricaldispersion=gd3bj scf=xqc
 -----------------------------------------------------------

 -------------------------------
 CID_123883954_JID_1239_neutraal
 -------------------------------
 Symbolic Z-matrix:
 Charge =  0 Multiplicity = 1

 SCF Done:  E(RB3LYP) =  -448.474692293     A.U. after   13 cycles
 SCF Done:  E(RB3LYP) =  -448.483872052     A.U. after   11 cycles
 SCF Done:  E(RB3LYP) =  -448.484592575     A.U. after   11 cycles
 SCF Done:  E(RB3LYP) =  -448.484848229     A.U. after   10 cycles
 SCF Done:  E(RB3LYP) =  -448.485262729     A.U. after   10 cycles
 SCF Done:  E(RB3LYP) =  -448.485580037     A.U. after   10 cycles
 SCF Done:  E(RB3LYP) =  -448.485447156     A.U. after   11 cycles
 SCF Done:  E(RB3LYP) =  -448.485798776     A.U. after   10 cycles
 SCF Done:  E(RB3LYP) =  -448.485888710     A.U. after    9 cycles
 SCF Done:  E(RB3LYP) =  -448.485502666     A.U. after   11 cycles
 SCF Done:  E(RB3LYP) =  -448.485965648     A.U. after    9 cycles
 SCF Done:  E(RB3LYP) =  -448.485966852     A.U. after    7 cycles
 SCF Done:  E(RB3LYP) =  -448.485967089     A.U. after    7 cycles
 SCF Done:  E(RB3LYP) =  -448.485967200     A.U. after    8 cycles
 SCF Done:  E(RB3LYP) =  -448.485967601     A.U. after    7 cycles
 SCF Done:  E(RB3LYP) =  -448.485967608     A.U. after    6 cycles
 Optimization completed.
    -- Stationary point found.
 Normal termination of Gaussian 16 at Tue Dec  8 19:34:41 2020.

 --------------------------------------------------------------------
 #N Geom=AllCheck Guess=TCheck SCRF=Check GenChk RB3LYP/6-31G(d) Freq
 --------------------------------------------------------------------

 Structure from the checkpoint file:  "JID_1239.chk"
 -------------------------------
 CID_123883954_JID_1239_neutraal
 -------------------------------
 Charge =  0 Multiplicity = 1

 SCF Done:  E(RB3LYP) =  -448.485967608     A.U. after    1 cycles

  Exact polarizability: 126.305  -0.035 105.963  -0.877   2.156  99.649
 Approx polarizability: 153.781   1.537 148.579  -2.303   3.618 147.689

                      1                      2                      3
                      A                      A                      A
 Frequencies --     58.4678                76.7806               109.6788
 Red. masses --      2.7718                 2.6870                 2.4679
 Frc consts  --      0.0056                 0.0093                 0.0175
 IR Inten    --      0.0378                 0.0378                 0.1005

                      4                      5                      6
                      A                      A                      A
 Frequencies --    122.4693               175.5366               187.0079
 Red. masses --      1.7139                 1.9612                 1.8465
 Frc consts  --      0.0151                 0.0356                 0.0380
 IR Inten    --      0.3867                 0.1266                 1.3676

                      7                      8                      9
                      A                      A                      A
 Frequencies --    231.0331               240.6817               256.7995
 Red. masses --      1.0975                 1.1307                 1.6537
 Frc consts  --      0.0345                 0.0386                 0.0643
 IR Inten    --      0.1596                 0.0072                 0.0745

                     10                     11                     12
                      A                      A                      A
 Frequencies --    286.3757               291.1157               308.2958
 Red. masses --      1.5994                 1.7192                 1.9167
 Frc consts  --      0.0773                 0.0858                 0.1073
 IR Inten    --      0.2458                 0.1467                 0.7484

                     13                     14                     15
                      A                      A                      A
 Frequencies --    335.3891               340.0274               359.2075
 Red. masses --      2.3656                 2.4244                 2.1181
 Frc consts  --      0.1568                 0.1652                 0.1610
 IR Inten    --      0.2897                 0.3082                 0.1183

                     16                     17                     18
                      A                      A                      A
 Frequencies --    387.4974               461.0546               495.8993
 Red. masses --      2.7833                 1.7539                 2.6599
 Frc consts  --      0.2462                 0.2197                 0.3854
 IR Inten    --      0.2761                 0.7951                 2.7142

                     19                     20                     21
                      A                      A                      A
 Frequencies --    535.6453               607.3966               717.9538
 Red. masses --      2.6812                 2.7317                 2.8396
 Frc consts  --      0.4533                 0.5938                 0.8624
 IR Inten    --      7.8456                 3.0756                 3.8881

                     22                     23                     24
                      A                      A                      A
 Frequencies --    789.8652               811.6178               838.4960
 Red. masses --      1.2073                 1.4647                 1.5961
 Frc consts  --      0.4438                 0.5685                 0.6612
 IR Inten    --      5.9912                 3.7932                 1.3456

                     25                     26                     27
                      A                      A                      A
 Frequencies --    848.9159               866.4137               909.3118
 Red. masses --      1.2971                 2.2722                 2.1698
 Frc consts  --      0.5507                 1.0050                 1.0570
 IR Inten    --      1.2411                 0.3897                 0.2053

                     28                     29                     30
                      A                      A                      A
 Frequencies --    922.6210               947.1515               953.0414
 Red. masses --      2.0017                 1.6971                 2.2349
 Frc consts  --      1.0039                 0.8970                 1.1960
 IR Inten    --      0.8416                 2.2900                 1.6098

                     31                     32                     33
                      A                      A                      A
 Frequencies --    966.0949               984.2116              1051.6277
 Red. masses --      1.3517                 1.7885                 2.0741
 Frc consts  --      0.7433                 1.0208                 1.3514
 IR Inten    --      3.4836                 3.1939                18.8736

                     34                     35                     36
                      A                      A                      A
 Frequencies --   1070.3134              1081.0357              1108.1504
 Red. masses --      1.2075                 2.1869                 2.0974
 Frc consts  --      0.8150                 1.5058                 1.5175
 IR Inten    --      0.3451                 8.1357                18.6816

                     37                     38                     39
                      A                      A                      A
 Frequencies --   1108.5339              1145.7782              1161.1066
 Red. masses --      1.7813                 1.9342                 1.6303
 Frc consts  --      1.2897                 1.4961                 1.2950
 IR Inten    --      3.1417                 1.6228                 5.4810

                     40                     41                     42
                      A                      A                      A
 Frequencies --   1193.7320              1204.5632              1214.9670
 Red. masses --      2.1375                 2.0109                 2.5039
 Frc consts  --      1.7946                 1.7191                 2.1777
 IR Inten    --      9.4037                16.2302                 7.1630

                     43                     44                     45
                      A                      A                      A
 Frequencies --   1249.3970              1254.6938              1270.7842
 Red. masses --      1.3960                 1.7790                 3.1741
 Frc consts  --      1.2839                 1.6501                 3.0201
 IR Inten    --      3.7106                14.9265                31.6988

                     46                     47                     48
                      A                      A                      A
 Frequencies --   1296.3090              1309.4427              1310.3312
 Red. masses --      1.7261                 1.4791                 1.7116
 Frc consts  --      1.7090                 1.4942                 1.7315
 IR Inten    --     16.4161                 7.0043                48.4995

                     49                     50                     51
                      A                      A                      A
 Frequencies --   1336.4976              1390.6424              1395.8389
 Red. masses --      1.1667                 1.3241                 1.4302
 Frc consts  --      1.2278                 1.5087                 1.6418
 IR Inten    --     11.1930                 4.6842                 7.5214

                     52                     53                     54
                      A                      A                      A
 Frequencies --   1406.8559              1425.0600              1431.1135
 Red. masses --      1.2518                 1.2650                 1.2612
 Frc consts  --      1.4597                 1.5136                 1.5219
 IR Inten    --      7.6283                 1.4611                 9.9962

                     55                     56                     57
                      A                      A                      A
 Frequencies --   1436.5702              1439.1588              1445.4500
 Red. masses --      1.2455                 1.2792                 1.4028
 Frc consts  --      1.5144                 1.5610                 1.7268
 IR Inten    --     10.2711                 7.7243                31.6636

                     58                     59                     60
                      A                      A                      A
 Frequencies --   1495.9493              1510.7442              1514.3834
 Red. masses --      1.0879                 1.0595                 1.0486
 Frc consts  --      1.4344                 1.4247                 1.4168
 IR Inten    --      1.7114                 1.3392                 1.7340

                     61                     62                     63
                      A                      A                      A
 Frequencies --   1519.1264              1523.8501              1526.5689
 Red. masses --      1.0875                 1.0548                 1.0519
 Frc consts  --      1.4787                 1.4431                 1.4443
 IR Inten    --      1.2126                 2.4491                 3.1250

                     64                     65                     66
                      A                      A                      A
 Frequencies --   1527.5508              1528.2980              1533.3652
 Red. masses --      1.0520                 1.0667                 1.0509
 Frc consts  --      1.4464                 1.4679                 1.4558
 IR Inten    --      4.9308                 5.2550                 1.3674

                     67                     68                     69
                      A                      A                      A
 Frequencies --   1536.5773              1538.9207              1554.2217
 Red. masses --      1.0563                 1.0590                 1.0867
 Frc consts  --      1.4694                 1.4777                 1.5467
 IR Inten    --      2.9097                 2.7584                 0.4716

                     70                     71                     72
                      A                      A                      A
 Frequencies --   2948.1044              3034.4412              3034.9590
 Red. masses --      1.0738                 1.0668                 1.0369
 Frc consts  --      5.4987                 5.7873                 5.6271
 IR Inten    --     65.2620                30.9278                41.3927

                     73                     74                     75
                      A                      A                      A
 Frequencies --   3048.0059              3052.7088              3054.0374
 Red. masses --      1.0409                 1.0788                 1.0361
 Frc consts  --      5.6973                 5.9232                 5.6940
 IR Inten    --      7.9173                19.1274                34.1391

                     76                     77                     78
                      A                      A                      A
 Frequencies --   3055.8108              3059.1171              3065.4006
 Red. masses --      1.0393                 1.0568                 1.0586
 Frc consts  --      5.7179                 5.8271                 5.8610
 IR Inten    --     31.9519                47.5079                 0.7692

                     79                     80                     81
                      A                      A                      A
 Frequencies --   3080.0089              3091.6701              3100.3850
 Red. masses --      1.0856                 1.0946                 1.1021
 Frc consts  --      6.0679                 6.1642                 6.2417
 IR Inten    --     15.7414                11.2460                32.7599

                     82                     83                     84
                      A                      A                      A
 Frequencies --   3102.7340              3110.5109              3115.9586
 Red. masses --      1.1032                 1.1016                 1.1031
 Frc consts  --      6.2575                 6.2798                 6.3101
 IR Inten    --     26.0327                37.6622                62.3774

                     85                     86                     87
                      A                      A                      A
 Frequencies --   3116.2976              3120.7150              3121.3969
 Red. masses --      1.1052                 1.1014                 1.1067
 Frc consts  --      6.3237                 6.3197                 6.3530
 IR Inten    --     12.8603                15.0898                66.4880

                     88                     89                     90
                      A                      A                      A
 Frequencies --   3123.9942              3127.8655              3143.5772
 Red. masses --      1.1024                 1.1032                 1.0997
 Frc consts  --      6.3388                 6.3592                 6.4030
 IR Inten    --     51.9704                37.9585                33.7323

 - Thermochemistry -
 -------------------
 Temperature   298.150 Kelvin.  Pressure   1.00000 Atm.
 Atom     1 has atomic number  6 and mass  12.00000

 Molecular mass:   155.16740 amu.
 Principal axes and moments of inertia in atomic units:
                           1         2         3
     Eigenvalues --  1062.671422678.860403000.88355
           X            0.99999  -0.00376   0.00324
           Y            0.00380   0.99990  -0.01374
           Z           -0.00319   0.01375   0.99990
 This molecule is an asymmetric top.
 Rotational symmetry number  1.
 Warning -- assumption of classical behavior for rotation
           may cause significant error
 Rotational temperatures (Kelvin)      0.08151     0.03233     0.02886
 Rotational constants (GHZ):           1.69831     0.67370     0.60140
 Zero-point vibrational energy     784614.3 (Joules/Mol)
                                  187.52731 (Kcal/Mol)
 Warning -- explicit consideration of  20 degrees of freedom as
           vibrations may cause significant error
 Vibrational temperatures:     84.12   110.47   157.80   176.21   252.56
          (Kelvin)            269.06   332.41   346.29   369.48   412.03
                              418.85   443.57   482.55   489.22   516.82
                              557.52   663.35   713.49   770.67   873.91
                             1032.98  1136.44  1167.74  1206.41  1221.40
                             1246.58  1308.30  1327.45  1362.74  1371.21
                             1390.00  1416.06  1513.06  1539.94  1555.37
                             1594.38  1594.93  1648.52  1670.57  1717.51
                             1733.10  1748.07  1797.60  1805.22  1828.38
                             1865.10  1884.00  1885.27  1922.92  2000.82
                             2008.30  2024.15  2050.34  2059.05  2066.90
                             2070.63  2079.68  2152.34  2173.62  2178.86
                             2185.68  2192.48  2196.39  2197.80  2198.88
                             2206.17  2210.79  2214.16  2236.18  4241.66
                             4365.88  4366.63  4385.40  4392.17  4394.08
                             4396.63  4401.39  4410.43  4431.45  4448.22
                             4460.76  4464.14  4475.33  4483.17  4483.66
                             4490.01  4490.99  4494.73  4500.30  4522.91

 Zero-point correction=                           0.298844 (Hartree/Particle)
 Thermal correction to Energy=                    0.312035
 Thermal correction to Enthalpy=                  0.312979
 Thermal correction to Gibbs Free Energy=         0.260414
 Sum of electronic and zero-point Energies=           -448.187124
 Sum of electronic and thermal Energies=              -448.173933
 Sum of electronic and thermal Enthalpies=            -448.172989
 Sum of electronic and thermal Free Energies=         -448.225554

                     E (Thermal)             CV                S
                      KCal/Mol        Cal/Mol-Kelvin    Cal/Mol-Kelvin
 Total                  195.805             50.597            110.633
 Electronic               0.000              0.000              0.000
 Translational            0.889              2.981             41.028
 Rotational               0.889              2.981             30.525
 Vibrational            194.027             44.635             39.081
 Vibration     1          0.596              1.974              4.508
 Vibration     2          0.599              1.965              3.972
 Vibration     3          0.606              1.941              3.275
 Vibration     4          0.610              1.930              3.061
 Vibration     5          0.627              1.873              2.375
 Vibration     6          0.632              1.858              2.257
 Vibration     7          0.653              1.794              1.871
 Vibration     8          0.658              1.778              1.798
 Vibration     9          0.666              1.751              1.683
 Vibration    10          0.684              1.699              1.495
 Vibration    11          0.687              1.690              1.467
 Vibration    12          0.698              1.658              1.371
 Vibration    13          0.717              1.605              1.234
 Vibration    14          0.720              1.596              1.212
 Vibration    15          0.734              1.556              1.126
 Vibration    16          0.756              1.497              1.010
 Vibration    17          0.819              1.336              0.763
 Vibration    18          0.851              1.259              0.668
 Vibration    19          0.891              1.171              0.575
 Vibration    20          0.966              1.016              0.437

 Optimization completed.
    -- Stationary point found.
 Normal termination of Gaussian 16 at Tue Dec  8 19:41:52 2020.

 ----------------------------------------------------------------------
 # B3LYP/6-311++G(d,p) empiricaldispersion=gd3bj scf=xqc pop=npa geom=c
 heck
 ----------------------------------------------------------------------

 ---------------------------------------
 CID_123883954_JID_1239_Energie_neutraal
 ---------------------------------------
 Structure from the checkpoint file:  "JID_1239.chk"
 Charge =  0 Multiplicity = 1

 SCF Done:  E(RB3LYP) =  -448.609173257     A.U. after   13 cycles
 Normal termination of Gaussian 16 at Tue Dec  8 19:44:39 2020.

 ----------------------------------------------------------------------
 # B3LYP/6-311++G(d,p) empiricaldispersion=gd3bj scf=xqc pop=npa geom=c
 heck
 ----------------------------------------------------------------------

 -------------------------------------
 CID_123883954_JID_1239_Energie_kation
 -------------------------------------
 Structure from the checkpoint file:  "JID_1239.chk"
 Charge =  1 Multiplicity = 2

 SCF Done:  E(UB3LYP) =  -448.336602894     A.U. after   17 cycles
 Normal termination of Gaussian 16 at Tue Dec  8 19:49:20 2020.
 Gaussian 16:  ES64L-G16RevA.03 25-Dec-2016

 ----------------------------------------------------------------------
 # B3LYP/6-311++G(d,p) empiricaldispersion=gd3bj scf=xqc pop=npa geom=c
 heck
 ----------------------------------------------------------------------

 ------------------------------------
 CID_123883954_JID_1239_Energie_anion
 ------------------------------------
 Structure from the checkpoint file:  "JID_1239.chk"
 Charge = -1 Multiplicity = 2

                         Standard orientation:
 ---------------------------------------------------------------------
 Center     Atomic      Atomic             Coordinates (Angstroms)
 Number     Number       Type             X           Y           Z
 ---------------------------------------------------------------------
      1          6           0        2.672420   -1.536590   -0.377186
      2          6           0        1.593045   -0.688520   -1.073347
      3          7           0        0.804670    0.232282   -0.253720
      4          6           0        1.576950    1.105627    0.621587
      5          6           0        2.505653    2.038974   -0.156146
      6          6           0       -0.408992   -0.312866    0.354172
      7          6           0       -1.457586    0.776983    0.737051
      8          6           0       -2.562769   -0.080971    0.067671
      9          6           0       -1.445018   -0.864829   -0.668911
     10          6           0       -3.617104    0.627201   -0.768551
     11          6           0       -0.183325   -1.297315    1.514234
     12          1           0        3.432635   -0.909654    0.101125
     13          1           0        3.183084   -2.161146   -1.119743
     14          1           0        2.256246   -2.196634    0.388614
     15          1           0        2.082065   -0.104953   -1.864710
     16          1           0        0.887639   -1.351992   -1.584271
     17          1           0        0.861299    1.713313    1.186014
     18          1           0        2.168010    0.552310    1.374497
     19          1           0        1.937322    2.601280   -0.904501
     20          1           0        2.988014    2.748937    0.524829
     21          1           0        3.298621    1.490004   -0.675086
     22          1           0       -1.572839    1.021531    1.798420
     23          1           0       -1.274604    1.694951    0.169422
     24          1           0       -3.050928   -0.722150    0.811268
     25          1           0       -1.261940   -0.444279   -1.662960
     26          1           0       -1.549184   -1.952392   -0.747990
     27          1           0       -4.255270   -0.091295   -1.297805
     28          1           0       -4.265280    1.255074   -0.144665
     29          1           0       -3.146669    1.273875   -1.519366
     30          1           0        0.287216   -2.221978    1.165552
     31          1           0        0.456082   -0.856304    2.287145
     32          1           0       -1.133853   -1.570627    1.986807
 ---------------------------------------------------------------------

 SCF Done:  E(UB3LYP) =  -448.592028145     A.U. after   27 cycles

 The electronic state is 2-A.
 Alpha  occ. eigenvalues --  -14.19029 -10.09945 -10.08588 -10.08493 -10.06893
 Alpha  occ. eigenvalues --  -10.05762 -10.05595 -10.05566 -10.05512 -10.05282
 Alpha  occ. eigenvalues --  -10.05140  -0.81972  -0.73829  -0.65313  -0.64537
 Alpha  occ. eigenvalues --   -0.61038  -0.58729  -0.56091  -0.52745  -0.50145
 Alpha  occ. eigenvalues --   -0.45690  -0.41805  -0.39139  -0.37504  -0.37175
 Alpha  occ. eigenvalues --   -0.34518  -0.32272  -0.32002  -0.30776  -0.30472
 Alpha  occ. eigenvalues --   -0.29745  -0.29410  -0.27990  -0.27432  -0.27046
 Alpha  occ. eigenvalues --   -0.26367  -0.25784  -0.23908  -0.23463  -0.21796
 Alpha  occ. eigenvalues --   -0.21219  -0.19562  -0.19207  -0.10014   0.04599
 Alpha virt. eigenvalues --    0.06601   0.07406   0.07604   0.08852   0.09099
 Alpha virt. eigenvalues --    0.09290   0.09999   0.10369   0.11368   0.11687
 Alpha virt. eigenvalues --    0.11907   0.12407   0.12679   0.13339   0.13869

  Beta  occ. eigenvalues --  -14.19029 -10.09942 -10.08576 -10.08478 -10.06883
  Beta  occ. eigenvalues --  -10.05736 -10.05580 -10.05538 -10.05497 -10.05250
  Beta  occ. eigenvalues --  -10.05114  -0.81962  -0.73809  -0.65280  -0.64506
  Beta  occ. eigenvalues --   -0.60997  -0.58683  -0.56049  -0.52682  -0.50093
  Beta  occ. eigenvalues --   -0.45637  -0.41760  -0.39110  -0.37460  -0.37150
  Beta  occ. eigenvalues --   -0.34491  -0.32240  -0.31974  -0.30750  -0.30442
  Beta  occ. eigenvalues --   -0.29713  -0.29371  -0.27955  -0.27395  -0.27019
  Beta  occ. eigenvalues --   -0.26335  -0.25738  -0.23883  -0.23436  -0.21763
  Beta  occ. eigenvalues --   -0.21196  -0.19541  -0.19182  -0.10005
  Beta virt. eigenvalues --    0.06673   0.07405   0.08093   0.08264   0.09358
  Beta virt. eigenvalues --    0.09605   0.09839   0.10449   0.10740   0.11776
  Beta virt. eigenvalues --    0.12128   0.12384   0.12756   0.12964   0.13693

 Mulliken charges and spin densities:
               1          2
     1  C    1.004393  -1.491383
     2  C   -0.994241   0.778101
     3  N    0.335447   0.044163
     4  C   -1.033750   0.808716
     5  C    1.376039  -1.885422
     6  C   -1.183717   1.138607
     7  C    0.422017  -0.906822
     8  C   -0.541734   0.985217
     9  C   -0.492065  -0.019735
    10  C    1.494770  -2.269667
    11  C    1.422225  -2.053769
    12  H   -0.031920   0.173529
    13  H   -0.376182   0.519349
    14  H   -0.198297   0.331136
    15  H   -0.071528   0.242695
    16  H   -0.030625   0.159688
    17  H   -0.018424   0.184210
    18  H   -0.160974   0.273736
    19  H   -0.144700   0.292085
    20  H   -0.237895   0.373130
    21  H   -0.064410   0.200353
    22  H   -0.339024   0.506494
    23  H    0.115659   0.024812
    24  H   -0.154980   0.336664
    25  H    0.063671   0.079361
    26  H   -0.365438   0.530548
    27  H   -0.231094   0.364572
    28  H   -0.150095   0.283774
    29  H   -0.074431   0.209145
    30  H    0.101384   0.034810
    31  H   -0.199293   0.365534
    32  H   -0.240791   0.386369
 Sum of Mulliken charges =  -1.00000   1.00000

 Dipole moment (field-independent basis, Debye):
    X=              0.0099    Y=              0.7070    Z=             -0.8012  Tot=              1.0686
 Quadrupole moment (field-independent basis, Debye-Ang):
   XX=           -143.4347   YY=           -117.9006   ZZ=           -110.3454
   XY=             -0.2008   XZ=              1.1225   YZ=             -1.5007

 Summary of Natural Population Analysis:

                                       Natural Population
                Natural  -----------------------------------------------
    Atom  No    Charge         Core      Valence    Rydberg      Total
 -----------------------------------------------------------------------
      C    1   -0.29680      0.99966     2.29254    0.00461     3.29680
      C    2   -0.08643      0.99961     2.07490    0.01192     3.08643
      N    3   -0.28809      0.99967     2.77470    0.01372     3.78809
      C    4   -0.08699      0.99961     2.07590    0.01147     3.08699
      C    5   -0.28829      0.99966     2.28360    0.00502     3.28829
      C    6    0.07424      0.99954     1.90988    0.01634     2.92576
      C    7   -0.18872      0.99957     2.17965    0.00950     3.18872
      C    8   -0.11175      0.99961     2.10073    0.01141     3.11175
      C    9   -0.18897      0.99957     2.18002    0.00937     3.18897
      C   10   -0.28088      0.99965     2.27652    0.00471     3.28088
      C   11   -0.29540      0.99960     2.28881    0.00699     3.29540
      H   12    0.09680      0.00000     0.40210    0.00110     0.40320
      H   13    0.09885      0.00000     0.39976    0.00139     0.40115
      H   14    0.09715      0.00000     0.40160    0.00125     0.40285
      H   15    0.09057      0.00000     0.40820    0.00122     0.40943
      H   16    0.09686      0.00000     0.40184    0.00130     0.40314
      H   17    0.09676      0.00000     0.40153    0.00171     0.40324
      H   18    0.08038      0.00000     0.41798    0.00163     0.41962
      H   19    0.09864      0.00000     0.40009    0.00127     0.40136
      H   20    0.09868      0.00000     0.40039    0.00093     0.40132
      H   21    0.09625      0.00000     0.40265    0.00111     0.40375
      H   22    0.09815      0.00000     0.40060    0.00125     0.40185
      H   23    0.10188      0.00000     0.39652    0.00160     0.39812
      H   24    0.09503      0.00000     0.40329    0.00168     0.40497
      H   25    0.10155      0.00000     0.39689    0.00157     0.39845
      H   26    0.09856      0.00000     0.40021    0.00124     0.40144
      H   27    0.09820      0.00000     0.40055    0.00125     0.40180
      H   28    0.09833      0.00000     0.40042    0.00124     0.40167
      H   29    0.09518      0.00000     0.40342    0.00140     0.40482
      H   30    0.09902      0.00000     0.39977    0.00120     0.40098
      H   31    0.10092      0.00000     0.39795    0.00113     0.39908
      H   32    0.10030      0.00000     0.39827    0.00143     0.39970
 =======================================================================
   * Total *   -0.00000     10.99576    32.87129    0.13294    44.00000

 Normal termination of Gaussian 16 at Tue Dec  8 19:57:10 2020.
