 Gaussian 16, Revision A.03,

 -----------------------------------------------------------
 # opt freq B3LYP/6-31G(d) empiricaldispersion=gd3bj scf=xqc
 -----------------------------------------------------------

 -------------------------------
 CID_103902113_JID_5627_neutraal
 -------------------------------
 Symbolic Z-matrix:
 Charge =  0 Multiplicity = 1

 SCF Done:  E(RB3LYP) =  -616.952836292     A.U. after   14 cycles
 SCF Done:  E(RB3LYP) =  -616.949146556     A.U. after   13 cycles
 SCF Done:  E(RB3LYP) =  -616.958033625     A.U. after   11 cycles
 SCF Done:  E(RB3LYP) =  -616.959422018     A.U. after   13 cycles
 SCF Done:  E(RB3LYP) =  -616.959961367     A.U. after   12 cycles
 SCF Done:  E(RB3LYP) =  -616.960243377     A.U. after   11 cycles
 SCF Done:  E(RB3LYP) =  -616.960342553     A.U. after   12 cycles
 SCF Done:  E(RB3LYP) =  -616.960442013     A.U. after   11 cycles
 SCF Done:  E(RB3LYP) =  -616.960507902     A.U. after   11 cycles
 SCF Done:  E(RB3LYP) =  -616.960527578     A.U. after   10 cycles
 SCF Done:  E(RB3LYP) =  -616.960531008     A.U. after    8 cycles
 SCF Done:  E(RB3LYP) =  -616.960532474     A.U. after    8 cycles
 SCF Done:  E(RB3LYP) =  -616.960532506     A.U. after    7 cycles
 Optimization completed.
    -- Stationary point found.
 Normal termination of Gaussian 16 at Thu Dec 10 16:53:07 2020.

 --------------------------------------------------------------------
 #N Geom=AllCheck Guess=TCheck SCRF=Check GenChk RB3LYP/6-31G(d) Freq
 --------------------------------------------------------------------

 Structure from the checkpoint file:  "JID_5627.chk"
 -------------------------------
 CID_103902113_JID_5627_neutraal
 -------------------------------
 Charge =  0 Multiplicity = 1

 SCF Done:  E(RB3LYP) =  -616.960532506     A.U. after    1 cycles

  Exact polarizability: 134.500  14.899 148.126   1.526   2.450 132.617
 Approx polarizability: 181.796  33.649 218.730   1.675  -1.224 231.997

                      1                      2                      3
                      A                      A                      A
 Frequencies --     44.8604                56.3250                80.0004
 Red. masses --      3.1907                 3.8924                 3.9291
 Frc consts  --      0.0038                 0.0073                 0.0148
 IR Inten    --      0.0893                 1.5736                 0.0194

                      4                      5                      6
                      A                      A                      A
 Frequencies --     95.7095               124.6734               161.1917
 Red. masses --      3.5285                 3.4346                 2.9796
 Frc consts  --      0.0190                 0.0315                 0.0456
 IR Inten    --      0.5611                 0.0786                 0.5784

                      7                      8                      9
                      A                      A                      A
 Frequencies --    180.3396               214.5351               227.4281
 Red. masses --      2.5890                 1.3566                 1.6140
 Frc consts  --      0.0496                 0.0368                 0.0492
 IR Inten    --      1.3723                 0.6960                 0.9538

                     10                     11                     12
                      A                      A                      A
 Frequencies --    236.7746               265.6864               284.3781
 Red. masses --      1.1556                 1.4188                 2.5608
 Frc consts  --      0.0382                 0.0590                 0.1220
 IR Inten    --      0.4448                 0.2011                 0.1687

                     13                     14                     15
                      A                      A                      A
 Frequencies --    302.7769               333.5203               361.4751
 Red. masses --      2.0154                 2.6685                 2.2519
 Frc consts  --      0.1089                 0.1749                 0.1734
 IR Inten    --      2.1613                 3.8770                 0.1349

                     16                     17                     18
                      A                      A                      A
 Frequencies --    384.8476               396.7064               414.9673
 Red. masses --      2.4918                 2.4141                 3.2918
 Frc consts  --      0.2174                 0.2238                 0.3340
 IR Inten    --      2.7941                 0.5249                 3.0919

                     19                     20                     21
                      A                      A                      A
 Frequencies --    443.4828               462.8436               534.4613
 Red. masses --      3.4319                 2.4218                 3.2900
 Frc consts  --      0.3977                 0.3057                 0.5537
 IR Inten    --      0.4607                 0.8665                 0.9838

                     22                     23                     24
                      A                      A                      A
 Frequencies --    573.9035               603.4131               640.7937
 Red. masses --      2.1827                 2.9197                 5.5926
 Frc consts  --      0.4236                 0.6264                 1.3530
 IR Inten    --     20.9458                25.2061                 5.7897

                     25                     26                     27
                      A                      A                      A
 Frequencies --    686.6124               698.6761               735.8199
 Red. masses --      3.3269                 2.4498                 1.9446
 Frc consts  --      0.9241                 0.7046                 0.6203
 IR Inten    --      6.5907                85.1398                31.4633

                     28                     29                     30
                      A                      A                      A
 Frequencies --    792.6973               798.7681               822.9863
 Red. masses --      2.1484                 3.2216                 1.7444
 Frc consts  --      0.7954                 1.2111                 0.6961
 IR Inten    --      6.2741                17.7322                10.4032

                     31                     32                     33
                      A                      A                      A
 Frequencies --    880.8869               899.1050               929.1047
 Red. masses --      1.6754                 1.8530                 1.2737
 Frc consts  --      0.7659                 0.8825                 0.6478
 IR Inten    --     10.7214                 0.4306                 0.5415

                     34                     35                     36
                      A                      A                      A
 Frequencies --    945.8166               963.0223               971.4237
 Red. masses --      1.3181                 1.4001                 1.7442
 Frc consts  --      0.6947                 0.7650                 0.9698
 IR Inten    --      0.3203                 1.0469                 1.5751

                     37                     38                     39
                      A                      A                      A
 Frequencies --    979.3641               990.7489               993.6122
 Red. masses --      1.5209                 1.3658                 1.6107
 Frc consts  --      0.8595                 0.7899                 0.9369
 IR Inten    --      3.8710                 0.1365                 7.2123

                     40                     41                     42
                      A                      A                      A
 Frequencies --   1033.6732              1041.4177              1045.7682
 Red. masses --      1.9442                 1.9251                 3.2507
 Frc consts  --      1.2239                 1.2301                 2.0946
 IR Inten    --     15.0390                 0.4928                10.6729

                     43                     44                     45
                      A                      A                      A
 Frequencies --   1061.6153              1076.2351              1092.7159
 Red. masses --      1.3492                 2.8672                 1.6880
 Frc consts  --      0.8959                 1.9567                 1.1875
 IR Inten    --      5.4776                 0.4738                 8.9532

                     46                     47                     48
                      A                      A                      A
 Frequencies --   1098.9853              1113.4004              1144.2209
 Red. masses --      2.0582                 1.5449                 1.8576
 Frc consts  --      1.4646                 1.1283                 1.4329
 IR Inten    --      9.8825                 1.3227                 8.8452

                     49                     50                     51
                      A                      A                      A
 Frequencies --   1151.6551              1170.5987              1173.8393
 Red. masses --      1.5971                 2.6626                 2.2142
 Frc consts  --      1.2480                 2.1497                 1.7975
 IR Inten    --      3.0740                69.0839                 3.5365

                     52                     53                     54
                      A                      A                      A
 Frequencies --   1193.4419              1226.5662              1249.5258
 Red. masses --      1.9416                 1.9678                 1.5949
 Frc consts  --      1.6293                 1.7443                 1.4671
 IR Inten    --     10.4072                 9.5717                 4.3688

                     55                     56                     57
                      A                      A                      A
 Frequencies --   1279.3818              1303.9023              1318.9332
 Red. masses --      1.7975                 3.2374                 1.9132
 Frc consts  --      1.7335                 3.2429                 1.9609
 IR Inten    --      3.1690                 8.1587                 2.5462

                     58                     59                     60
                      A                      A                      A
 Frequencies --   1336.6851              1350.4842              1374.3814
 Red. masses --      1.5511                 1.8816                 1.3031
 Frc consts  --      1.6328                 2.0219                 1.4502
 IR Inten    --      5.6125                 4.1235                 6.2560

                     61                     62                     63
                      A                      A                      A
 Frequencies --   1391.2842              1400.8979              1430.2417
 Red. masses --      1.3538                 1.2439                 1.2377
 Frc consts  --      1.5440                 1.4383                 1.4917
 IR Inten    --      8.7999                 3.1715                 5.6441

                     64                     65                     66
                      A                      A                      A
 Frequencies --   1440.3281              1447.8496              1453.6745
 Red. masses --      1.3278                 1.4173                 1.3597
 Frc consts  --      1.6230                 1.7505                 1.6928
 IR Inten    --      5.3283                 3.9471                 5.3701

                     67                     68                     69
                      A                      A                      A
 Frequencies --   1470.2018              1499.8718              1509.9079
 Red. masses --      2.1250                 1.0823                 1.1012
 Frc consts  --      2.7062                 1.4345                 1.4791
 IR Inten    --     17.5844                 3.2199                 7.7924

                     70                     71                     72
                      A                      A                      A
 Frequencies --   1513.2279              1520.6642              1522.3674
 Red. masses --      1.0826                 1.0852                 1.1814
 Frc consts  --      1.4605                 1.4785                 1.6132
 IR Inten    --      1.9125                 9.0127                 3.0952

                     73                     74                     75
                      A                      A                      A
 Frequencies --   1526.1813              1528.7332              1531.8414
 Red. masses --      1.2194                 1.6143                 1.0726
 Frc consts  --      1.6735                 2.2228                 1.4829
 IR Inten    --      2.4826                11.1245                 3.6784

                     76                     77                     78
                      A                      A                      A
 Frequencies --   1538.2211              1546.5497              1632.5859
 Red. masses --      1.1808                 1.1520                 5.1018
 Frc consts  --      1.6461                 1.6234                 8.0118
 IR Inten    --     14.6345                 2.9183                11.6783

                     79                     80                     81
                      A                      A                      A
 Frequencies --   1649.2890              3037.7364              3041.1440
 Red. masses --      5.5944                 1.0601                 1.0397
 Frc consts  --      8.9659                 5.7635                 5.6656
 IR Inten    --      2.2925                49.3499                39.0173

                     82                     83                     84
                      A                      A                      A
 Frequencies --   3045.9158              3048.4144              3051.6908
 Red. masses --      1.0596                 1.0403                 1.0601
 Frc consts  --      5.7920                 5.6960                 5.8165
 IR Inten    --     11.4340                15.1866                31.6617

                     85                     86                     87
                      A                      A                      A
 Frequencies --   3077.7603              3100.9105              3104.4936
 Red. masses --      1.1000                 1.0997                 1.0990
 Frc consts  --      6.1392                 6.2302                 6.2406
 IR Inten    --     27.8522                13.8032                45.8461

                     88                     89                     90
                      A                      A                      A
 Frequencies --   3116.5388              3125.1459              3130.1710
 Red. masses --      1.0994                 1.0938                 1.0614
 Frc consts  --      6.2913                 6.2941                 6.1273
 IR Inten    --     25.1148                13.1119                25.2596

                     91                     92                     93
                      A                      A                      A
 Frequencies --   3132.6365              3135.6720              3142.5379
 Red. masses --      1.0965                 1.0902                 1.1037
 Frc consts  --      6.3398                 6.3159                 6.4220
 IR Inten    --     27.4514                20.2877                29.5096

                     94                     95                     96
                      A                      A                      A
 Frequencies --   3148.9389              3174.3190              3182.2445
 Red. masses --      1.0892                 1.0882                 1.0890
 Frc consts  --      6.3631                 6.4602                 6.4976
 IR Inten    --     29.3577                11.5834                21.0234

                     97                     98                     99
                      A                      A                      A
 Frequencies --   3208.3005              3209.2204              3512.3510
 Red. masses --      1.1164                 1.0964                 1.0735
 Frc consts  --      6.7707                 6.6529                 7.8031
 IR Inten    --     12.7935                25.1784                 0.9493

 - Thermochemistry -
 -------------------
 Temperature   298.150 Kelvin.  Pressure   1.00000 Atm.
 Atom     1 has atomic number  6 and mass  12.00000

 Molecular mass:   204.16265 amu.
 Principal axes and moments of inertia in atomic units:
                           1         2         3
     Eigenvalues --  2426.025463220.129194412.87288
           X            0.99803  -0.06201   0.00955
           Y            0.06187   0.99799   0.01401
           Z           -0.01040  -0.01339   0.99986
 This molecule is an asymmetric top.
 Rotational symmetry number  1.
 Warning -- assumption of classical behavior for rotation
           may cause significant error
 Rotational temperatures (Kelvin)      0.03570     0.02690     0.01963
 Rotational constants (GHZ):           0.74391     0.56046     0.40897
 Zero-point vibrational energy     817236.2 (Joules/Mol)
                                  195.32414 (Kcal/Mol)
 Warning -- explicit consideration of  23 degrees of freedom as
           vibrations may cause significant error
 Vibrational temperatures:     64.54    81.04   115.10   137.70   179.38
          (Kelvin)            231.92   259.47   308.67   327.22   340.67
                              382.26   409.16   435.63   479.86   520.08
                              553.71   570.77   597.05   638.07   665.93
                              768.97   825.72   868.18   921.96   987.88
                             1005.24  1058.68  1140.51  1149.25  1184.09
                             1267.40  1293.61  1336.77  1360.82  1385.57
                             1397.66  1409.09  1425.47  1429.59  1487.23
                             1498.37  1504.63  1527.43  1548.46  1572.17
                             1581.19  1601.93  1646.28  1656.97  1684.23
                             1688.89  1717.10  1764.76  1797.79  1840.74
                             1876.02  1897.65  1923.19  1943.05  1977.43
                             2001.75  2015.58  2057.80  2072.31  2083.13
                             2091.51  2115.29  2157.98  2172.42  2177.20
                             2187.90  2190.35  2195.83  2199.51  2203.98
                             2213.16  2225.14  2348.93  2372.96  4370.63
                             4375.53  4382.39  4385.99  4390.70  4428.21
                             4461.52  4466.67  4484.00  4496.39  4503.62
                             4507.17  4511.53  4521.41  4530.62  4567.14
                             4578.54  4616.03  4617.35  5053.49

 Zero-point correction=                           0.311269 (Hartree/Particle)
 Thermal correction to Energy=                    0.326402
 Thermal correction to Enthalpy=                  0.327347
 Thermal correction to Gibbs Free Energy=         0.269623
 Sum of electronic and zero-point Energies=           -616.649264
 Sum of electronic and thermal Energies=              -616.634130
 Sum of electronic and thermal Enthalpies=            -616.633186
 Sum of electronic and thermal Free Energies=         -616.690910

                     E (Thermal)             CV                S
                      KCal/Mol        Cal/Mol-Kelvin    Cal/Mol-Kelvin
 Total                  204.821             59.073            121.490
 Electronic               0.000              0.000              0.000
 Translational            0.889              2.981             41.846
 Rotational               0.889              2.981             31.911
 Vibrational            203.043             53.112             47.733
 Vibration     1          0.595              1.979              5.032
 Vibration     2          0.596              1.975              4.582
 Vibration     3          0.600              1.963              3.891
 Vibration     4          0.603              1.952              3.540
 Vibration     5          0.610              1.928              3.027
 Vibration     6          0.622              1.890              2.536
 Vibration     7          0.629              1.866              2.325
 Vibration     8          0.644              1.819              2.005
 Vibration     9          0.651              1.799              1.899
 Vibration    10          0.656              1.784              1.827
 Vibration    11          0.672              1.736              1.624
 Vibration    12          0.683              1.703              1.507
 Vibration    13          0.694              1.668              1.402
 Vibration    14          0.715              1.609              1.243
 Vibration    15          0.736              1.552              1.116
 Vibration    16          0.754              1.503              1.020
 Vibration    17          0.763              1.477              0.975
 Vibration    18          0.778              1.438              0.909
 Vibration    19          0.803              1.375              0.816
 Vibration    20          0.820              1.332              0.758
 Vibration    21          0.889              1.174              0.577
 Vibration    22          0.930              1.088              0.497
 Vibration    23          0.962              1.025              0.444

 Optimization completed.
    -- Stationary point found.
 Normal termination of Gaussian 16 at Thu Dec 10 17:09:04 2020.

 ----------------------------------------------------------------------
 # B3LYP/6-311++G(d,p) empiricaldispersion=gd3bj scf=xqc pop=npa geom=c
 heck
 ----------------------------------------------------------------------

 ---------------------------------------
 CID_103902113_JID_5627_Energie_neutraal
 ---------------------------------------
 Structure from the checkpoint file:  "JID_5627.chk"
 Charge =  0 Multiplicity = 1

 SCF Done:  E(RB3LYP) =  -617.126748466     A.U. after   16 cycles
 Normal termination of Gaussian 16 at Thu Dec 10 17:16:35 2020.

 ----------------------------------------------------------------------
 # B3LYP/6-311++G(d,p) empiricaldispersion=gd3bj scf=xqc pop=npa geom=c
 heck
 ----------------------------------------------------------------------

 -------------------------------------
 CID_103902113_JID_5627_Energie_kation
 -------------------------------------
 Structure from the checkpoint file:  "JID_5627.chk"
 Charge =  1 Multiplicity = 2

 SCF Done:  E(UB3LYP) =  -616.831058000     A.U. after   27 cycles
 Normal termination of Gaussian 16 at Thu Dec 10 17:34:37 2020.
 Gaussian 16:  ES64L-G16RevA.03 25-Dec-2016

 ----------------------------------------------------------------------
 # B3LYP/6-311++G(d,p) empiricaldispersion=gd3bj scf=xqc pop=npa geom=c
 heck
 ----------------------------------------------------------------------

 ------------------------------------
 CID_103902113_JID_5627_Energie_anion
 ------------------------------------
 Structure from the checkpoint file:  "JID_5627.chk"
 Charge = -1 Multiplicity = 2

                         Standard orientation:
 ---------------------------------------------------------------------
 Center     Atomic      Atomic             Coordinates (Angstroms)
 Number     Number       Type             X           Y           Z
 ---------------------------------------------------------------------
      1          6           0       -1.668878    2.862533    0.502906
      2          6           0       -0.573731    1.786921    0.405121
      3          6           0       -1.224701    0.439018    0.100071
      4          6           0       -1.668037   -0.383223    1.142456
      5          7           0       -2.305923   -1.547854    0.979928
      6          6           0       -2.540247   -1.944848   -0.276820
      7          6           0       -2.151693   -1.207319   -1.395426
      8          6           0       -1.488745    0.001296   -1.198793
      9          7           0        0.453445    2.252985   -0.518807
     10          6           0        1.770900    1.623057   -0.463655
     11          6           0        1.878157    0.140915   -0.789289
     12          6           0        3.185282   -0.583881   -0.551782
     13          6           0        1.957434   -0.975031    0.238330
     14          6           0        1.941470   -0.670878    1.724532
     15          6           0        1.286879   -2.289656   -0.116145
     16          1           0       -2.161844    2.990640   -0.468863
     17          1           0       -1.227156    3.819569    0.794406
     18          1           0       -2.437936    2.579124    1.228921
     19          1           0       -0.089037    1.703664    1.386364
     20          1           0       -1.492591   -0.079821    2.174948
     21          1           0       -3.057680   -2.895336   -0.392240
     22          1           0       -2.363352   -1.573982   -2.395394
     23          1           0       -1.169491    0.592171   -2.053486
     24          1           0        0.101002    2.281603   -1.472148
     25          1           0        2.406346    2.178597   -1.166028
     26          1           0        2.186110    1.817766    0.532508
     27          1           0        1.362082   -0.131694   -1.709435
     28          1           0        3.969333   -0.039725   -0.028221
     29          1           0        3.554496   -1.259904   -1.319028
     30          1           0        2.456296    0.263441    1.967692
     31          1           0        0.915386   -0.603763    2.103271
     32          1           0        2.444742   -1.473781    2.277411
     33          1           0        1.293097   -2.461292   -1.198324
     34          1           0        1.807223   -3.130932    0.359655
     35          1           0        0.245790   -2.305675    0.221106
 ---------------------------------------------------------------------

 SCF Done:  E(UB3LYP) =  -617.113712410     A.U. after   33 cycles
 SCF Done:  E(UB3LYP) =  -617.113712443     a.u. after    2 cycles

 The electronic state is 2-A.
 Alpha  occ. eigenvalues --  -14.19475 -14.19326 -10.10702 -10.09315 -10.09296
 Alpha  occ. eigenvalues --  -10.08873 -10.08179 -10.07461 -10.06960 -10.06777
 Alpha  occ. eigenvalues --  -10.06596 -10.06346 -10.06334 -10.06155 -10.05136
 Alpha  occ. eigenvalues --   -0.83112  -0.80974  -0.76415  -0.69966  -0.66883
 Alpha  occ. eigenvalues --   -0.63554  -0.62360  -0.58946  -0.56841  -0.53659
 Alpha  occ. eigenvalues --   -0.51946  -0.48601  -0.47811  -0.43739  -0.41529
 Alpha  occ. eigenvalues --   -0.39183  -0.38105  -0.37154  -0.35798  -0.35168
 Alpha  occ. eigenvalues --   -0.33827  -0.32962  -0.32489  -0.30299  -0.29925
 Alpha  occ. eigenvalues --   -0.29379  -0.28839  -0.28426  -0.27937  -0.27336
 Alpha  occ. eigenvalues --   -0.26461  -0.26036  -0.25412  -0.24070  -0.23660
 Alpha  occ. eigenvalues --   -0.18628  -0.17582  -0.16633  -0.15162  -0.14735
 Alpha  occ. eigenvalues --   -0.12133   0.04710
 Alpha virt. eigenvalues --    0.06903   0.07024   0.07497   0.07883   0.08773
 Alpha virt. eigenvalues --    0.08923   0.09166   0.09708   0.09846   0.10303
 Alpha virt. eigenvalues --    0.11448   0.11744   0.12118   0.12467   0.12970

  Beta  occ. eigenvalues --  -14.19459 -14.19183 -10.10695 -10.09313 -10.09302
  Beta  occ. eigenvalues --  -10.08791 -10.08178 -10.07487 -10.06840 -10.06774
  Beta  occ. eigenvalues --  -10.06534 -10.06333 -10.06320 -10.06134 -10.05122
  Beta  occ. eigenvalues --   -0.82912  -0.80935  -0.76406  -0.69833  -0.66750
  Beta  occ. eigenvalues --   -0.63483  -0.62323  -0.58913  -0.56805  -0.53595
  Beta  occ. eigenvalues --   -0.51719  -0.48548  -0.47750  -0.43704  -0.41444
  Beta  occ. eigenvalues --   -0.39132  -0.38045  -0.37091  -0.35767  -0.35117
  Beta  occ. eigenvalues --   -0.33765  -0.32923  -0.32423  -0.30258  -0.29797
  Beta  occ. eigenvalues --   -0.29328  -0.28753  -0.28344  -0.27830  -0.27279
  Beta  occ. eigenvalues --   -0.26427  -0.25905  -0.25380  -0.24027  -0.23632
  Beta  occ. eigenvalues --   -0.18516  -0.17173  -0.16452  -0.15006  -0.14468
  Beta  occ. eigenvalues --   -0.12098
  Beta virt. eigenvalues --    0.06823   0.07592   0.07906   0.08150   0.08269
  Beta virt. eigenvalues --    0.08947   0.09151   0.09685   0.09929   0.10206
  Beta virt. eigenvalues --    0.10419   0.11783   0.11944   0.12364   0.12905

 Mulliken charges and spin densities:
               1          2
     1  C    0.072846  -0.676594
     2  C    0.450433  -1.130366
     3  C    1.124499   0.288311
     4  C   -2.062044   1.471131
     5  N   -0.007495   0.027468
     6  C    0.472565  -0.849400
     7  C    1.018761  -1.169656
     8  C   -0.612760   0.006583
     9  N    0.078579  -0.009873
    10  C    0.180933  -0.806004
    11  C    0.672336  -0.385773
    12  C    0.028007  -0.556671
    13  C   -1.023283   1.691792
    14  C   -0.591301  -0.167529
    15  C    0.495477  -1.174384
    16  H   -0.005580   0.165647
    17  H    0.064790   0.075333
    18  H    0.111324   0.033528
    19  H    0.077645   0.073207
    20  H   -0.001538   0.134773
    21  H    0.049616   0.101727
    22  H   -0.730191   0.915430
    23  H   -0.977346   1.122823
    24  H    0.042480   0.221778
    25  H   -0.336739   0.511986
    26  H    0.240035  -0.075502
    27  H    0.269391  -0.045831
    28  H   -0.012511   0.142743
    29  H   -0.240892   0.401972
    30  H   -0.022706   0.132182
    31  H    0.154916   0.029257
    32  H   -0.069066   0.215964
    33  H   -0.331998   0.455106
    34  H    0.034044   0.101354
    35  H    0.386772  -0.272509
 Sum of Mulliken charges =  -1.00000   1.00000

 Dipole moment (field-independent basis, Debye):
    X=              0.7901    Y=              1.2702    Z=              5.3101  Tot=              5.5167
 Quadrupole moment (field-independent basis, Debye-Ang):
   XX=           -141.0027   YY=           -137.6505   ZZ=           -140.6595
   XY=             -2.0037   XZ=             -0.8208   YZ=              3.8459

 Summary of Natural Population Analysis:

                                       Natural Population
                Natural  -----------------------------------------------
    Atom  No    Charge         Core      Valence    Rydberg      Total
 -----------------------------------------------------------------------
      C    1   -0.27839      0.99964     2.27310    0.00565     3.27839
      C    2   -0.01756      0.99956     2.00553    0.01247     3.01756
      C    3   -0.04263      0.99947     2.03076    0.01241     3.04263
      C    4    0.03432      0.99952     1.95325    0.01291     2.96568
      N    5   -0.21994      0.99971     2.70940    0.01083     3.71994
      C    6    0.01277      0.99958     1.97226    0.01538     2.98723
      C    7   -0.10983      0.99955     2.09993    0.01035     3.10983
      C    8   -0.06951      0.99949     2.05801    0.01201     3.06951
      N    9   -0.34009      0.99974     2.82849    0.01186     3.84009
      C   10   -0.08339      0.99959     2.07140    0.01239     3.08339
      C   11   -0.11963      0.99954     2.10853    0.01157     3.11963
      C   12   -0.19486      0.99957     2.18618    0.00912     3.19486
      C   13   -0.04392      0.99955     2.03293    0.01144     3.04392
      C   14   -0.28228      0.99962     2.27667    0.00600     3.28228
      C   15   -0.27975      0.99962     2.27353    0.00660     3.27975
      H   16    0.10012      0.00000     0.39895    0.00092     0.39988
      H   17    0.09985      0.00000     0.39921    0.00094     0.40015
      H   18    0.09749      0.00000     0.40184    0.00067     0.40251
      H   19    0.09397      0.00000     0.40424    0.00179     0.40603
      H   20    0.08382      0.00000     0.41455    0.00163     0.41618
      H   21    0.08747      0.00000     0.41137    0.00116     0.41253
      H   22    0.10450      0.00000     0.39396    0.00154     0.39550
      H   23    0.10136      0.00000     0.39514    0.00349     0.39864
      H   24    0.17529      0.00000     0.32113    0.00358     0.32471
      H   25    0.09608      0.00000     0.40292    0.00100     0.40392
      H   26    0.08942      0.00000     0.40909    0.00149     0.41058
      H   27    0.10558      0.00000     0.39177    0.00265     0.39442
      H   28    0.09756      0.00000     0.40142    0.00102     0.40244
      H   29    0.10262      0.00000     0.39637    0.00101     0.39738
      H   30    0.09686      0.00000     0.40222    0.00092     0.40314
      H   31    0.10262      0.00000     0.39629    0.00109     0.39738
      H   32    0.09821      0.00000     0.40103    0.00077     0.40179
      H   33    0.10111      0.00000     0.39764    0.00125     0.39889
      H   34    0.09377      0.00000     0.40534    0.00089     0.40623
      H   35    0.10700      0.00000     0.39137    0.00163     0.39300
 =======================================================================
   * Total *   -0.00000     14.99375    40.81584    0.19041    56.00000

 Normal termination of Gaussian 16 at Thu Dec 10 18:13:40 2020.
