 Gaussian 16, Revision A.03,

 -----------------------------------------------------------
 # opt freq B3LYP/6-31G(d) empiricaldispersion=gd3bj scf=xqc
 -----------------------------------------------------------

 -------------------------------
 CID_149191123_JID_5302_neutraal
 -------------------------------
 Symbolic Z-matrix:
 Charge =  0 Multiplicity = 1

 SCF Done:  E(RB3LYP) =  -620.802688969     A.U. after   14 cycles
 SCF Done:  E(RB3LYP) =  -620.804723827     A.U. after   12 cycles
 SCF Done:  E(RB3LYP) =  -620.805142449     A.U. after   12 cycles
 SCF Done:  E(RB3LYP) =  -620.805318177     A.U. after   12 cycles
 SCF Done:  E(RB3LYP) =  -620.805410525     A.U. after   11 cycles
 SCF Done:  E(RB3LYP) =  -620.805450902     A.U. after   10 cycles
 SCF Done:  E(RB3LYP) =  -620.805459700     A.U. after   10 cycles
 SCF Done:  E(RB3LYP) =  -620.805461925     A.U. after    9 cycles
 SCF Done:  E(RB3LYP) =  -620.805462825     A.U. after    8 cycles
 SCF Done:  E(RB3LYP) =  -620.805463165     A.U. after    7 cycles
 SCF Done:  E(RB3LYP) =  -620.805463291     A.U. after    7 cycles
 SCF Done:  E(RB3LYP) =  -620.805463348     A.U. after    7 cycles
 Optimization completed.
    -- Stationary point found.
 Normal termination of Gaussian 16 at Thu Dec 10 15:27:44 2020.

 --------------------------------------------------------------------
 #N Geom=AllCheck Guess=TCheck SCRF=Check GenChk RB3LYP/6-31G(d) Freq
 --------------------------------------------------------------------

 Structure from the checkpoint file:  "JID_5302.chk"
 -------------------------------
 CID_149191123_JID_5302_neutraal
 -------------------------------
 Charge =  0 Multiplicity = 1

 SCF Done:  E(RB3LYP) =  -620.805463348     A.U. after    1 cycles

  Exact polarizability: 179.697   5.957 129.849  15.635 -10.093 123.817
 Approx polarizability: 241.544   7.626 203.258  25.016 -23.113 199.138

                      1                      2                      3
                      A                      A                      A
 Frequencies --     20.1276                34.0602                40.7655
 Red. masses --      3.8105                 3.6495                 4.3326
 Frc consts  --      0.0009                 0.0025                 0.0042
 IR Inten    --      0.0710                 0.3426                 0.1266

                      4                      5                      6
                      A                      A                      A
 Frequencies --     57.6916                80.0036               111.4182
 Red. masses --      3.7553                 4.0343                 2.6055
 Frc consts  --      0.0074                 0.0152                 0.0191
 IR Inten    --      0.0552                 0.2375                 0.4282

                      7                      8                      9
                      A                      A                      A
 Frequencies --    144.8647               179.8161               216.2889
 Red. masses --      4.0085                 2.5978                 2.7047
 Frc consts  --      0.0496                 0.0495                 0.0745
 IR Inten    --      0.6686                 0.2604                 2.6711

                     10                     11                     12
                      A                      A                      A
 Frequencies --    223.7216               261.5263               304.7869
 Red. masses --      1.3615                 2.4273                 1.7558
 Frc consts  --      0.0402                 0.0978                 0.0961
 IR Inten    --      0.2894                 5.5685                18.6475

                     13                     14                     15
                      A                      A                      A
 Frequencies --    334.2088               344.3998               373.8510
 Red. masses --      2.0716                 2.0056                 2.0671
 Frc consts  --      0.1363                 0.1402                 0.1702
 IR Inten    --      9.1555                 5.5584                 0.0900

                     16                     17                     18
                      A                      A                      A
 Frequencies --    404.6453               417.7107               440.2355
 Red. masses --      2.1271                 2.9970                 2.1373
 Frc consts  --      0.2052                 0.3081                 0.2441
 IR Inten    --      4.8957                 0.0014                42.4499

                     19                     20                     21
                      A                      A                      A
 Frequencies --    457.6196               499.6883               556.2688
 Red. masses --      2.4089                 3.7225                 2.8300
 Frc consts  --      0.2972                 0.5476                 0.5160
 IR Inten    --      7.1297                 2.9779                11.8302

                     22                     23                     24
                      A                      A                      A
 Frequencies --    585.4458               634.8419               638.4532
 Red. masses --      2.9057                 3.0132                 6.2715
 Frc consts  --      0.5868                 0.7155                 1.5062
 IR Inten    --      5.0511                 8.4822                 0.0233

                     25                     26                     27
                      A                      A                      A
 Frequencies --    714.8525               737.6818               760.6503
 Red. masses --      1.9129                 1.6062                 2.0758
 Frc consts  --      0.5759                 0.5150                 0.7076
 IR Inten    --     23.2462                10.4909                24.0637

                     28                     29                     30
                      A                      A                      A
 Frequencies --    779.3262               797.8602               826.9244
 Red. masses --      2.7908                 1.2246                 2.2065
 Frc consts  --      0.9986                 0.4593                 0.8890
 IR Inten    --      0.5035                 3.8381                 1.6928

                     31                     32                     33
                      A                      A                      A
 Frequencies --    835.4242               860.5043               903.0464
 Red. masses --      2.2810                 1.2496                 1.3510
 Frc consts  --      0.9380                 0.5452                 0.6491
 IR Inten    --      7.5404                 0.1976                13.3212

                     34                     35                     36
                      A                      A                      A
 Frequencies --    918.3796               930.1644               961.0315
 Red. masses --      1.4873                 1.8087                 2.0914
 Frc consts  --      0.7391                 0.9220                 1.1381
 IR Inten    --      2.3192                 6.0369                 1.1394

                     37                     38                     39
                      A                      A                      A
 Frequencies --    965.8756               976.1607               993.2775
 Red. masses --      1.3827                 2.0673                 1.2460
 Frc consts  --      0.7600                 1.1606                 0.7243
 IR Inten    --      0.5055                 6.2274                 0.3183

                     40                     41                     42
                      A                      A                      A
 Frequencies --   1021.9811              1033.0944              1051.2328
 Red. masses --      5.9307                 1.7489                 1.9763
 Frc consts  --      3.6496                 1.0998                 1.2868
 IR Inten    --      0.2152                10.1585                 5.8761

                     43                     44                     45
                      A                      A                      A
 Frequencies --   1062.5065              1085.1809              1095.7289
 Red. masses --      2.0997                 1.8150                 1.7503
 Frc consts  --      1.3966                 1.2593                 1.2381
 IR Inten    --      4.4899                10.1096                19.3402

                     46                     47                     48
                      A                      A                      A
 Frequencies --   1112.7136              1114.7841              1155.6250
 Red. masses --      1.5648                 2.9857                 1.5475
 Frc consts  --      1.1415                 2.1861                 1.2176
 IR Inten    --     12.4364                 1.9129                40.2477

                     49                     50                     51
                      A                      A                      A
 Frequencies --   1184.7460              1193.2734              1200.1088
 Red. masses --      1.4512                 1.1009                 1.3663
 Frc consts  --      1.2001                 0.9236                 1.1594
 IR Inten    --    102.0206                 1.1679                48.6366

                     52                     53                     54
                      A                      A                      A
 Frequencies --   1215.5654              1220.8161              1239.2810
 Red. masses --      1.1387                 1.7197                 2.2701
 Frc consts  --      0.9914                 1.5101                 2.0541
 IR Inten    --      0.9697                 8.9257                 0.7450

                     55                     56                     57
                      A                      A                      A
 Frequencies --   1269.6409              1303.6887              1324.1441
 Red. masses --      1.3578                 1.2136                 1.3867
 Frc consts  --      1.2895                 1.2153                 1.4326
 IR Inten    --      4.5738                11.3787                 1.5300

                     58                     59                     60
                      A                      A                      A
 Frequencies --   1341.5916              1354.5406              1367.6751
 Red. masses --      1.3476                 2.2587                 1.9784
 Frc consts  --      1.4290                 2.4417                 2.1804
 IR Inten    --      5.0769                 2.6427                 0.3782

                     61                     62                     63
                      A                      A                      A
 Frequencies --   1373.4255              1383.8050              1385.6906
 Red. masses --      1.3392                 1.5915                 1.4304
 Frc consts  --      1.4884                 1.7956                 1.6183
 IR Inten    --      8.2890                 5.5377                 1.1793

                     64                     65                     66
                      A                      A                      A
 Frequencies --   1408.0618              1414.2459              1432.5622
 Red. masses --      1.3344                 1.3995                 1.3134
 Frc consts  --      1.5588                 1.6493                 1.5880
 IR Inten    --      9.5692                 4.9601                10.5415

                     67                     68                     69
                      A                      A                      A
 Frequencies --   1436.6295              1502.5625              1511.8850
 Red. masses --      1.2720                 2.0524                 1.0735
 Frc consts  --      1.5467                 2.7301                 1.4457
 IR Inten    --      2.7526                 5.3517                 1.9841

                     70                     71                     72
                      A                      A                      A
 Frequencies --   1514.7067              1520.6636              1523.5194
 Red. masses --      1.1032                 1.0980                 1.1080
 Frc consts  --      1.4913                 1.4959                 1.5153
 IR Inten    --      5.1955                 8.6207                 7.3838

                     73                     74                     75
                      A                      A                      A
 Frequencies --   1527.3203              1536.9640              1540.7762
 Red. masses --      1.0447                 1.0749                 1.1074
 Frc consts  --      1.4358                 1.4960                 1.5490
 IR Inten    --      4.2383                 3.1875                 3.9911

                     76                     77                     78
                      A                      A                      A
 Frequencies --   1549.2472              1646.6130              1668.7454
 Red. masses --      2.1596                 5.4879                 5.6225
 Frc consts  --      3.0539                 8.7667                 9.2248
 IR Inten    --     11.0091                 0.9428                 5.5105

                     79                     80                     81
                      A                      A                      A
 Frequencies --   1747.3760              2996.9604              3025.8039
 Red. masses --      6.1476                 1.0745                 1.0637
 Frc consts  --     11.0593                 5.6860                 5.7381
 IR Inten    --    109.3855                35.1740                29.3852

                     82                     83                     84
                      A                      A                      A
 Frequencies --   3035.3430              3042.5955              3046.6897
 Red. masses --      1.0630                 1.0631                 1.0352
 Frc consts  --      5.7704                 5.7982                 5.6616
 IR Inten    --     21.4711                34.4458                24.8348

                     85                     86                     87
                      A                      A                      A
 Frequencies --   3050.2572              3066.5792              3072.7458
 Red. masses --      1.0619                 1.0980                 1.1009
 Frc consts  --      5.8210                 6.0838                 6.1243
 IR Inten    --     25.1034                26.2443                 3.9437

                     88                     89                     90
                      A                      A                      A
 Frequencies --   3081.7555              3093.1789              3097.1850
 Red. masses --      1.0963                 1.0994                 1.0921
 Frc consts  --      6.1345                 6.1972                 6.1722
 IR Inten    --     26.3615                74.6371                44.1810

                     91                     92                     93
                      A                      A                      A
 Frequencies --   3111.9993              3121.2544              3173.4261
 Red. masses --      1.1012                 1.1032                 1.0857
 Frc consts  --      6.2836                 6.3324                 6.4419
 IR Inten    --     55.4781                45.0392                11.9464

                     94                     95                     96
                      A                      A                      A
 Frequencies --   3175.2185              3188.0362              3196.6157
 Red. masses --      1.0873                 1.0896                 1.0938
 Frc consts  --      6.4588                 6.5247                 6.5850
 IR Inten    --      7.6055                 8.7863                43.8267

                     97                     98                     99
                      A                      A                      A
 Frequencies --   3209.3609              3210.6989              3748.2076
 Red. masses --      1.0979                 1.0921                 1.0648
 Frc consts  --      6.6625                 6.6333                 8.8136
 IR Inten    --     23.5901                16.2343                15.5705

 - Thermochemistry -
 -------------------
 Temperature   298.150 Kelvin.  Pressure   1.00000 Atm.
 Atom     1 has atomic number  6 and mass  12.00000

 Molecular mass:   204.15142 amu.
 Principal axes and moments of inertia in atomic units:
                           1         2         3
     Eigenvalues --  1636.499086582.224577054.94911
           X            0.99984   0.01717   0.00429
           Y           -0.01705   0.99951  -0.02624
           Z           -0.00474   0.02616   0.99965
 This molecule is an asymmetric top.
 Rotational symmetry number  1.
 Warning -- assumption of classical behavior for rotation
           may cause significant error
 Rotational temperatures (Kelvin)      0.05293     0.01316     0.01228
 Rotational constants (GHZ):           1.10281     0.27418     0.25581
 Zero-point vibrational energy     817290.1 (Joules/Mol)
                                  195.33702 (Kcal/Mol)
 Warning -- explicit consideration of  22 degrees of freedom as
           vibrations may cause significant error
 Vibrational temperatures:     28.96    49.01    58.65    83.01   115.11
          (Kelvin)            160.31   208.43   258.72   311.19   321.89
                              376.28   438.52   480.85   495.51   537.89
                              582.19   600.99   633.40   658.41   718.94
                              800.35   842.33   913.40   918.59  1028.51
                             1061.36  1094.41  1121.28  1147.94  1189.76
                             1201.99  1238.07  1299.28  1321.34  1338.30
                             1382.71  1389.68  1404.48  1429.10  1470.40
                             1486.39  1512.49  1528.71  1561.33  1576.51
                             1600.95  1603.93  1662.69  1704.59  1716.85
                             1726.69  1748.93  1756.48  1783.05  1826.73
                             1875.72  1905.15  1930.25  1948.88  1967.78
                             1976.05  1990.99  1993.70  2025.89  2034.78
                             2061.14  2066.99  2161.85  2175.27  2179.33
                             2187.90  2192.00  2197.47  2211.35  2216.83
                             2229.02  2369.11  2400.95  2514.08  4311.96
                             4353.46  4367.18  4377.62  4383.51  4388.64
                             4412.12  4421.00  4433.96  4450.39  4456.16
                             4477.47  4490.79  4565.85  4568.43  4586.87
                             4599.22  4617.55  4619.48  5392.83

 Zero-point correction=                           0.311289 (Hartree/Particle)
 Thermal correction to Energy=                    0.326786
 Thermal correction to Enthalpy=                  0.327730
 Thermal correction to Gibbs Free Energy=         0.266509
 Sum of electronic and zero-point Energies=           -620.494174
 Sum of electronic and thermal Energies=              -620.478677
 Sum of electronic and thermal Enthalpies=            -620.477733
 Sum of electronic and thermal Free Energies=         -620.538955

                     E (Thermal)             CV                S
                      KCal/Mol        Cal/Mol-Kelvin    Cal/Mol-Kelvin
 Total                  205.061             58.877            128.851
 Electronic               0.000              0.000              0.000
 Translational            0.889              2.981             41.845
 Rotational               0.889              2.981             32.697
 Vibrational            203.284             52.915             54.310
 Vibration     1          0.593              1.986              6.622
 Vibration     2          0.594              1.983              5.578
 Vibration     3          0.594              1.981              5.222
 Vibration     4          0.596              1.974              4.535
 Vibration     5          0.600              1.963              3.891
 Vibration     6          0.607              1.940              3.244
 Vibration     7          0.616              1.908              2.739
 Vibration     8          0.629              1.867              2.330
 Vibration     9          0.645              1.816              1.990
 Vibration    10          0.649              1.805              1.929
 Vibration    11          0.669              1.743              1.652
 Vibration    12          0.696              1.665              1.390
 Vibration    13          0.716              1.607              1.240
 Vibration    14          0.723              1.587              1.192
 Vibration    15          0.745              1.526              1.064
 Vibration    16          0.770              1.460              0.946
 Vibration    17          0.781              1.432              0.900
 Vibration    18          0.800              1.382              0.826
 Vibration    19          0.816              1.344              0.773
 Vibration    20          0.855              1.251              0.659
 Vibration    21          0.912              1.126              0.531
 Vibration    22          0.942              1.063              0.475

 Optimization completed.
    -- Stationary point found.
 Normal termination of Gaussian 16 at Thu Dec 10 15:39:03 2020.

 ----------------------------------------------------------------------
 # B3LYP/6-311++G(d,p) empiricaldispersion=gd3bj scf=xqc pop=npa geom=c
 heck
 ----------------------------------------------------------------------

 ---------------------------------------
 CID_149191123_JID_5302_Energie_neutraal
 ---------------------------------------
 Structure from the checkpoint file:  "JID_5302.chk"
 Charge =  0 Multiplicity = 1

 SCF Done:  E(RB3LYP) =  -620.982662867     A.U. after   14 cycles
 Normal termination of Gaussian 16 at Thu Dec 10 15:44:13 2020.

 ----------------------------------------------------------------------
 # B3LYP/6-311++G(d,p) empiricaldispersion=gd3bj scf=xqc pop=npa geom=c
 heck
 ----------------------------------------------------------------------

 -------------------------------------
 CID_149191123_JID_5302_Energie_kation
 -------------------------------------
 Structure from the checkpoint file:  "JID_5302.chk"
 Charge =  1 Multiplicity = 2

 SCF Done:  E(UB3LYP) =  -620.694606243     A.U. after   26 cycles
 Normal termination of Gaussian 16 at Thu Dec 10 16:04:10 2020.
 Gaussian 16:  ES64L-G16RevA.03 25-Dec-2016

 ----------------------------------------------------------------------
 # B3LYP/6-311++G(d,p) empiricaldispersion=gd3bj scf=xqc pop=npa geom=c
 heck
 ----------------------------------------------------------------------

 ------------------------------------
 CID_149191123_JID_5302_Energie_anion
 ------------------------------------
 Structure from the checkpoint file:  "JID_5302.chk"
 Charge = -1 Multiplicity = 2

                         Standard orientation:
 ---------------------------------------------------------------------
 Center     Atomic      Atomic             Coordinates (Angstroms)
 Number     Number       Type             X           Y           Z
 ---------------------------------------------------------------------
      1          6           0        2.852502    2.593267   -0.049409
      2          6           0        2.854188    1.282816    0.753974
      3          6           0        2.706074    0.049023   -0.105683
      4          6           0        3.730878   -0.806627   -0.220430
      5          8           0        3.769378   -1.949666   -0.972745
      6          6           0        1.394556   -0.195768   -0.826691
      7          6           0        0.509972   -1.281618   -0.175822
      8          6           0        0.086333   -0.980202    1.266079
      9          6           0       -0.793902    0.276913    1.427365
     10          6           0       -2.059662    0.226291    0.602238
     11          6           0       -3.089293   -0.665916    0.931383
     12          6           0       -4.244082   -0.746158    0.155361
     13          6           0       -4.391119    0.068295   -0.969656
     14          6           0       -3.376007    0.962701   -1.307243
     15          6           0       -2.222012    1.038549   -0.525542
     16          1           0        3.684969    2.609932   -0.761231
     17          1           0        2.947654    3.461207    0.613099
     18          1           0        1.924935    2.713734   -0.621094
     19          1           0        3.787330    1.216089    1.327383
     20          1           0        2.044279    1.322775    1.496313
     21          1           0        4.675946   -0.662498    0.295007
     22          1           0        2.931398   -2.035875   -1.453901
     23          1           0        0.829240    0.739696   -0.891087
     24          1           0        1.577893   -0.481721   -1.874725
     25          1           0       -0.384283   -1.427350   -0.794289
     26          1           0        1.055064   -2.234862   -0.178252
     27          1           0       -0.465495   -1.845819    1.654355
     28          1           0        0.979081   -0.873879    1.894718
     29          1           0       -1.047709    0.385383    2.489796
     30          1           0       -0.221172    1.170863    1.156542
     31          1           0       -2.983566   -1.301444    1.807783
     32          1           0       -5.032256   -1.442051    0.430051
     33          1           0       -5.291213    0.007533   -1.574864
     34          1           0       -3.481301    1.604169   -2.178038
     35          1           0       -1.436372    1.742045   -0.791152
 ---------------------------------------------------------------------

 SCF Done:  E(UB3LYP) =  -620.969258262     A.U. after   33 cycles
 SCF Done:  E(UB3LYP) =  -620.969258262     a.u. after    1 cycles

 The electronic state is 2-A.
 Alpha  occ. eigenvalues --  -19.06071 -10.12539 -10.08577 -10.08148 -10.08011
 Alpha  occ. eigenvalues --  -10.07990 -10.07902 -10.07771 -10.07716 -10.07676
 Alpha  occ. eigenvalues --  -10.07639 -10.07484 -10.07454 -10.07406 -10.06756
 Alpha  occ. eigenvalues --   -0.96706  -0.76522  -0.73153  -0.70228  -0.66648
 Alpha  occ. eigenvalues --   -0.65126  -0.63584  -0.61195  -0.56455  -0.53748
 Alpha  occ. eigenvalues --   -0.51313  -0.50527  -0.48795  -0.46757  -0.41776
 Alpha  occ. eigenvalues --   -0.39841  -0.39117  -0.37756  -0.36704  -0.35626
 Alpha  occ. eigenvalues --   -0.35226  -0.34317  -0.32741  -0.32374  -0.31075
 Alpha  occ. eigenvalues --   -0.30303  -0.29882  -0.28819  -0.28662  -0.27726
 Alpha  occ. eigenvalues --   -0.26945  -0.26497  -0.25374  -0.25153  -0.24270
 Alpha  occ. eigenvalues --   -0.23758  -0.23144  -0.22445  -0.16069  -0.15192
 Alpha  occ. eigenvalues --   -0.12826   0.04169
 Alpha virt. eigenvalues --    0.06021   0.06406   0.06603   0.07495   0.07816
 Alpha virt. eigenvalues --    0.07989   0.08461   0.08720   0.09543   0.09890
 Alpha virt. eigenvalues --    0.10266   0.10425   0.10927   0.11765   0.12307

  Beta  occ. eigenvalues --  -19.06050 -10.12533 -10.08572 -10.08137 -10.08001
  Beta  occ. eigenvalues --  -10.07963 -10.07887 -10.07753 -10.07702 -10.07656
  Beta  occ. eigenvalues --  -10.07624 -10.07485 -10.07445 -10.07393 -10.06726
  Beta  occ. eigenvalues --   -0.96664  -0.76492  -0.73128  -0.70200  -0.66613
  Beta  occ. eigenvalues --   -0.65088  -0.63548  -0.61155  -0.56410  -0.53693
  Beta  occ. eigenvalues --   -0.51267  -0.50485  -0.48755  -0.46715  -0.41716
  Beta  occ. eigenvalues --   -0.39800  -0.39087  -0.37725  -0.36667  -0.35585
  Beta  occ. eigenvalues --   -0.35190  -0.34288  -0.32704  -0.32343  -0.31046
  Beta  occ. eigenvalues --   -0.30278  -0.29849  -0.28785  -0.28631  -0.27693
  Beta  occ. eigenvalues --   -0.26906  -0.26472  -0.25345  -0.25121  -0.24240
  Beta  occ. eigenvalues --   -0.23733  -0.23114  -0.22419  -0.16037  -0.15147
  Beta  occ. eigenvalues --   -0.12812
  Beta virt. eigenvalues --    0.06144   0.06719   0.07021   0.07211   0.07840
  Beta virt. eigenvalues --    0.07977   0.08298   0.08744   0.09180   0.09761
  Beta virt. eigenvalues --    0.10267   0.10507   0.10624   0.11235   0.12124

 Mulliken charges and spin densities:
               1          2
     1  C    0.604496  -1.179705
     2  C   -1.343589   0.756033
     3  C   -0.755884   1.232741
     4  C    1.114872  -1.563706
     5  O   -0.171122  -0.028302
     6  C    0.157342  -0.235112
     7  C    0.379581  -0.750730
     8  C   -0.373747   0.025080
     9  C    1.994406  -2.539546
    10  C   -0.395611   1.494166
    11  C   -1.899813   1.934326
    12  C    0.592460  -0.976541
    13  C    1.356945  -1.640075
    14  C    0.174602  -0.604321
    15  C   -0.601748   0.074183
    16  H    0.056513   0.083776
    17  H   -0.297497   0.428779
    18  H   -0.396732   0.550035
    19  H   -0.196889   0.335911
    20  H    0.235054  -0.092274
    21  H    0.068591   0.101225
    22  H    0.103277   0.151819
    23  H    0.828698  -0.763016
    24  H   -0.527861   0.738473
    25  H    0.229879  -0.088073
    26  H    0.093933   0.038222
    27  H    0.059297   0.094436
    28  H   -0.019611   0.175082
    29  H   -0.082031   0.267912
    30  H   -0.171331   0.376023
    31  H   -0.403920   0.566493
    32  H   -0.496663   0.670355
    33  H   -0.229614   0.381877
    34  H   -0.652979   0.843746
    35  H   -0.033304   0.140709
 Sum of Mulliken charges =  -1.00000   1.00000

 Dipole moment (field-independent basis, Debye):
    X=              3.0387    Y=             -1.5239    Z=              1.5405  Tot=              3.7322
 Quadrupole moment (field-independent basis, Debye-Ang):
   XX=           -184.5108   YY=           -140.3718   ZZ=           -133.5498
   XY=             -2.5206   XZ=              0.3370   YZ=              1.8862

 Summary of Natural Population Analysis:

                                       Natural Population
                Natural  -----------------------------------------------
    Atom  No    Charge         Core      Valence    Rydberg      Total
 -----------------------------------------------------------------------
      C    1   -0.28278      0.99966     2.27809    0.00503     3.28278
      C    2   -0.19602      0.99960     2.18686    0.00955     3.19602
      C    3   -0.06059      0.99948     2.04996    0.01116     3.06059
      C    4    0.08132      0.99933     1.90632    0.01302     2.91868
      O    5   -0.34646      0.99989     3.33938    0.00720     4.34646
      C    6   -0.21313      0.99959     2.20230    0.01125     3.21313
      C    7   -0.18858      0.99962     2.18027    0.00869     3.18858
      C    8   -0.18625      0.99962     2.17876    0.00786     3.18625
      C    9   -0.19955      0.99959     2.19081    0.00914     3.19955
      C   10   -0.01417      0.99951     2.00344    0.01122     3.01417
      C   11   -0.10119      0.99950     2.09173    0.00996     3.10119
      C   12   -0.09905      0.99956     2.08905    0.01044     3.09905
      C   13   -0.10490      0.99956     2.09548    0.00987     3.10490
      C   14   -0.09741      0.99956     2.08721    0.01064     3.09741
      C   15   -0.10145      0.99951     2.09212    0.00983     3.10145
      H   16    0.09657      0.00000     0.40226    0.00117     0.40343
      H   17    0.09817      0.00000     0.40071    0.00112     0.40183
      H   18    0.09758      0.00000     0.40096    0.00146     0.40242
      H   19    0.09649      0.00000     0.40234    0.00117     0.40351
      H   20    0.09664      0.00000     0.40154    0.00182     0.40336
      H   21    0.08329      0.00000     0.41560    0.00111     0.41671
      H   22    0.23566      0.00000     0.26117    0.00317     0.26434
      H   23    0.10546      0.00000     0.39250    0.00204     0.39454
      H   24    0.10002      0.00000     0.39844    0.00154     0.39998
      H   25    0.10231      0.00000     0.39644    0.00125     0.39769
      H   26    0.09351      0.00000     0.40515    0.00134     0.40649
      H   27    0.09794      0.00000     0.40089    0.00116     0.40206
      H   28    0.09860      0.00000     0.40027    0.00113     0.40140
      H   29    0.10434      0.00000     0.39444    0.00122     0.39566
      H   30    0.09913      0.00000     0.39875    0.00213     0.40087
      H   31    0.10044      0.00000     0.39822    0.00134     0.39956
      H   32    0.10081      0.00000     0.39794    0.00125     0.39919
      H   33    0.10101      0.00000     0.39775    0.00124     0.39899
      H   34    0.10184      0.00000     0.39682    0.00134     0.39816
      H   35    0.10040      0.00000     0.39748    0.00212     0.39960
 =======================================================================
   * Total *    0.00000     14.99358    40.83145    0.17497    56.00000

 Normal termination of Gaussian 16 at Thu Dec 10 16:24:10 2020.
