 Gaussian 16, Revision A.03,

 -----------------------------------------------------------
 # opt freq B3LYP/6-31G(d) empiricaldispersion=gd3bj scf=xqc
 -----------------------------------------------------------

 ------------------------------
 CID_70060376_JID_5377_neutraal
 ------------------------------
 Symbolic Z-matrix:
 Charge =  0 Multiplicity = 1

 SCF Done:  E(RB3LYP) =  -629.363339394     A.U. after   15 cycles
 SCF Done:  E(RB3LYP) =  -629.369699766     A.U. after   12 cycles
 SCF Done:  E(RB3LYP) =  -629.370544622     A.U. after   11 cycles
 SCF Done:  E(RB3LYP) =  -629.370927996     A.U. after   11 cycles
 SCF Done:  E(RB3LYP) =  -629.371119040     A.U. after   11 cycles
 SCF Done:  E(RB3LYP) =  -629.371228823     A.U. after   11 cycles
 SCF Done:  E(RB3LYP) =  -629.371383854     A.U. after   11 cycles
 SCF Done:  E(RB3LYP) =  -629.371429519     A.U. after   11 cycles
 SCF Done:  E(RB3LYP) =  -629.371539179     A.U. after   11 cycles
 SCF Done:  E(RB3LYP) =  -629.372332735     A.U. after   13 cycles
 SCF Done:  E(RB3LYP) =  -629.377793092     A.U. after   10 cycles
 SCF Done:  E(RB3LYP) =  -629.377809229     A.U. after   10 cycles
 SCF Done:  E(RB3LYP) =  -629.377815899     A.U. after   10 cycles
 SCF Done:  E(RB3LYP) =  -629.377817964     A.U. after    9 cycles
 SCF Done:  E(RB3LYP) =  -629.377818235     A.U. after    7 cycles
 Optimization completed.
    -- Stationary point found.
 Normal termination of Gaussian 16 at Thu Dec 10 15:52:27 2020.

 --------------------------------------------------------------------
 #N Geom=AllCheck Guess=TCheck SCRF=Check GenChk RB3LYP/6-31G(d) Freq
 --------------------------------------------------------------------

 Structure from the checkpoint file:  "JID_5377.chk"
 ------------------------------
 CID_70060376_JID_5377_neutraal
 ------------------------------
 Charge =  0 Multiplicity = 1

 SCF Done:  E(RB3LYP) =  -629.377818235     A.U. after    1 cycles

  Exact polarizability: 236.708   7.284 149.186  -1.697  -2.305  66.289
 Approx polarizability: 337.742  17.151 262.962  -3.045  -6.500 104.666

                      1                      2                      3
                      A                      A                      A
 Frequencies --     36.6550                95.8690               143.4125
 Red. masses --      4.5507                 3.4944                 3.8246
 Frc consts  --      0.0036                 0.0189                 0.0463
 IR Inten    --      0.1695                 0.4938                 3.4871

                      4                      5                      6
                      A                      A                      A
 Frequencies --    170.7160               225.3724               255.7831
 Red. masses --      2.8794                 2.9850                 3.3838
 Frc consts  --      0.0494                 0.0893                 0.1304
 IR Inten    --      1.9011                 8.0185                 6.0196

                      7                      8                      9
                      A                      A                      A
 Frequencies --    263.8525               304.1077               327.1421
 Red. masses --      3.4259                 3.3685                 5.0408
 Frc consts  --      0.1405                 0.1835                 0.3178
 IR Inten    --      2.1526                 1.0559                 2.0951

                     10                     11                     12
                      A                      A                      A
 Frequencies --    384.9241               441.1032               468.2887
 Red. masses --      3.5679                 2.6625                 2.8685
 Frc consts  --      0.3115                 0.3052                 0.3706
 IR Inten    --     14.7545                 0.5507                 8.6023

                     13                     14                     15
                      A                      A                      A
 Frequencies --    490.0107               530.8178               533.3220
 Red. masses --      3.9389                 4.4913                 1.6526
 Frc consts  --      0.5572                 0.7456                 0.2769
 IR Inten    --      1.3487                26.0629                23.8851

                     16                     17                     18
                      A                      A                      A
 Frequencies --    568.9530               573.1545               606.5950
 Red. masses --      1.9068                 3.1795                 3.7807
 Frc consts  --      0.3637                 0.6154                 0.8196
 IR Inten    --     75.6976                14.0113                 4.2098

                     19                     20                     21
                      A                      A                      A
 Frequencies --    612.7889               641.9873               691.7424
 Red. masses --      2.3300                 3.4728                 3.0413
 Frc consts  --      0.5155                 0.8433                 0.8574
 IR Inten    --     63.6166                22.3130                 7.0308

                     22                     23                     24
                      A                      A                      A
 Frequencies --    702.1816               722.0139               740.3180
 Red. masses --      1.5959                 4.0579                 3.8144
 Frc consts  --      0.4636                 1.2463                 1.2317
 IR Inten    --     46.3286                 1.5828                 3.5419

                     25                     26                     27
                      A                      A                      A
 Frequencies --    748.1803               755.4043               813.8112
 Red. masses --      1.9016                 1.7124                 2.7840
 Frc consts  --      0.6272                 0.5757                 1.0863
 IR Inten    --     40.2855                65.8244                38.0575

                     28                     29                     30
                      A                      A                      A
 Frequencies --    841.1202               852.9445               900.5695
 Red. masses --      1.5994                 2.7709                 1.3531
 Frc consts  --      0.6667                 1.1877                 0.6466
 IR Inten    --      0.5730                16.1188                 3.8285

                     31                     32                     33
                      A                      A                      A
 Frequencies --    911.0911               941.9396               943.4747
 Red. masses --      3.7939                 1.7930                 1.2118
 Frc consts  --      1.8555                 0.9373                 0.6355
 IR Inten    --     16.8416                 0.5250                 0.1171

                     34                     35                     36
                      A                      A                      A
 Frequencies --    952.8596               969.7396              1012.3782
 Red. masses --      1.6818                 2.3443                 3.0293
 Frc consts  --      0.8997                 1.2989                 1.8292
 IR Inten    --      1.6304                 6.8500                 8.0662

                     37                     38                     39
                      A                      A                      A
 Frequencies --   1049.6547              1080.7533              1093.9238
 Red. masses --      2.6763                 2.9466                 2.1458
 Frc consts  --      1.7373                 2.0278                 1.5129
 IR Inten    --     19.2043                12.2167                12.3557

                     40                     41                     42
                      A                      A                      A
 Frequencies --   1158.5393              1178.1470              1195.3980
 Red. masses --      1.6919                 1.2790                 1.1130
 Frc consts  --      1.3380                 1.0460                 0.9371
 IR Inten    --     16.0642                 1.7408                 2.1919

                     43                     44                     45
                      A                      A                      A
 Frequencies --   1214.1665              1231.0730              1277.0103
 Red. masses --      2.0859                 2.3553                 1.9577
 Frc consts  --      1.8117                 2.1031                 1.8810
 IR Inten    --     13.2132                 1.0453                 3.9620

                     46                     47                     48
                      A                      A                      A
 Frequencies --   1282.9164              1290.3326              1297.4307
 Red. masses --      2.6258                 1.6106                 1.3733
 Frc consts  --      2.5463                 1.5799                 1.3621
 IR Inten    --      3.3047                10.9700                 1.3118

                     49                     50                     51
                      A                      A                      A
 Frequencies --   1316.4665              1332.3845              1372.6454
 Red. masses --      1.5301                 1.7464                 1.8936
 Frc consts  --      1.5624                 1.8266                 2.1021
 IR Inten    --      0.7706                 3.0503                37.5366

                     52                     53                     54
                      A                      A                      A
 Frequencies --   1393.5866              1408.0528              1440.7917
 Red. masses --      2.2636                 1.4873                 1.9445
 Frc consts  --      2.5901                 1.7374                 2.3782
 IR Inten    --    138.6431                30.3840                 3.9377

                     55                     56                     57
                      A                      A                      A
 Frequencies --   1467.8371              1485.3669              1507.5861
 Red. masses --      1.6783                 1.4189                 1.1174
 Frc consts  --      2.1305                 1.8445                 1.4963
 IR Inten    --      5.0382                 9.8942                 2.9196

                     58                     59                     60
                      A                      A                      A
 Frequencies --   1517.5088              1533.0478              1562.1118
 Red. masses --      1.1085                 1.8195                 2.3952
 Frc consts  --      1.5040                 2.5195                 3.4437
 IR Inten    --     11.3505               180.5699                51.9463

                     61                     62                     63
                      A                      A                      A
 Frequencies --   1583.6905              1634.7676              1651.6814
 Red. masses --      2.2834                 5.6362                 4.7851
 Frc consts  --      3.3743                 8.8746                 7.6912
 IR Inten    --    463.5334               248.3656                12.2123

                     64                     65                     66
                      A                      A                      A
 Frequencies --   1665.4927              1715.7481              2992.6688
 Red. masses --      5.3187                 6.1735                 1.0722
 Frc consts  --      8.6925                10.7075                 5.6575
 IR Inten    --     15.0738                82.3022                41.0217

                     67                     68                     69
                      A                      A                      A
 Frequencies --   2995.1265              3101.2741              3109.3345
 Red. masses --      1.0727                 1.0919                 1.0910
 Frc consts  --      5.6696                 6.1875                 6.2148
 IR Inten    --     91.9728                24.8458                34.5946

                     70                     71                     72
                      A                      A                      A
 Frequencies --   3161.5020              3163.5517              3166.2490
 Red. masses --      1.0877                 1.0874                 1.0888
 Frc consts  --      6.4053                 6.4121                 6.4310
 IR Inten    --     21.1522                30.2579                 2.1678

                     73                     74                     75
                      A                      A                      A
 Frequencies --   3197.0920              3206.3878              3213.8714
 Red. masses --      1.0895                 1.0953                 1.0972
 Frc consts  --      6.5611                 6.6347                 6.6769
 IR Inten    --     16.3875                23.3855                28.9878

                     76                     77                     78
                      A                      A                      A
 Frequencies --   3454.3215              3535.3911              3594.7265
 Red. masses --      1.0739                 1.0751                 1.0750
 Frc consts  --      7.5497                 7.9170                 8.1843
 IR Inten    --      6.1399                 0.8100                20.3213

 - Thermochemistry -
 -------------------
 Temperature   298.150 Kelvin.  Pressure   1.00000 Atm.
 Atom     1 has atomic number  6 and mass  12.00000

 Molecular mass:   199.11095 amu.
 Principal axes and moments of inertia in atomic units:
                           1         2         3
     Eigenvalues --  1122.280964634.522715629.21570
           X            1.00000  -0.00210  -0.00116
           Y            0.00211   0.99999   0.00421
           Z            0.00115  -0.00421   0.99999
 This molecule is an asymmetric top.
 Rotational symmetry number  1.
 Warning -- assumption of classical behavior for rotation
           may cause significant error
 Rotational temperatures (Kelvin)      0.07718     0.01869     0.01539
 Rotational constants (GHZ):           1.60810     0.38941     0.32060
 Zero-point vibrational energy     616102.1 (Joules/Mol)
                                  147.25194 (Kcal/Mol)
 Warning -- explicit consideration of  19 degrees of freedom as
           vibrations may cause significant error
 Vibrational temperatures:     52.74   137.93   206.34   245.62   324.26
          (Kelvin)            368.01   379.62   437.54   470.68   553.82
                              634.65   673.76   705.02   763.73   767.33
                              818.60   824.64   872.75   881.67   923.68
                              995.26  1010.28  1038.82  1065.15  1076.46
                             1086.86  1170.89  1210.18  1227.20  1295.72
                             1310.86  1355.24  1357.45  1370.95  1395.24
                             1456.59  1510.22  1554.96  1573.91  1666.88
                             1695.09  1719.91  1746.91  1771.24  1837.33
                             1845.83  1856.50  1866.71  1894.10  1917.00
                             1974.93  2005.06  2025.87  2072.98  2111.89
                             2137.11  2169.08  2183.36  2205.71  2247.53
                             2278.58  2352.07  2376.40  2396.27  2468.58
                             4305.78  4309.32  4462.04  4473.64  4548.70
                             4551.65  4555.53  4599.90  4613.28  4624.04
                             4970.00  5086.64  5172.01

 Zero-point correction=                           0.234661 (Hartree/Particle)
 Thermal correction to Energy=                    0.246360
 Thermal correction to Enthalpy=                  0.247304
 Thermal correction to Gibbs Free Energy=         0.196918
 Sum of electronic and zero-point Energies=           -629.143157
 Sum of electronic and thermal Energies=              -629.131458
 Sum of electronic and thermal Enthalpies=            -629.130514
 Sum of electronic and thermal Free Energies=         -629.180900

                     E (Thermal)             CV                S
                      KCal/Mol        Cal/Mol-Kelvin    Cal/Mol-Kelvin
 Total                  154.593             48.711            106.047
 Electronic               0.000              0.000              0.000
 Translational            0.889              2.981             41.771
 Rotational               0.889              2.981             31.749
 Vibrational            152.816             42.749             32.527
 Vibration     1          0.594              1.982              5.432
 Vibration     2          0.603              1.952              3.537
 Vibration     3          0.616              1.910              2.758
 Vibration     4          0.626              1.879              2.428
 Vibration     5          0.650              1.802              1.916
 Vibration     6          0.666              1.753              1.690
 Vibration     7          0.670              1.739              1.636
 Vibration     8          0.695              1.666              1.394
 Vibration     9          0.711              1.621              1.274
 Vibration    10          0.754              1.502              1.020
 Vibration    11          0.801              1.381              0.823
 Vibration    12          0.825              1.320              0.742
 Vibration    13          0.846              1.272              0.684
 Vibration    14          0.886              1.182              0.585
 Vibration    15          0.888              1.176              0.580
 Vibration    16          0.925              1.098              0.506
 Vibration    17          0.929              1.089              0.498
 Vibration    18          0.965              1.018              0.438
 Vibration    19          0.972              1.005              0.428

                           ! Non-Optimized Parameters !
 Normal termination of Gaussian 16 at Thu Dec 10 16:01:08 2020.

 ----------------------------------------------------------------------
 # B3LYP/6-311++G(d,p) empiricaldispersion=gd3bj scf=xqc pop=npa geom=c
 heck
 ----------------------------------------------------------------------

 --------------------------------------
 CID_70060376_JID_5377_Energie_neutraal
 --------------------------------------
 Structure from the checkpoint file:  "JID_5377.chk"
 Charge =  0 Multiplicity = 1

 SCF Done:  E(RB3LYP) =  -629.551276071     A.U. after   15 cycles
 Normal termination of Gaussian 16 at Thu Dec 10 16:04:27 2020.

 ----------------------------------------------------------------------
 # B3LYP/6-311++G(d,p) empiricaldispersion=gd3bj scf=xqc pop=npa geom=c
 heck
 ----------------------------------------------------------------------

 ------------------------------------
 CID_70060376_JID_5377_Energie_kation
 ------------------------------------
 Structure from the checkpoint file:  "JID_5377.chk"
 Charge =  1 Multiplicity = 2

 SCF Done:  E(UB3LYP) =  -629.314183180     A.U. after   23 cycles
 Normal termination of Gaussian 16 at Thu Dec 10 16:10:59 2020.
 Gaussian 16:  ES64L-G16RevA.03 25-Dec-2016

 ----------------------------------------------------------------------
 # B3LYP/6-311++G(d,p) empiricaldispersion=gd3bj scf=xqc pop=npa geom=c
 heck
 ----------------------------------------------------------------------

 -----------------------------------
 CID_70060376_JID_5377_Energie_anion
 -----------------------------------
 Structure from the checkpoint file:  "JID_5377.chk"
 Charge = -1 Multiplicity = 2

                         Standard orientation:
 ---------------------------------------------------------------------
 Center     Atomic      Atomic             Coordinates (Angstroms)
 Number     Number       Type             X           Y           Z
 ---------------------------------------------------------------------
      1          6           0        3.606887   -1.111233    0.120207
      2          6           0        3.888477    0.310943   -0.293247
      3          6           0        2.876190    1.187480   -0.156199
      4          6           0        1.547422    0.751340    0.242906
      5          6           0        1.244714   -0.566821    0.075552
      6          7           0        2.234846   -1.526576   -0.221537
      7          7           0       -0.009380   -1.142202    0.117264
      8          6           0       -1.310437   -0.619847    0.041723
      9          6           0       -2.353664   -1.555214    0.145006
     10          6           0       -3.690135   -1.189824    0.044136
     11          6           0       -4.015133    0.151885   -0.152493
     12          6           0       -2.994873    1.093094   -0.227608
     13          6           0       -1.636017    0.746530   -0.146584
     14          7           0       -0.666999    1.750170   -0.286831
     15          6           0        0.490194    1.736049    0.637962
     16          1           0        4.296333   -1.828061   -0.334496
     17          1           0        3.706068   -1.216602    1.212509
     18          1           0        4.869878    0.599049   -0.656877
     19          1           0        3.013354    2.245502   -0.374536
     20          1           0        2.148982   -1.848393   -1.186531
     21          1           0        0.031566   -2.142218    0.263350
     22          1           0       -2.092299   -2.600961    0.295441
     23          1           0       -4.464497   -1.946904    0.119091
     24          1           0       -5.050671    0.468121   -0.232497
     25          1           0       -3.241852    2.144530   -0.361624
     26          1           0       -1.114361    2.661254   -0.286605
     27          1           0        0.148799    1.545746    1.668146
     28          1           0        0.917675    2.742901    0.624195
 ---------------------------------------------------------------------

 SCF Done:  E(UB3LYP) =  -629.537568397     A.U. after   33 cycles
 SCF Done:  E(UB3LYP) =  -629.537568397     a.u. after    1 cycles

 The electronic state is 2-A.
 Alpha  occ. eigenvalues --  -14.25051 -14.22352 -14.21831 -10.14229 -10.12389
 Alpha  occ. eigenvalues --  -10.11499 -10.10443 -10.10303 -10.07717 -10.07357
 Alpha  occ. eigenvalues --  -10.07288 -10.07235 -10.07062 -10.05971 -10.05968
 Alpha  occ. eigenvalues --   -0.88404  -0.83435  -0.81094  -0.74652  -0.70194
 Alpha  occ. eigenvalues --   -0.67140  -0.64961  -0.62217  -0.58825  -0.55525
 Alpha  occ. eigenvalues --   -0.52506  -0.51043  -0.48456  -0.44889  -0.43265
 Alpha  occ. eigenvalues --   -0.41975  -0.41406  -0.38610  -0.37326  -0.36135
 Alpha  occ. eigenvalues --   -0.35119  -0.33801  -0.33225  -0.32975  -0.31835
 Alpha  occ. eigenvalues --   -0.30839  -0.28574  -0.27652  -0.26773  -0.26144
 Alpha  occ. eigenvalues --   -0.25893  -0.24865  -0.20204  -0.19813  -0.16677
 Alpha  occ. eigenvalues --   -0.14004  -0.11171  -0.08030   0.04242
 Alpha virt. eigenvalues --    0.05903   0.06377   0.06998   0.07666   0.08007
 Alpha virt. eigenvalues --    0.08370   0.09021   0.09463   0.09587   0.10490
 Alpha virt. eigenvalues --    0.10955   0.11191   0.12211   0.12643   0.13554

  Beta  occ. eigenvalues --  -14.25036 -14.22327 -14.21809 -10.14230 -10.12385
  Beta  occ. eigenvalues --  -10.11497 -10.10424 -10.10282 -10.07703 -10.07340
  Beta  occ. eigenvalues --  -10.07279 -10.07227 -10.07050 -10.05966 -10.05962
  Beta  occ. eigenvalues --   -0.88379  -0.83402  -0.81061  -0.74624  -0.70165
  Beta  occ. eigenvalues --   -0.67115  -0.64930  -0.62181  -0.58786  -0.55477
  Beta  occ. eigenvalues --   -0.52463  -0.51011  -0.48429  -0.44836  -0.43219
  Beta  occ. eigenvalues --   -0.41928  -0.41355  -0.38568  -0.37298  -0.36098
  Beta  occ. eigenvalues --   -0.35085  -0.33756  -0.33180  -0.32942  -0.31797
  Beta  occ. eigenvalues --   -0.30814  -0.28540  -0.27621  -0.26748  -0.26108
  Beta  occ. eigenvalues --   -0.25853  -0.24843  -0.20181  -0.19792  -0.16648
  Beta  occ. eigenvalues --   -0.13984  -0.11150  -0.08011
  Beta virt. eigenvalues --    0.06405   0.06915   0.06964   0.07362   0.08219
  Beta virt. eigenvalues --    0.08449   0.08574   0.09128   0.10060   0.10116
  Beta virt. eigenvalues --    0.10678   0.11021   0.11636   0.12723   0.12943

 Mulliken charges and spin densities:
               1          2
     1  C    1.481094  -2.145642
     2  C   -0.662524   0.675530
     3  C    1.471050  -1.851696
     4  C   -0.662669   1.994158
     5  C   -1.665502   0.815578
     6  N   -0.216565   0.232713
     7  N   -0.218858   0.065246
     8  C    1.561345  -1.247773
     9  C   -1.549395   1.350213
    10  C    0.313421  -0.727410
    11  C    1.121666  -1.491579
    12  C   -1.615469   1.477967
    13  C    0.565124  -0.761199
    14  N   -0.236699   0.266505
    15  C    1.977736  -2.693390
    16  H   -0.466863   0.624904
    17  H    0.089767   0.064735
    18  H   -0.306309   0.463391
    19  H    0.049489   0.092580
    20  H   -0.224065   0.484795
    21  H    0.036826   0.289658
    22  H   -0.513190   0.637187
    23  H   -0.161624   0.314187
    24  H    0.016618   0.126676
    25  H   -0.714997   0.855507
    26  H    0.038685   0.220481
    27  H    0.096041   0.076261
    28  H   -0.604130   0.790417
 Sum of Mulliken charges =  -1.00000   1.00000

 Dipole moment (field-independent basis, Debye):
    X=             -0.7096    Y=             -0.2245    Z=              1.2190  Tot=              1.4283
 Quadrupole moment (field-independent basis, Debye-Ang):
   XX=           -160.9982   YY=           -142.1016   ZZ=           -117.1715
   XY=              8.3878   XZ=              4.1312   YZ=             -2.2030

 Summary of Natural Population Analysis:

                                       Natural Population
                Natural  -----------------------------------------------
    Atom  No    Charge         Core      Valence    Rydberg      Total
 -----------------------------------------------------------------------
      C    1   -0.10143      0.99962     2.08920    0.01261     3.10143
      C    2   -0.12433      0.99954     2.11451    0.01028     3.12433
      C    3   -0.09024      0.99951     2.08114    0.00959     3.09024
      C    4   -0.10155      0.99944     2.09152    0.01059     3.10155
      C    5    0.20623      0.99942     1.78043    0.01393     2.79377
      N    6   -0.32725      0.99971     2.81460    0.01294     3.82725
      N    7   -0.29216      0.99963     2.78193    0.01059     3.79216
      C    8    0.06826      0.99944     1.92133    0.01098     2.93174
      C    9   -0.11051      0.99954     2.10069    0.01027     3.11051
      C   10   -0.11286      0.99956     2.10335    0.00995     3.11286
      C   11   -0.11068      0.99956     2.10114    0.00998     3.11068
      C   12   -0.11213      0.99954     2.10246    0.01014     3.11213
      C   13    0.07329      0.99946     1.91605    0.01120     2.92671
      N   14   -0.31508      0.99969     2.80410    0.01130     3.81508
      C   15   -0.09164      0.99958     2.08004    0.01202     3.09164
      H   16    0.10127      0.00000     0.39665    0.00208     0.39873
      H   17    0.09032      0.00000     0.40807    0.00161     0.40968
      H   18    0.09739      0.00000     0.40152    0.00109     0.40261
      H   19    0.09800      0.00000     0.40066    0.00135     0.40200
      H   20    0.18420      0.00000     0.31185    0.00396     0.31580
      H   21    0.19721      0.00000     0.29904    0.00374     0.30279
      H   22    0.09873      0.00000     0.39978    0.00149     0.40127
      H   23    0.09989      0.00000     0.39917    0.00094     0.40011
      H   24    0.09957      0.00000     0.39952    0.00091     0.40043
      H   25    0.10000      0.00000     0.39843    0.00156     0.40000
      H   26    0.18265      0.00000     0.31285    0.00450     0.31735
      H   27    0.09151      0.00000     0.40694    0.00155     0.40849
      H   28    0.10135      0.00000     0.39695    0.00171     0.39865
 =======================================================================
   * Total *    0.00000     14.99325    37.81392    0.19283    53.00000

 Normal termination of Gaussian 16 at Thu Dec 10 16:20:23 2020.
