 Gaussian 16, Revision A.03,

 -----------------------------------------------------------
 # opt freq B3LYP/6-31G(d) empiricaldispersion=gd3bj scf=xqc
 -----------------------------------------------------------

 -------------------------------
 CID_152500189_JID_5281_neutraal
 -------------------------------
 Symbolic Z-matrix:
 Charge =  0 Multiplicity = 1

 SCF Done:  E(RB3LYP) =  -757.939862758     A.U. after   17 cycles
 SCF Done:  E(RB3LYP) =  -757.948342582     A.U. after   15 cycles
 SCF Done:  E(RB3LYP) =  -757.949689114     A.U. after   13 cycles
 SCF Done:  E(RB3LYP) =  -757.949967837     A.U. after   14 cycles
 SCF Done:  E(RB3LYP) =  -757.950549091     A.U. after   12 cycles
 SCF Done:  E(RB3LYP) =  -757.950784944     A.U. after   12 cycles
 SCF Done:  E(RB3LYP) =  -757.950881724     A.U. after   13 cycles
 SCF Done:  E(RB3LYP) =  -757.950957732     A.U. after   11 cycles
 SCF Done:  E(RB3LYP) =  -757.950975093     A.U. after   10 cycles
 SCF Done:  E(RB3LYP) =  -757.950979978     A.U. after   10 cycles
 SCF Done:  E(RB3LYP) =  -757.950980885     A.U. after    9 cycles
 SCF Done:  E(RB3LYP) =  -757.950981255     A.U. after    8 cycles
 SCF Done:  E(RB3LYP) =  -757.950981295     A.U. after    8 cycles
 SCF Done:  E(RB3LYP) =  -757.950981270     A.U. after    8 cycles
 SCF Done:  E(RB3LYP) =  -757.950981244     A.U. after    7 cycles
 Optimization completed.
    -- Stationary point found.
 Normal termination of Gaussian 16 at Thu Dec 10 15:21:01 2020.

 --------------------------------------------------------------------
 #N Geom=AllCheck Guess=TCheck SCRF=Check GenChk RB3LYP/6-31G(d) Freq
 --------------------------------------------------------------------

 Structure from the checkpoint file:  "JID_5281.chk"
 -------------------------------
 CID_152500189_JID_5281_neutraal
 -------------------------------
 Charge =  0 Multiplicity = 1

 SCF Done:  E(RB3LYP) =  -757.950981244     A.U. after    1 cycles

  Exact polarizability: 133.073 -12.970 119.893 -17.042   2.012  99.451
 Approx polarizability: 183.042 -38.130 192.882 -31.971  11.876 154.436

                      1                      2                      3
                      A                      A                      A
 Frequencies --     19.4688                23.4783                48.2670
 Red. masses --      7.2969                 4.0306                 6.6538
 Frc consts  --      0.0016                 0.0013                 0.0091
 IR Inten    --      0.7575                 1.2448                 1.2565

                      4                      5                      6
                      A                      A                      A
 Frequencies --     73.3651                89.4063               113.0678
 Red. masses --      7.3151                 4.7514                 7.5635
 Frc consts  --      0.0232                 0.0224                 0.0570
 IR Inten    --      0.2000                 0.1029                 0.9980

                      7                      8                      9
                      A                      A                      A
 Frequencies --    152.6745               168.9595               194.5560
 Red. masses --      5.5829                 3.1032                 3.6660
 Frc consts  --      0.0767                 0.0522                 0.0818
 IR Inten    --      1.8725                 2.5654                 4.4753

                     10                     11                     12
                      A                      A                      A
 Frequencies --    230.6198               281.9671               309.2460
 Red. masses --      3.8124                 2.7456                 2.4554
 Frc consts  --      0.1195                 0.1286                 0.1383
 IR Inten    --      7.9749                 0.4096                 0.9377

                     13                     14                     15
                      A                      A                      A
 Frequencies --    343.7570               408.3986               425.3831
 Red. masses --      2.3214                 2.3920                 3.4049
 Frc consts  --      0.1616                 0.2351                 0.3630
 IR Inten    --      1.8172                 2.6401                 4.4576

                     16                     17                     18
                      A                      A                      A
 Frequencies --    494.4597               498.0410               511.9542
 Red. masses --     11.5345                 2.3218                 3.6388
 Frc consts  --      1.6615                 0.3393                 0.5619
 IR Inten    --      2.0494                13.5227                 0.6350

                     19                     20                     21
                      A                      A                      A
 Frequencies --    536.0654               576.7012               578.8349
 Red. masses --      2.5033                 2.8241                13.5589
 Frc consts  --      0.4238                 0.5534                 2.6766
 IR Inten    --     13.9158                18.2539                 6.2041

                     22                     23                     24
                      A                      A                      A
 Frequencies --    632.3977               670.7488               694.7985
 Red. masses --      2.7157                 2.2846                 2.5854
 Frc consts  --      0.6399                 0.6056                 0.7353
 IR Inten    --     47.6425                73.9553                 9.0354

                     25                     26                     27
                      A                      A                      A
 Frequencies --    746.3058               825.9856               836.7133
 Red. masses --      6.0759                 2.3211                 2.0887
 Frc consts  --      1.9939                 0.9330                 0.8615
 IR Inten    --     87.5267                 3.9013                 3.1726

                     28                     29                     30
                      A                      A                      A
 Frequencies --    863.1961               874.4435               894.4541
 Red. masses --      3.5291                 2.9791                 2.3976
 Frc consts  --      1.5493                 1.3421                 1.1302
 IR Inten    --      2.5955                19.5322                16.4577

                     31                     32                     33
                      A                      A                      A
 Frequencies --    901.0456               935.5836               951.7332
 Red. masses --      2.4589                 1.7705                 2.0379
 Frc consts  --      1.1762                 0.9131                 1.0876
 IR Inten    --     29.1389                17.4692                12.6321

                     34                     35                     36
                      A                      A                      A
 Frequencies --   1000.3162              1032.3406              1068.3524
 Red. masses --      2.3676                 2.1921                 2.1817
 Frc consts  --      1.3958                 1.3764                 1.4671
 IR Inten    --     78.6457                59.0678                38.3017

                     37                     38                     39
                      A                      A                      A
 Frequencies --   1078.5351              1102.7509              1130.7955
 Red. masses --      1.8314                 2.0222                 4.4540
 Frc consts  --      1.2552                 1.4489                 3.3556
 IR Inten    --      5.0709                99.9895               203.9401

                     40                     41                     42
                      A                      A                      A
 Frequencies --   1150.8818              1156.2085              1180.9269
 Red. masses --      2.5567                 2.6803                 3.0278
 Frc consts  --      1.9952                 2.1111                 2.4878
 IR Inten    --     45.3572                19.0016                31.4660

                     43                     44                     45
                      A                      A                      A
 Frequencies --   1222.5885              1245.2769              1259.9056
 Red. masses --      1.4238                 1.7245                 1.2835
 Frc consts  --      1.2539                 1.5756                 1.2004
 IR Inten    --     18.3436                56.2536                18.8628

                     46                     47                     48
                      A                      A                      A
 Frequencies --   1294.0190              1297.5637              1321.6386
 Red. masses --      1.3204                 1.3202                 3.1223
 Frc consts  --      1.3027                 1.3096                 3.2133
 IR Inten    --      9.7404                22.3565               134.3677

                     49                     50                     51
                      A                      A                      A
 Frequencies --   1324.7864              1358.0899              1367.7496
 Red. masses --      1.4212                 1.9521                 1.3386
 Frc consts  --      1.4696                 2.1213                 1.4754
 IR Inten    --     75.1223               368.2711                51.9338

                     52                     53                     54
                      A                      A                      A
 Frequencies --   1385.1091              1391.7021              1407.3998
 Red. masses --      1.3000                 1.4303                 1.3976
 Frc consts  --      1.4695                 1.6322                 1.6311
 IR Inten    --     27.9786                 4.1345                 5.4678

                     55                     56                     57
                      A                      A                      A
 Frequencies --   1415.6971              1421.9167              1433.6766
 Red. masses --      1.4365                 1.4701                 1.3377
 Frc consts  --      1.6962                 1.7512                 1.6200
 IR Inten    --     20.0008                76.4947                13.5246

                     58                     59                     60
                      A                      A                      A
 Frequencies --   1451.3100              1496.1944              1505.8230
 Red. masses --      1.3980                 1.3572                 1.0973
 Frc consts  --      1.7350                 1.7901                 1.4659
 IR Inten    --      4.9100                11.9132                 1.2930

                     61                     62                     63
                      A                      A                      A
 Frequencies --   1511.7144              1513.9739              1523.6599
 Red. masses --      1.1819                 1.0867                 1.0988
 Frc consts  --      1.5913                 1.4675                 1.5030
 IR Inten    --     43.9880                 7.3186                 4.9475

                     64                     65                     66
                      A                      A                      A
 Frequencies --   1538.1739              1550.2800              1811.2737
 Red. masses --      1.0968                 1.0896                 9.4802
 Frc consts  --      1.5289                 1.5428                18.3246
 IR Inten    --      2.1083                 7.7485               346.9264

                     67                     68                     69
                      A                      A                      A
 Frequencies --   2307.7780              3000.9852              3031.2418
 Red. masses --     13.9854                 1.0614                 1.0843
 Frc consts  --     43.8847                 5.6322                 5.8702
 IR Inten    --    541.2303                43.4317                60.8601

                     70                     71                     72
                      A                      A                      A
 Frequencies --   3041.5753              3046.0302              3047.0566
 Red. masses --      1.0663                 1.0636                 1.0928
 Frc consts  --      5.8119                 5.8143                 5.9782
 IR Inten    --     24.0670                34.6057                33.8897

                     73                     74                     75
                      A                      A                      A
 Frequencies --   3058.6082              3062.2526              3087.3201
 Red. masses --      1.0704                 1.0640                 1.0988
 Frc consts  --      5.9001                 5.8788                 6.1707
 IR Inten    --     36.6374                13.3502                32.4861

                     76                     77                     78
                      A                      A                      A
 Frequencies --   3092.3524              3097.0597              3105.5663
 Red. masses --      1.0989                 1.0664                 1.1038
 Frc consts  --      6.1913                 6.0265                 6.2724
 IR Inten    --     35.2361                44.4148                45.7606

                     79                     80                     81
                      A                      A                      A
 Frequencies --   3120.8926              3156.0806              3616.8815
 Red. masses --      1.1003                 1.1032                 1.0756
 Frc consts  --      6.3143                 6.4744                 8.2904
 IR Inten    --     52.2436                11.3349                42.9046

 - Thermochemistry -
 -------------------
 Temperature   298.150 Kelvin.  Pressure   1.00000 Atm.
 Atom     1 has atomic number  6 and mass  12.00000

 Molecular mass:   214.10659 amu.
 Principal axes and moments of inertia in atomic units:
                           1         2         3
     Eigenvalues --  1730.349195349.084425936.70649
           X            0.99966   0.02587  -0.00118
           Y           -0.02588   0.99962  -0.00916
           Z            0.00094   0.00919   0.99996
 This molecule is an asymmetric top.
 Rotational symmetry number  1.
 Warning -- assumption of classical behavior for rotation
           may cause significant error
 Rotational temperatures (Kelvin)      0.05006     0.01619     0.01459
 Rotational constants (GHZ):           1.04299     0.33739     0.30400
 Zero-point vibrational energy     632396.2 (Joules/Mol)
                                  151.14632 (Kcal/Mol)
 Warning -- explicit consideration of  21 degrees of freedom as
           vibrations may cause significant error
 Vibrational temperatures:     28.01    33.78    69.45   105.56   128.64
          (Kelvin)            162.68   219.66   243.09   279.92   331.81
                              405.69   444.94   494.59   587.59   612.03
                              711.42   716.57   736.59   771.28   829.74
                              832.81   909.88   965.06   999.66  1073.77
                             1188.41  1203.84  1241.95  1258.13  1286.92
                             1296.40  1346.10  1369.33  1439.23  1485.31
                             1537.12  1551.77  1586.61  1626.96  1655.86
                             1663.53  1699.09  1759.03  1791.68  1812.72
                             1861.80  1866.90  1901.54  1906.07  1953.99
                             1967.89  1992.86  2002.35  2024.93  2036.87
                             2045.82  2062.74  2088.11  2152.69  2166.54
                             2175.02  2178.27  2192.21  2213.09  2230.51
                             2606.02  3320.38  4317.75  4361.28  4376.15
                             4382.56  4384.03  4400.66  4405.90  4441.97
                             4449.21  4455.98  4468.22  4490.27  4540.90
                             5203.89

 Zero-point correction=                           0.240867 (Hartree/Particle)
 Thermal correction to Energy=                    0.255290
 Thermal correction to Enthalpy=                  0.256235
 Thermal correction to Gibbs Free Energy=         0.196708
 Sum of electronic and zero-point Energies=           -757.710114
 Sum of electronic and thermal Energies=              -757.695691
 Sum of electronic and thermal Enthalpies=            -757.694747
 Sum of electronic and thermal Free Energies=         -757.754273

                     E (Thermal)             CV                S
                      KCal/Mol        Cal/Mol-Kelvin    Cal/Mol-Kelvin
 Total                  160.197             52.823            125.284
 Electronic               0.000              0.000              0.000
 Translational            0.889              2.981             41.987
 Rotational               0.889              2.981             32.374
 Vibrational            158.420             46.862             50.922
 Vibration     1          0.593              1.986              6.688
 Vibration     2          0.593              1.985              6.316
 Vibration     3          0.595              1.978              4.887
 Vibration     4          0.599              1.967              4.061
 Vibration     5          0.602              1.957              3.673
 Vibration     6          0.607              1.939              3.216
 Vibration     7          0.619              1.900              2.639
 Vibration     8          0.625              1.881              2.447
 Vibration     9          0.635              1.847              2.184
 Vibration    10          0.652              1.794              1.874
 Vibration    11          0.681              1.707              1.522
 Vibration    12          0.699              1.656              1.366
 Vibration    13          0.723              1.588              1.195
 Vibration    14          0.773              1.452              0.932
 Vibration    15          0.787              1.415              0.874
 Vibration    16          0.850              1.262              0.672
 Vibration    17          0.854              1.254              0.663
 Vibration    18          0.867              1.224              0.629
 Vibration    19          0.891              1.170              0.574
 Vibration    20          0.933              1.082              0.492
 Vibration    21          0.935              1.077              0.488

 Optimization completed.
    -- Stationary point found.
 Normal termination of Gaussian 16 at Thu Dec 10 15:29:34 2020.

 ----------------------------------------------------------------------
 # B3LYP/6-311++G(d,p) empiricaldispersion=gd3bj scf=xqc pop=npa geom=c
 heck
 ----------------------------------------------------------------------

 ---------------------------------------
 CID_152500189_JID_5281_Energie_neutraal
 ---------------------------------------
 Structure from the checkpoint file:  "JID_5281.chk"
 Charge =  0 Multiplicity = 1

 SCF Done:  E(RB3LYP) =  -758.172974787     A.U. after   17 cycles
 Normal termination of Gaussian 16 at Thu Dec 10 15:33:14 2020.

 ----------------------------------------------------------------------
 # B3LYP/6-311++G(d,p) empiricaldispersion=gd3bj scf=xqc pop=npa geom=c
 heck
 ----------------------------------------------------------------------

 -------------------------------------
 CID_152500189_JID_5281_Energie_kation
 -------------------------------------
 Structure from the checkpoint file:  "JID_5281.chk"
 Charge =  1 Multiplicity = 2

 SCF Done:  E(UB3LYP) =  -757.841160634     A.U. after   31 cycles
 Normal termination of Gaussian 16 at Thu Dec 10 15:42:31 2020.
 Gaussian 16:  ES64L-G16RevA.03 25-Dec-2016

 ----------------------------------------------------------------------
 # B3LYP/6-311++G(d,p) empiricaldispersion=gd3bj scf=xqc pop=npa geom=c
 heck
 ----------------------------------------------------------------------

 ------------------------------------
 CID_152500189_JID_5281_Energie_anion
 ------------------------------------
 Structure from the checkpoint file:  "JID_5281.chk"
 Charge = -1 Multiplicity = 2

                         Standard orientation:
 ---------------------------------------------------------------------
 Center     Atomic      Atomic             Coordinates (Angstroms)
 Number     Number       Type             X           Y           Z
 ---------------------------------------------------------------------
      1          6           0       -1.512786   -1.723242   -0.236913
      2          6           0       -2.849861   -1.748395    0.515191
      3          6           0       -3.264966   -0.331872    0.904349
      4          8           0       -3.309094    0.541436   -0.234091
      5          6           0       -2.095227    0.640925   -0.919196
      6          6           0       -1.599143   -0.728489   -1.400984
      7          8           0       -1.153912    1.259063   -0.039514
      8          6           0       -0.016841    1.826026   -0.659637
      9          6           0        0.983863    2.127340    0.451579
     10          7           0        1.270313    0.938065    1.246911
     11          6           0        2.050617   -0.101967    0.841149
     12          8           0        2.015312   -1.227224    1.305445
     13          7           0        2.959731    0.310182   -0.199899
     14          7           0        3.714175   -0.597825   -0.588873
     15          7           0        4.443713   -1.351810   -1.017451
     16          1           0       -0.703683   -1.431014    0.442909
     17          1           0       -1.260583   -2.721391   -0.611615
     18          1           0       -3.626791   -2.181068   -0.128852
     19          1           0       -2.785287   -2.372069    1.415258
     20          1           0       -4.276389   -0.306692    1.318155
     21          1           0       -2.576762    0.080494    1.653838
     22          1           0       -2.290598    1.312997   -1.766484
     23          1           0       -0.632798   -0.627941   -1.907983
     24          1           0       -2.315283   -1.087647   -2.150840
     25          1           0        0.443332    1.129540   -1.374240
     26          1           0       -0.281303    2.746742   -1.204511
     27          1           0        1.914706    2.514120    0.033214
     28          1           0        0.572133    2.880480    1.129631
     29          1           0        0.511395    0.625013    1.838748
 ---------------------------------------------------------------------

 SCF Done:  E(UB3LYP) =  -758.168121920     A.U. after   33 cycles
 SCF Done:  E(UB3LYP) =  -758.168121920     a.u. after    2 cycles

 The electronic state is 2-A.
 Alpha  occ. eigenvalues --  -19.03337 -19.03056 -18.98647 -14.33130 -14.24723
 Alpha  occ. eigenvalues --  -14.23570 -14.23395 -10.19195 -10.17222 -10.12174
 Alpha  occ. eigenvalues --  -10.12100 -10.10973 -10.07509 -10.07113 -10.07044
 Alpha  occ. eigenvalues --   -1.01421  -0.97794  -0.94533  -0.91895  -0.84770
 Alpha  occ. eigenvalues --   -0.82653  -0.70547  -0.67838  -0.64513  -0.57705
 Alpha  occ. eigenvalues --   -0.55327  -0.54945  -0.52710  -0.46572  -0.43399
 Alpha  occ. eigenvalues --   -0.42037  -0.41219  -0.40204  -0.38729  -0.37937
 Alpha  occ. eigenvalues --   -0.37553  -0.36492  -0.35241  -0.33638  -0.33072
 Alpha  occ. eigenvalues --   -0.32595  -0.31933  -0.30975  -0.29970  -0.29001
 Alpha  occ. eigenvalues --   -0.28738  -0.27719  -0.25504  -0.23888  -0.22989
 Alpha  occ. eigenvalues --   -0.22434  -0.21995  -0.17659  -0.16731  -0.16346
 Alpha  occ. eigenvalues --   -0.15786  -0.14817   0.04603
 Alpha virt. eigenvalues --    0.06168   0.07013   0.07466   0.08635   0.09218
 Alpha virt. eigenvalues --    0.09404   0.09555   0.10234   0.11091   0.11804
 Alpha virt. eigenvalues --    0.12004   0.12489   0.13836   0.14487   0.15281

  Beta  occ. eigenvalues --  -19.03336 -19.03051 -18.98652 -14.32689 -14.24264
  Beta  occ. eigenvalues --  -14.23622 -14.23397 -10.19113 -10.17209 -10.12166
  Beta  occ. eigenvalues --  -10.12072 -10.10951 -10.07495 -10.07098 -10.07040
  Beta  occ. eigenvalues --   -1.00703  -0.97783  -0.94431  -0.91887  -0.84505
  Beta  occ. eigenvalues --   -0.82580  -0.70528  -0.67805  -0.64465  -0.57426
  Beta  occ. eigenvalues --   -0.55271  -0.54907  -0.52634  -0.46504  -0.43118
  Beta  occ. eigenvalues --   -0.41966  -0.41190  -0.40025  -0.38499  -0.37839
  Beta  occ. eigenvalues --   -0.36608  -0.36067  -0.35162  -0.33529  -0.32886
  Beta  occ. eigenvalues --   -0.31961  -0.31400  -0.30897  -0.29939  -0.28932
  Beta  occ. eigenvalues --   -0.28716  -0.27690  -0.25470  -0.23860  -0.22957
  Beta  occ. eigenvalues --   -0.22115  -0.21541  -0.17644  -0.16706  -0.16271
  Beta  occ. eigenvalues --   -0.15577  -0.14716
  Beta virt. eigenvalues --    0.06572   0.07643   0.07849   0.08893   0.09480
  Beta virt. eigenvalues --    0.09653   0.09909   0.10276   0.11127   0.11327
  Beta virt. eigenvalues --    0.11920   0.12243   0.12791   0.14065   0.14484

 Mulliken charges and spin densities:
               1          2
     1  C   -0.323530   0.169580
     2  C    0.035910  -0.381543
     3  C    0.005211  -0.315754
     4  O   -0.095739   0.027895
     5  C   -0.237593  -0.096389
     6  C    0.366449  -0.584115
     7  O   -0.124797   0.018075
     8  C    0.189607  -0.220640
     9  C    0.368203  -0.933677
    10  N   -0.202152   0.105132
    11  C    0.024220  -0.102235
    12  O   -0.337328  -0.000591
    13  N   -0.722243   0.524441
    14  N    0.765722  -0.129903
    15  N   -0.262134   0.039917
    16  H    0.266031  -0.111141
    17  H    0.058856   0.093054
    18  H   -0.080912   0.236673
    19  H   -0.025021   0.160387
    20  H   -0.078428   0.258470
    21  H    0.166090  -0.017776
    22  H   -0.384314   0.603337
    23  H   -0.006503   0.145352
    24  H   -0.154185   0.325089
    25  H    0.016906   0.091086
    26  H   -0.354461   0.506878
    27  H   -0.124875   0.355896
    28  H   -0.028877   0.200586
    29  H    0.279888   0.031918
 Sum of Mulliken charges =  -1.00000   1.00000

 Dipole moment (field-independent basis, Debye):
    X=             -2.6508    Y=              0.4396    Z=              2.9962  Tot=              4.0246
 Quadrupole moment (field-independent basis, Debye-Ang):
   XX=           -163.0789   YY=           -126.5257   ZZ=           -115.2782
   XY=              9.3271   XZ=             -1.1792   YZ=              5.5101

 Summary of Natural Population Analysis:

                                       Natural Population
                Natural  -----------------------------------------------
    Atom  No    Charge         Core      Valence    Rydberg      Total
 -----------------------------------------------------------------------
      C    1   -0.19687      0.99962     2.18794    0.00931     3.19687
      C    2   -0.20471      0.99963     2.19732    0.00776     3.20471
      C    3   -0.01256      0.99956     2.00045    0.01255     3.01256
      O    4   -0.29900      0.99988     3.28977    0.00936     4.29900
      C    5    0.22844      0.99956     1.75208    0.01992     2.77156
      C    6   -0.21372      0.99960     2.20558    0.00854     3.21372
      O    7   -0.31898      0.99987     3.30926    0.00985     4.31898
      C    8   -0.01683      0.99957     2.00563    0.01163     3.01683
      C    9   -0.09681      0.99961     2.08501    0.01218     3.09681
      N   10   -0.32231      0.99966     2.81303    0.00962     3.82231
      C   11    0.39740      0.99970     1.57675    0.02616     2.60260
      O   12   -0.33108      0.99987     3.32583    0.00538     4.33108
      N   13   -0.24698      0.99968     2.73497    0.01233     3.74698
      N   14    0.16798      0.99971     2.31650    0.01581     3.33202
      N   15    0.03132      0.99981     2.45674    0.01213     3.46868
      H   16    0.10537      0.00000     0.39277    0.00186     0.39463
      H   17    0.10020      0.00000     0.39900    0.00081     0.39980
      H   18    0.09567      0.00000     0.40307    0.00126     0.40433
      H   19    0.09982      0.00000     0.39931    0.00087     0.40018
      H   20    0.08980      0.00000     0.40911    0.00109     0.41020
      H   21    0.08333      0.00000     0.41510    0.00157     0.41667
      H   22    0.08090      0.00000     0.41707    0.00203     0.41910
      H   23    0.10441      0.00000     0.39444    0.00115     0.39559
      H   24    0.10095      0.00000     0.39768    0.00136     0.39905
      H   25    0.08675      0.00000     0.41124    0.00201     0.41325
      H   26    0.08423      0.00000     0.41356    0.00221     0.41577
      H   27    0.11282      0.00000     0.38569    0.00149     0.38718
      H   28    0.09552      0.00000     0.40340    0.00108     0.40448
      H   29    0.19493      0.00000     0.30289    0.00217     0.30507
 =======================================================================
   * Total *   -0.00000     14.99534    41.80118    0.20348    57.00000

 Normal termination of Gaussian 16 at Thu Dec 10 16:04:47 2020.
