 Gaussian 16, Revision A.03,

 -----------------------------------------------------------
 # opt freq B3LYP/6-31G(d) empiricaldispersion=gd3bj scf=xqc
 -----------------------------------------------------------

 -------------------------------
 CID_150869482_JID_4897_neutraal
 -------------------------------
 Symbolic Z-matrix:
 Charge =  0 Multiplicity = 1

 SCF Done:  E(RB3LYP) =  -971.108478952     A.U. after   14 cycles
 SCF Done:  E(RB3LYP) =  -971.118598262     A.U. after   13 cycles
 SCF Done:  E(RB3LYP) =  -971.125421925     A.U. after   13 cycles
 SCF Done:  E(RB3LYP) =  -971.131132293     A.U. after   15 cycles
 SCF Done:  E(RB3LYP) =  -971.132967480     A.U. after   14 cycles
 SCF Done:  E(RB3LYP) =  -971.132296355     A.U. after   15 cycles
 SCF Done:  E(RB3LYP) =  -971.133793055     A.U. after   12 cycles
 SCF Done:  E(RB3LYP) =  -971.134504833     A.U. after   12 cycles
 SCF Done:  E(RB3LYP) =  -971.134684652     A.U. after   11 cycles
 SCF Done:  E(RB3LYP) =  -971.134865151     A.U. after   12 cycles
 SCF Done:  E(RB3LYP) =  -971.136245379     A.U. after   10 cycles
 SCF Done:  E(RB3LYP) =  -971.136245568     A.U. after    9 cycles
 SCF Done:  E(RB3LYP) =  -971.136245661     A.U. after    8 cycles
 SCF Done:  E(RB3LYP) =  -971.136245701     A.U. after    8 cycles
 SCF Done:  E(RB3LYP) =  -971.136245712     A.U. after    7 cycles
 Optimization completed.
    -- Stationary point found.
 Normal termination of Gaussian 16 at Thu Dec 10 10:59:56 2020.

 --------------------------------------------------------------------
 #N Geom=AllCheck Guess=TCheck SCRF=Check GenChk RB3LYP/6-31G(d) Freq
 --------------------------------------------------------------------

 Structure from the checkpoint file:  "JID_4897.chk"
 -------------------------------
 CID_150869482_JID_4897_neutraal
 -------------------------------
 Charge =  0 Multiplicity = 1

 SCF Done:  E(RB3LYP) =  -971.136245712     A.U. after    1 cycles

  Exact polarizability: 120.353 -21.707 142.706  -8.652  -0.056 117.717
 Approx polarizability: 168.650 -39.818 229.933 -21.925   8.134 226.687

                      1                      2                      3
                      A                      A                      A
 Frequencies --     21.0764                30.3889                52.6373
 Red. masses --      4.4410                 3.8572                 4.6567
 Frc consts  --      0.0012                 0.0021                 0.0076
 IR Inten    --      1.2904                 0.8102                 0.1443

                      4                      5                      6
                      A                      A                      A
 Frequencies --    101.6184               125.5486               181.1344
 Red. masses --      4.3400                 4.0816                 3.8082
 Frc consts  --      0.0264                 0.0379                 0.0736
 IR Inten    --      1.0079                 1.8806                 1.3509

                      7                      8                      9
                      A                      A                      A
 Frequencies --    211.3728               219.9265               268.4531
 Red. masses --      2.4508                 1.3218                 4.8554
 Frc consts  --      0.0645                 0.0377                 0.2062
 IR Inten    --      4.6319                 1.2306                 1.9288

                     10                     11                     12
                      A                      A                      A
 Frequencies --    298.6835               347.0188               402.4735
 Red. masses --      3.0338                 6.5112                 3.3231
 Frc consts  --      0.1595                 0.4620                 0.3172
 IR Inten    --      0.7922                 1.9869                 1.4477

                     13                     14                     15
                      A                      A                      A
 Frequencies --    408.7386               420.4123               475.0595
 Red. masses --      3.8108                 5.3395                 3.5065
 Frc consts  --      0.3751                 0.5560                 0.4663
 IR Inten    --      0.2299                 0.1392                14.7849

                     16                     17                     18
                      A                      A                      A
 Frequencies --    496.3804               501.5642               632.4730
 Red. masses --      3.6958                 4.9830                 6.4094
 Frc consts  --      0.5365                 0.7386                 1.5106
 IR Inten    --      7.0642                 6.6489                 0.0339

                     19                     20                     21
                      A                      A                      A
 Frequencies --    643.1254               673.9291               704.3712
 Red. masses --      3.4515                 5.2512                 2.3787
 Frc consts  --      0.8411                 1.4052                 0.6953
 IR Inten    --     12.3386                 1.7337                15.4714

                     22                     23                     24
                      A                      A                      A
 Frequencies --    710.5004               728.1670               742.5297
 Red. masses --      5.7039                 4.3772                 4.9365
 Frc consts  --      1.6965                 1.3675                 1.6036
 IR Inten    --      6.5891                14.3388                 5.7084

                     25                     26                     27
                      A                      A                      A
 Frequencies --    749.2705               758.6406               852.8888
 Red. masses --      1.4929                 1.5316                 1.2518
 Frc consts  --      0.4938                 0.5194                 0.5365
 IR Inten    --     64.9589                27.0164                 0.7030

                     28                     29                     30
                      A                      A                      A
 Frequencies --    905.8456               920.1506               922.9689
 Red. masses --      1.8391                 1.3930                 4.6452
 Frc consts  --      0.8891                 0.6949                 2.3314
 IR Inten    --      9.1368                 2.5037                 1.8946

                     31                     32                     33
                      A                      A                      A
 Frequencies --    967.7482               980.1884               995.7621
 Red. masses --      1.3554                 3.6649                 1.2547
 Frc consts  --      0.7479                 2.0746                 0.7330
 IR Inten    --      0.4253                20.9071                 0.1454

                     34                     35                     36
                      A                      A                      A
 Frequencies --   1020.3429              1029.2260              1054.7703
 Red. masses --      6.3237                 3.2429                 2.9481
 Frc consts  --      3.8790                 2.0240                 1.9325
 IR Inten    --      2.9142                 3.5613                 3.6217

                     37                     38                     39
                      A                      A                      A
 Frequencies --   1064.5871              1110.7745              1116.9030
 Red. masses --      2.8310                 1.6055                 2.7474
 Frc consts  --      1.8904                 1.1671                 2.0193
 IR Inten    --     24.6209                 3.8144                 4.3376

                     40                     41                     42
                      A                      A                      A
 Frequencies --   1161.4971              1178.0836              1194.6899
 Red. masses --      1.4413                 1.3281                 1.0963
 Frc consts  --      1.1456                 1.0860                 0.9220
 IR Inten    --     13.8209                 6.7782                 0.0169

                     43                     44                     45
                      A                      A                      A
 Frequencies --   1215.4399              1217.9009              1234.9280
 Red. masses --      1.2260                 1.5631                 2.0938
 Frc consts  --      1.0671                 1.3661                 1.8813
 IR Inten    --     10.9694                33.6379                12.6404

                     46                     47                     48
                      A                      A                      A
 Frequencies --   1247.8541              1303.2016              1334.0517
 Red. masses --      1.3934                 1.7253                 2.4440
 Frc consts  --      1.2784                 1.7264                 2.5627
 IR Inten    --      4.3643                49.7382                 2.3060

                     49                     50                     51
                      A                      A                      A
 Frequencies --   1347.1001              1363.3555              1464.5816
 Red. masses --      2.0429                 1.8862                 1.1707
 Frc consts  --      2.1843                 2.0656                 1.4795
 IR Inten    --     12.8345                 1.7836                 1.3451

                     52                     53                     54
                      A                      A                      A
 Frequencies --   1482.5342              1488.5176              1493.2584
 Red. masses --      1.1255                 1.8809                 1.2136
 Frc consts  --      1.4574                 2.4554                 1.5944
 IR Inten    --      4.9121                 3.1897                14.1284

                     55                     56                     57
                      A                      A                      A
 Frequencies --   1510.2369              1526.2423              1530.9783
 Red. masses --      1.0488                 1.0470                 2.0499
 Frc consts  --      1.4093                 1.4370                 2.8309
 IR Inten    --     18.7715                 4.9174                17.4893

                     58                     59                     60
                      A                      A                      A
 Frequencies --   1637.9376              1647.9900              1714.9061
 Red. masses --      5.4941                 5.4215                 7.7004
 Frc consts  --      8.6844                 8.6752                13.3427
 IR Inten    --      1.5156                 9.8830                 7.8726

                     61                     62                     63
                      A                      A                      A
 Frequencies --   3046.6762              3074.8568              3118.9591
 Red. masses --      1.0382                 1.0599                 1.1038
 Frc consts  --      5.6780                 5.9043                 6.3263
 IR Inten    --     20.7468                12.0801                 2.3430

                     64                     65                     66
                      A                      A                      A
 Frequencies --   3127.8130              3160.3985              3186.3235
 Red. masses --      1.0971                 1.1052                 1.0850
 Frc consts  --      6.3236                 6.5041                 6.4902
 IR Inten    --     19.7163                18.8928                 1.0872

                     67                     68                     69
                      A                      A                      A
 Frequencies --   3193.9817              3204.4445              3210.5606
 Red. masses --      1.0880                 1.0915                 1.0941
 Frc consts  --      6.5396                 6.6035                 6.6446
 IR Inten    --      4.9586                13.2702                22.3068

                     70                     71                     72
                      A                      A                      A
 Frequencies --   3216.7090              3302.7008              3386.0879
 Red. masses --      1.0976                 1.0975                 1.0765
 Frc consts  --      6.6917                 7.0534                 7.2720
 IR Inten    --     10.6030                 1.8877                 5.5779

 - Thermochemistry -
 -------------------
 Temperature   298.150 Kelvin.  Pressure   1.00000 Atm.
 Atom     1 has atomic number  6 and mass  12.00000

 Molecular mass:   208.06703 amu.
 Principal axes and moments of inertia in atomic units:
                           1         2         3
     Eigenvalues --  2123.470773299.607494359.23234
           X            0.99939  -0.03475   0.00205
           Y            0.03472   0.99927   0.01603
           Z           -0.00261  -0.01595   0.99987
 This molecule is an asymmetric top.
 Rotational symmetry number  1.
 Warning -- assumption of classical behavior for rotation
           may cause significant error
 Rotational temperatures (Kelvin)      0.04079     0.02625     0.01987
 Rotational constants (GHZ):           0.84990     0.54696     0.41400
 Zero-point vibrational energy     546528.6 (Joules/Mol)
                                  130.62347 (Kcal/Mol)
 Warning -- explicit consideration of  17 degrees of freedom as
           vibrations may cause significant error
 Vibrational temperatures:     30.32    43.72    75.73   146.21   180.64
          (Kelvin)            260.61   304.12   316.43   386.24   429.74
                              499.28   579.07   588.08   604.88   683.50
                              714.18   721.64   909.99   925.31   969.63
                             1013.43  1022.25  1047.67  1068.33  1078.03
                             1091.51  1227.12  1303.31  1323.89  1327.95
                             1392.37  1410.27  1432.68  1468.05  1480.83
                             1517.58  1531.70  1598.16  1606.97  1671.14
                             1695.00  1718.89  1748.75  1752.29  1776.79
                             1795.38  1875.02  1919.40  1938.18  1961.56
                             2107.21  2133.04  2141.64  2148.47  2172.89
                             2195.92  2202.74  2356.63  2371.09  2467.37
                             4383.49  4424.03  4487.49  4500.23  4547.11
                             4584.41  4595.43  4610.48  4619.28  4628.13
                             4751.85  4871.83

 Zero-point correction=                           0.208162 (Hartree/Particle)
 Thermal correction to Energy=                    0.221230
 Thermal correction to Enthalpy=                  0.222174
 Thermal correction to Gibbs Free Energy=         0.166567
 Sum of electronic and zero-point Energies=           -970.928084
 Sum of electronic and thermal Energies=              -970.915016
 Sum of electronic and thermal Enthalpies=            -970.914072
 Sum of electronic and thermal Free Energies=         -970.969679

                     E (Thermal)             CV                S
                      KCal/Mol        Cal/Mol-Kelvin    Cal/Mol-Kelvin
 Total                  138.824             49.477            117.035
 Electronic               0.000              0.000              0.000
 Translational            0.889              2.981             41.902
 Rotational               0.889              2.981             31.791
 Vibrational            137.046             43.515             43.342
 Vibration     1          0.593              1.985              6.530
 Vibration     2          0.594              1.984              5.804
 Vibration     3          0.596              1.977              4.716
 Vibration     4          0.604              1.948              3.423
 Vibration     5          0.610              1.928              3.013
 Vibration     6          0.630              1.865              2.317
 Vibration     7          0.643              1.824              2.032
 Vibration     8          0.647              1.811              1.960
 Vibration     9          0.673              1.731              1.606
 Vibration    10          0.692              1.676              1.424
 Vibration    11          0.725              1.581              1.180
 Vibration    12          0.768              1.465              0.954
 Vibration    13          0.773              1.451              0.931
 Vibration    14          0.783              1.426              0.891
 Vibration    15          0.832              1.305              0.724
 Vibration    16          0.852              1.258              0.667
 Vibration    17          0.857              1.247              0.654

 Optimization completed.
    -- Stationary point found.
 Normal termination of Gaussian 16 at Thu Dec 10 11:08:10 2020.

 ----------------------------------------------------------------------
 # B3LYP/6-311++G(d,p) empiricaldispersion=gd3bj scf=xqc pop=npa geom=c
 heck
 ----------------------------------------------------------------------

 ---------------------------------------
 CID_150869482_JID_4897_Energie_neutraal
 ---------------------------------------
 Structure from the checkpoint file:  "JID_4897.chk"
 Charge =  0 Multiplicity = 1

 SCF Done:  E(RB3LYP) =  -971.320993278     A.U. after   16 cycles
 Normal termination of Gaussian 16 at Thu Dec 10 11:12:08 2020.

 ----------------------------------------------------------------------
 # B3LYP/6-311++G(d,p) empiricaldispersion=gd3bj scf=xqc pop=npa geom=c
 heck
 ----------------------------------------------------------------------

 -------------------------------------
 CID_150869482_JID_4897_Energie_kation
 -------------------------------------
 Structure from the checkpoint file:  "JID_4897.chk"
 Charge =  1 Multiplicity = 2

 SCF Done:  E(UB3LYP) =  -971.033965137     A.U. after   25 cycles
 Normal termination of Gaussian 16 at Thu Dec 10 11:20:11 2020.
 Gaussian 16:  ES64L-G16RevA.03 25-Dec-2016

 ----------------------------------------------------------------------
 # B3LYP/6-311++G(d,p) empiricaldispersion=gd3bj scf=xqc pop=npa geom=c
 heck
 ----------------------------------------------------------------------

 ------------------------------------
 CID_150869482_JID_4897_Energie_anion
 ------------------------------------
 Structure from the checkpoint file:  "JID_4897.chk"
 Charge = -1 Multiplicity = 2

                         Standard orientation:
 ---------------------------------------------------------------------
 Center     Atomic      Atomic             Coordinates (Angstroms)
 Number     Number       Type             X           Y           Z
 ---------------------------------------------------------------------
      1          6           0       -1.171033   -2.330659   -0.443583
      2          7           0       -2.193923   -1.310522   -0.744444
      3          6           0       -1.590275   -0.032736   -1.043883
      4          6           0       -1.635243    0.730460    0.054809
      5          8           0       -2.346639    0.141357    1.074370
      6          7           0       -2.986456   -1.059941    0.392989
      7          6           0       -0.991805    2.026757    0.410873
      8         16           0        0.627598    2.310107   -0.426145
      9          6           0        1.454004    0.765270   -0.058321
     10          6           0        2.054300    0.059960   -1.106846
     11          6           0        2.708966   -1.146102   -0.854877
     12          6           0        2.749514   -1.666297    0.438867
     13          6           0        2.148121   -0.963752    1.485448
     14          6           0        1.514251    0.253800    1.243418
     15          1           0       -0.589149   -2.501028   -1.353432
     16          1           0       -1.676200   -3.256372   -0.159657
     17          1           0       -0.489259   -2.011710    0.355312
     18          1           0       -1.051237    0.133344   -1.962745
     19          1           0       -3.818546   -0.587252    0.023378
     20          1           0       -1.608627    2.886631    0.127590
     21          1           0       -0.871360    2.064483    1.497249
     22          1           0        1.994363    0.451621   -2.117710
     23          1           0        3.172438   -1.686823   -1.675309
     24          1           0        3.246514   -2.612397    0.632001
     25          1           0        2.179308   -1.359526    2.496621
     26          1           0        1.061154    0.799490    2.064813
 ---------------------------------------------------------------------

 SCF Done:  E(UB3LYP) =  -971.306724027     A.U. after   33 cycles
 SCF Done:  E(UB3LYP) =  -971.306725806     a.u. after    3 cycles

 The electronic state is 2-A.
 Alpha  occ. eigenvalues --  -88.74134 -19.07069 -14.29379 -14.25634 -10.13311
 Alpha  occ. eigenvalues --  -10.11479 -10.08858 -10.08584 -10.08242 -10.06390
 Alpha  occ. eigenvalues --  -10.06190 -10.06152 -10.05626 -10.05274  -7.82702
 Alpha  occ. eigenvalues --   -5.79111  -5.78726  -5.78077  -1.00595  -0.86058
 Alpha  occ. eigenvalues --   -0.75240  -0.72889  -0.68831  -0.64241  -0.63514
 Alpha  occ. eigenvalues --   -0.62421  -0.56262  -0.52496  -0.49497  -0.48745
 Alpha  occ. eigenvalues --   -0.46545  -0.43339  -0.40694  -0.39777  -0.36346
 Alpha  occ. eigenvalues --   -0.35859  -0.34357  -0.34020  -0.32587  -0.31530
 Alpha  occ. eigenvalues --   -0.31057  -0.30628  -0.29633  -0.28283  -0.27039
 Alpha  occ. eigenvalues --   -0.26886  -0.24710  -0.23540  -0.21770  -0.19291
 Alpha  occ. eigenvalues --   -0.18713  -0.16156  -0.14557  -0.11632  -0.11153
 Alpha  occ. eigenvalues --    0.05135
 Alpha virt. eigenvalues --    0.06995   0.07467   0.08266   0.08332   0.09027
 Alpha virt. eigenvalues --    0.09638   0.09902   0.10143   0.10886   0.11619
 Alpha virt. eigenvalues --    0.11863   0.12580   0.13236   0.13527   0.13977

  Beta  occ. eigenvalues --  -88.74124 -19.07060 -14.29359 -14.25626 -10.13303
  Beta  occ. eigenvalues --  -10.11404 -10.08850 -10.08468 -10.08223 -10.06416
  Beta  occ. eigenvalues --  -10.06185 -10.06064 -10.05565 -10.05131  -7.82691
  Beta  occ. eigenvalues --   -5.79077  -5.78725  -5.78071  -1.00566  -0.86037
  Beta  occ. eigenvalues --   -0.75067  -0.72812  -0.68702  -0.64108  -0.63369
  Beta  occ. eigenvalues --   -0.62308  -0.56116  -0.52451  -0.49401  -0.48632
  Beta  occ. eigenvalues --   -0.46399  -0.43298  -0.40627  -0.39682  -0.36275
  Beta  occ. eigenvalues --   -0.35819  -0.34229  -0.33903  -0.32542  -0.31486
  Beta  occ. eigenvalues --   -0.30992  -0.30473  -0.29600  -0.28227  -0.26882
  Beta  occ. eigenvalues --   -0.26698  -0.24438  -0.23441  -0.21619  -0.19256
  Beta  occ. eigenvalues --   -0.18666  -0.15768  -0.14208  -0.11292  -0.11100
  Beta virt. eigenvalues --    0.07052   0.07873   0.07986   0.08595   0.09264
  Beta virt. eigenvalues --    0.09468   0.10149   0.10219   0.10570   0.11159
  Beta virt. eigenvalues --    0.11805   0.12274   0.12825   0.13621   0.13721

 Mulliken charges and spin densities:
               1          2
     1  C    0.013557  -0.345950
     2  N    0.062837   0.088030
     3  C   -0.501750   0.032140
     4  C    0.600522  -0.463707
     5  O   -0.048127   0.006407
     6  N   -0.177526  -0.021797
     7  C   -0.585807  -0.110358
     8  S    0.066726  -0.320338
     9  C    1.629606  -0.593812
    10  C   -1.377096   1.039776
    11  C    0.718347  -1.059992
    12  C    1.302185  -1.465829
    13  C   -0.929337   0.561915
    14  C   -0.315408   0.001469
    15  H   -0.169700   0.306910
    16  H   -0.071770   0.240588
    17  H    0.299310  -0.102240
    18  H   -0.392112   0.565898
    19  H    0.174889   0.102465
    20  H    0.206404   0.006435
    21  H    0.201831  -0.002731
    22  H   -0.300778   0.486297
    23  H   -0.853655   1.034108
    24  H   -0.513279   0.662708
    25  H   -0.238460   0.402139
    26  H    0.198590  -0.050534
 Sum of Mulliken charges =  -1.00000   1.00000

 Dipole moment (field-independent basis, Debye):
    X=             -5.7048    Y=              5.7163    Z=              3.2939  Tot=              8.7219
 Quadrupole moment (field-independent basis, Debye-Ang):
   XX=           -142.6650   YY=           -131.1264   ZZ=           -126.2298
   XY=              7.4998   XZ=              4.9751   YZ=             -2.3221

 Summary of Natural Population Analysis:

                                       Natural Population
                Natural  -----------------------------------------------
    Atom  No    Charge         Core      Valence    Rydberg      Total
 -----------------------------------------------------------------------
      C    1   -0.18225      0.99963     2.17364    0.00898     3.18225
      N    2   -0.17344      0.99974     2.65831    0.01539     3.67344
      C    3   -0.06471      0.99941     2.05154    0.01376     3.06471
      C    4    0.13414      0.99942     1.85082    0.01562     2.86586
      O    5   -0.22471      0.99988     3.21650    0.00833     4.22471
      N    6   -0.08180      0.99977     2.56975    0.01228     3.58180
      C    7   -0.26021      0.99952     2.24990    0.01079     3.26021
      S    8    0.11174      4.99956     2.86922    0.01948     7.88826
      C    9   -0.07901      0.99940     2.06536    0.01425     3.07901
      C   10   -0.10643      0.99948     2.09417    0.01278     3.10643
      C   11   -0.09019      0.99955     2.07931    0.01133     3.09019
      C   12   -0.08103      0.99956     2.07020    0.01128     3.08103
      C   13   -0.10753      0.99956     2.09741    0.01056     3.10753
      C   14   -0.09528      0.99948     2.08544    0.01036     3.09528
      H   15    0.10264      0.00000     0.39556    0.00180     0.39736
      H   16    0.09561      0.00000     0.40310    0.00129     0.40439
      H   17    0.09677      0.00000     0.40149    0.00174     0.40323
      H   18    0.11627      0.00000     0.38213    0.00160     0.38373
      H   19    0.16442      0.00000     0.33343    0.00215     0.33558
      H   20    0.11186      0.00000     0.38725    0.00089     0.38814
      H   21    0.10964      0.00000     0.38911    0.00125     0.39036
      H   22    0.10432      0.00000     0.39403    0.00166     0.39568
      H   23    0.10333      0.00000     0.39386    0.00282     0.39667
      H   24    0.10033      0.00000     0.39778    0.00189     0.39967
      H   25    0.09885      0.00000     0.40023    0.00092     0.40115
      H   26    0.09665      0.00000     0.40201    0.00133     0.40335
 =======================================================================
   * Total *    0.00000     17.99396    36.81154    0.19450    55.00000

 Normal termination of Gaussian 16 at Thu Dec 10 11:49:01 2020.
