 Gaussian 16, Revision A.03,

 -----------------------------------------------------------
 # opt freq B3LYP/6-31G(d) empiricaldispersion=gd3bj scf=xqc
 -----------------------------------------------------------

 ----------------------------
 CID_91421572_JID_62_neutraal
 ----------------------------
 Symbolic Z-matrix:
 Charge =  0 Multiplicity = 1

 SCF Done:  E(RB3LYP) =  -458.691908228     A.U. after   14 cycles
 SCF Done:  E(RB3LYP) =  -458.694198682     A.U. after   12 cycles
 SCF Done:  E(RB3LYP) =  -458.694712038     A.U. after   11 cycles
 SCF Done:  E(RB3LYP) =  -458.694983132     A.U. after   11 cycles
 SCF Done:  E(RB3LYP) =  -458.695094840     A.U. after   10 cycles
 SCF Done:  E(RB3LYP) =  -458.695165185     A.U. after   11 cycles
 SCF Done:  E(RB3LYP) =  -458.695279910     A.U. after   12 cycles
 SCF Done:  E(RB3LYP) =  -458.695303313     A.U. after   12 cycles
 SCF Done:  E(RB3LYP) =  -458.695354276     A.U. after   11 cycles
 SCF Done:  E(RB3LYP) =  -458.695380122     A.U. after   11 cycles
 SCF Done:  E(RB3LYP) =  -458.695412614     A.U. after   11 cycles
 SCF Done:  E(RB3LYP) =  -458.695413067     A.U. after    8 cycles
 SCF Done:  E(RB3LYP) =  -458.695413572     A.U. after    8 cycles
 SCF Done:  E(RB3LYP) =  -458.695413499     A.U. after    7 cycles
 SCF Done:  E(RB3LYP) =  -458.695413650     A.U. after    8 cycles
 Optimization completed.
    -- Stationary point found.
 Normal termination of Gaussian 16 at Tue Dec  8 10:16:51 2020.

 --------------------------------------------------------------------
 #N Geom=AllCheck Guess=TCheck SCRF=Check GenChk RB3LYP/6-31G(d) Freq
 --------------------------------------------------------------------

 Structure from the checkpoint file:  "JID_62.chk"
 ----------------------------
 CID_91421572_JID_62_neutraal
 ----------------------------
 Charge =  0 Multiplicity = 1

 SCF Done:  E(RB3LYP) =  -458.695413650     A.U. after    1 cycles

  Exact polarizability:  93.430  -5.616  85.089  -7.955  -5.880  72.240
 Approx polarizability: 129.652  -9.986 124.763 -19.173 -13.652 114.612

                      1                      2                      3
                      A                      A                      A
 Frequencies --     35.8673                43.0209               104.3861
 Red. masses --      3.4613                 4.1441                 3.7777
 Frc consts  --      0.0026                 0.0045                 0.0243
 IR Inten    --      0.4677                 1.5106                 0.1005

                      4                      5                      6
                      A                      A                      A
 Frequencies --    168.5716               224.6298               246.8192
 Red. masses --      2.5773                 3.3601                 1.0881
 Frc consts  --      0.0432                 0.0999                 0.0391
 IR Inten    --      0.4330                 5.9197                 0.4078

                      7                      8                      9
                      A                      A                      A
 Frequencies --    270.3407               324.6679               352.0262
 Red. masses --      1.1091                 4.0123                 2.1802
 Frc consts  --      0.0478                 0.2492                 0.1592
 IR Inten    --      1.2677                 3.3286                 1.4743

                     10                     11                     12
                      A                      A                      A
 Frequencies --    405.5990               437.4694               521.4769
 Red. masses --      2.2125                 1.9256                 2.7962
 Frc consts  --      0.2145                 0.2171                 0.4480
 IR Inten    --      3.0356                 0.0720                14.6561

                     13                     14                     15
                      A                      A                      A
 Frequencies --    628.4757               649.6788               712.7870
 Red. masses --      3.4955                 3.2904                 1.8385
 Frc consts  --      0.8135                 0.8183                 0.5504
 IR Inten    --     11.0973                12.6640                 1.6567

                     16                     17                     18
                      A                      A                      A
 Frequencies --    755.9284               781.1563               826.2006
 Red. masses --      2.0186                 3.1251                 1.4591
 Frc consts  --      0.6796                 1.1235                 0.5868
 IR Inten    --     11.6209                 5.1748                14.0358

                     19                     20                     21
                      A                      A                      A
 Frequencies --    915.0600               933.7912               942.4808
 Red. masses --      2.7563                 3.4900                 3.5653
 Frc consts  --      1.3598                 1.7930                 1.8659
 IR Inten    --      5.4654                29.5687                 7.9721

                     22                     23                     24
                      A                      A                      A
 Frequencies --    997.1130              1043.2732              1085.6866
 Red. masses --      4.2056                 2.1785                 2.0524
 Frc consts  --      2.4636                 1.3970                 1.4254
 IR Inten    --     11.8469                 5.5096                47.6650

                     25                     26                     27
                      A                      A                      A
 Frequencies --   1089.6940              1100.1537              1134.4007
 Red. masses --      1.5820                 2.8034                 2.6662
 Frc consts  --      1.1068                 1.9991                 2.0215
 IR Inten    --     18.3229                23.5621                15.9715

                     28                     29                     30
                      A                      A                      A
 Frequencies --   1138.3146              1177.3281              1199.3711
 Red. masses --      1.6753                 1.6303                 1.4247
 Frc consts  --      1.2790                 1.3314                 1.2074
 IR Inten    --      7.6600                12.5672                 3.5187

                     31                     32                     33
                      A                      A                      A
 Frequencies --   1237.8644              1253.7594              1296.1893
 Red. masses --      1.7194                 1.5027                 1.4884
 Frc consts  --      1.5523                 1.3917                 1.4733
 IR Inten    --     13.7732                10.9440                 3.0790

                     34                     35                     36
                      A                      A                      A
 Frequencies --   1339.2741              1357.5804              1368.3832
 Red. masses --      2.3550                 1.9212                 2.2342
 Frc consts  --      2.4887                 2.0862                 2.4648
 IR Inten    --     24.5919                 1.4179                14.3808

                     37                     38                     39
                      A                      A                      A
 Frequencies --   1405.2451              1416.3657              1468.3050
 Red. masses --      1.3484                 1.3112                 1.1498
 Frc consts  --      1.5688                 1.5497                 1.4605
 IR Inten    --     14.7899                14.6524                 0.5062

                     40                     41                     42
                      A                      A                      A
 Frequencies --   1488.9914              1502.9727              1506.2388
 Red. masses --      1.1199                 1.1020                 1.0543
 Frc consts  --      1.4629                 1.4666                 1.4092
 IR Inten    --      1.4549                12.7377                 6.4861

                     43                     44                     45
                      A                      A                      A
 Frequencies --   1510.2400              1524.6321              1547.3094
 Red. masses --      1.1001                 1.1103                 1.0533
 Frc consts  --      1.4784                 1.5206                 1.4858
 IR Inten    --      6.4940                 3.6656                 3.8145

                     46                     47                     48
                      A                      A                      A
 Frequencies --   1560.6992              1566.6824              1634.5008
 Red. masses --      1.1984                 3.2648                 6.5702
 Frc consts  --      1.7199                 4.7213                10.3419
 IR Inten    --     18.4827                30.5856                 8.8411

                     49                     50                     51
                      A                      A                      A
 Frequencies --   2976.4047              3007.0926              3021.8527
 Red. masses --      1.0536                 1.0438                 1.0640
 Frc consts  --      5.4994                 5.5614                 5.7244
 IR Inten    --     53.6151                78.5839                27.2319

                     52                     53                     54
                      A                      A                      A
 Frequencies --   3052.8056              3064.1812              3064.6513
 Red. masses --      1.0652                 1.0926                 1.0784
 Frc consts  --      5.8487                 6.0445                 5.9674
 IR Inten    --     38.7669                50.4091                56.3743

                     55                     56                     57
                      A                      A                      A
 Frequencies --   3074.1558              3104.6133              3109.7022
 Red. masses --      1.1014                 1.1031                 1.0991
 Frc consts  --      6.1326                 6.2644                 6.2619
 IR Inten    --     23.3669                28.8319                 8.3124

                     58                     59                     60
                      A                      A                      A
 Frequencies --   3112.0847              3296.3809              3312.2373
 Red. masses --      1.0997                 1.0979                 1.1005
 Frc consts  --      6.2751                 7.0292                 7.1136
 IR Inten    --     56.2228                 1.1403                 0.3839

 - Thermochemistry -
 -------------------
 Temperature   298.150 Kelvin.  Pressure   1.00000 Atm.
 Atom     1 has atomic number  6 and mass  12.00000

 Molecular mass:   140.09496 amu.
 Principal axes and moments of inertia in atomic units:
                           1         2         3
     Eigenvalues --   718.284052077.256762231.53141
           X            0.99994   0.00725  -0.00859
           Y           -0.00716   0.99992   0.01065
           Z            0.00867  -0.01059   0.99991
 This molecule is an asymmetric top.
 Rotational symmetry number  1.
 Warning -- assumption of classical behavior for rotation
           may cause significant error
 Rotational temperatures (Kelvin)      0.12058     0.04170     0.03881
 Rotational constants (GHZ):           2.51257     0.86881     0.80875
 Zero-point vibrational energy     499005.3 (Joules/Mol)
                                  119.26512 (Kcal/Mol)
 Warning -- explicit consideration of  12 degrees of freedom as
           vibrations may cause significant error
 Vibrational temperatures:     51.61    61.90   150.19   242.54   323.19
          (Kelvin)            355.12   388.96   467.12   506.49   583.57
                              629.42   750.29   904.24   934.74  1025.54
                             1087.61  1123.91  1188.72  1316.57  1343.52
                             1356.02  1434.62  1501.04  1562.06  1567.83
                             1582.88  1632.15  1637.78  1693.91  1725.63
                             1781.01  1803.88  1864.93  1926.92  1953.26
                             1968.80  2021.83  2037.83  2112.56  2142.33
                             2162.44  2167.14  2172.90  2193.61  2226.23
                             2245.50  2254.11  2351.68  4282.38  4326.54
                             4347.77  4392.31  4408.67  4409.35  4423.02
                             4466.85  4474.17  4477.60  4742.76  4765.57

 Zero-point correction=                           0.190061 (Hartree/Particle)
 Thermal correction to Energy=                    0.200082
 Thermal correction to Enthalpy=                  0.201027
 Thermal correction to Gibbs Free Energy=         0.153620
 Sum of electronic and zero-point Energies=           -458.505353
 Sum of electronic and thermal Energies=              -458.495331
 Sum of electronic and thermal Enthalpies=            -458.494387
 Sum of electronic and thermal Free Energies=         -458.541794

                     E (Thermal)             CV                S
                      KCal/Mol        Cal/Mol-Kelvin    Cal/Mol-Kelvin
 Total                  125.554             36.657             99.775
 Electronic               0.000              0.000              0.000
 Translational            0.889              2.981             40.723
 Rotational               0.889              2.981             29.589
 Vibrational            123.776             30.696             29.464
 Vibration     1          0.594              1.982              5.475
 Vibration     2          0.595              1.980              5.115
 Vibration     3          0.605              1.946              3.371
 Vibration     4          0.625              1.881              2.451
 Vibration     5          0.649              1.804              1.921
 Vibration     6          0.661              1.768              1.753
 Vibration     7          0.674              1.728              1.594
 Vibration     8          0.709              1.626              1.286
 Vibration     9          0.729              1.571              1.157
 Vibration    10          0.771              1.458              0.942
 Vibration    11          0.798              1.389              0.835
 Vibration    12          0.876              1.202              0.607

 Optimization completed.
    -- Stationary point found.
 Normal termination of Gaussian 16 at Tue Dec  8 10:20:30 2020.

 ----------------------------------------------------------------------
 # B3LYP/6-311++G(d,p) empiricaldispersion=gd3bj scf=xqc pop=npa geom=c
 heck
 ----------------------------------------------------------------------

 ------------------------------------
 CID_91421572_JID_62_Energie_neutraal
 ------------------------------------
 Structure from the checkpoint file:  "JID_62.chk"
 Charge =  0 Multiplicity = 1

 SCF Done:  E(RB3LYP) =  -458.823289694     A.U. after   14 cycles
 Normal termination of Gaussian 16 at Tue Dec  8 10:21:42 2020.

 ----------------------------------------------------------------------
 # B3LYP/6-311++G(d,p) empiricaldispersion=gd3bj scf=xqc pop=npa geom=c
 heck
 ----------------------------------------------------------------------

 ----------------------------------
 CID_91421572_JID_62_Energie_kation
 ----------------------------------
 Structure from the checkpoint file:  "JID_62.chk"
 Charge =  1 Multiplicity = 2

 SCF Done:  E(UB3LYP) =  -458.542634571     A.U. after   18 cycles
 Normal termination of Gaussian 16 at Tue Dec  8 10:23:45 2020.
 Gaussian 16:  ES64L-G16RevA.03 25-Dec-2016

 ----------------------------------------------------------------------
 # B3LYP/6-311++G(d,p) empiricaldispersion=gd3bj scf=xqc pop=npa geom=c
 heck
 ----------------------------------------------------------------------

 ---------------------------------
 CID_91421572_JID_62_Energie_anion
 ---------------------------------
 Structure from the checkpoint file:  "JID_62.chk"
 Charge = -1 Multiplicity = 2

                         Standard orientation:
 ---------------------------------------------------------------------
 Center     Atomic      Atomic             Coordinates (Angstroms)
 Number     Number       Type             X           Y           Z
 ---------------------------------------------------------------------
      1          6           0       -1.402499   -1.183565   -1.162150
      2          7           0       -2.123962   -0.160521   -0.420028
      3          6           0       -2.576164   -0.631215    0.877849
      4          6           0       -1.521915    1.160346   -0.399002
      5          6           0       -0.325726    1.426646    0.558047
      6          6           0        0.899670    0.611556    0.295807
      7          6           0        1.897751    0.796931   -0.608549
      8          8           0        2.791016   -0.242328   -0.490986
      9          6           0        2.273961   -1.010963    0.499206
     10          7           0        1.167661   -0.567012    1.003689
     11          1           0       -2.083366   -2.019344   -1.368206
     12          1           0       -0.523179   -1.588306   -0.636881
     13          1           0       -1.072000   -0.773882   -2.122621
     14          1           0       -1.754707   -0.919947    1.557093
     15          1           0       -3.169956    0.150539    1.366269
     16          1           0       -3.220970   -1.507372    0.740182
     17          1           0       -1.211779    1.401271   -1.423212
     18          1           0       -2.307509    1.879256   -0.125438
     19          1           0       -0.081742    2.493657    0.477641
     20          1           0       -0.635731    1.250366    1.593006
     21          1           0        2.127626    1.544712   -1.350208
     22          1           0        2.828824   -1.898016    0.767389
 ---------------------------------------------------------------------

 SCF Done:  E(UB3LYP) =  -458.805351702     A.U. after   32 cycles

 The electronic state is 2-A.
 Alpha  occ. eigenvalues --  -19.10040 -14.21132 -14.19513 -10.15590 -10.11940
 Alpha  occ. eigenvalues --  -10.10083 -10.08652 -10.07807 -10.07584 -10.06706
 Alpha  occ. eigenvalues --   -1.03279  -0.82439  -0.81244  -0.68693  -0.63664
 Alpha  occ. eigenvalues --   -0.59880  -0.56774  -0.50726  -0.50002  -0.46800
 Alpha  occ. eigenvalues --   -0.42204  -0.37723  -0.37332  -0.36398  -0.35182
 Alpha  occ. eigenvalues --   -0.34618  -0.32853  -0.30365  -0.28826  -0.28221
 Alpha  occ. eigenvalues --   -0.27576  -0.26018  -0.24756  -0.24035  -0.21833
 Alpha  occ. eigenvalues --   -0.19530  -0.14658  -0.10019   0.04864
 Alpha virt. eigenvalues --    0.06911   0.07463   0.08019   0.08832   0.09567
 Alpha virt. eigenvalues --    0.10361   0.10964   0.11435   0.12985   0.13109
 Alpha virt. eigenvalues --    0.13582   0.14017   0.14731   0.15224   0.15496

  Beta  occ. eigenvalues --  -19.10031 -14.21129 -14.19515 -10.15570 -10.11894
  Beta  occ. eigenvalues --  -10.10084 -10.08626 -10.07781 -10.07562 -10.06683
  Beta  occ. eigenvalues --   -1.03256  -0.82427  -0.81234  -0.68650  -0.63611
  Beta  occ. eigenvalues --   -0.59840  -0.56726  -0.50692  -0.49939  -0.46740
  Beta  occ. eigenvalues --   -0.42149  -0.37677  -0.37305  -0.36358  -0.35117
  Beta  occ. eigenvalues --   -0.34585  -0.32818  -0.30321  -0.28793  -0.28187
  Beta  occ. eigenvalues --   -0.27550  -0.25990  -0.24718  -0.24004  -0.21811
  Beta  occ. eigenvalues --   -0.19519  -0.14592  -0.10000
  Beta virt. eigenvalues --    0.07246   0.08125   0.08272   0.08822   0.09209
  Beta virt. eigenvalues --    0.10245   0.10817   0.11534   0.11852   0.13196
  Beta virt. eigenvalues --    0.13502   0.13961   0.14190   0.14944   0.15409

 Mulliken charges and spin densities:
               1          2
     1  C    0.141907  -0.567965
     2  N   -0.162548   0.245255
     3  C    0.364590  -0.801435
     4  C    0.733660  -1.176783
     5  C    0.555545  -0.701086
     6  C   -0.470935   0.472058
     7  C    0.750405  -1.134920
     8  O   -0.044946   0.008942
     9  C    0.770350  -0.730585
    10  N   -0.122560   0.033552
    11  H   -0.027457   0.166037
    12  H   -0.082433   0.209601
    13  H   -0.153868   0.288022
    14  H    0.038502   0.107289
    15  H   -0.298294   0.435032
    16  H    0.024868   0.089526
    17  H   -0.060162   0.201104
    18  H   -0.287292   0.451045
    19  H   -0.783103   0.978810
    20  H    0.133167   0.021730
    21  H   -1.124988   1.320812
    22  H   -0.894407   1.083958
 Sum of Mulliken charges =  -1.00000   1.00000

 Dipole moment (field-independent basis, Debye):
    X=             -0.9572    Y=             -2.8595    Z=              1.0014  Tot=              3.1774
 Quadrupole moment (field-independent basis, Debye-Ang):
   XX=           -114.2063   YY=           -110.3353   ZZ=            -93.4117
   XY=              3.2209   XZ=              2.1514   YZ=              6.3235

 Summary of Natural Population Analysis:

                                       Natural Population
                Natural  -----------------------------------------------
    Atom  No    Charge         Core      Valence    Rydberg      Total
 -----------------------------------------------------------------------
      C    1   -0.17485      0.99963     2.16805    0.00716     3.17485
      N    2   -0.28178      0.99974     2.76790    0.01414     3.78178
      C    3   -0.17791      0.99964     2.17083    0.00744     3.17791
      C    4   -0.07350      0.99960     2.06063    0.01327     3.07350
      C    5   -0.21894      0.99959     2.20859    0.01076     3.21894
      C    6    0.03921      0.99953     1.94480    0.01647     2.96079
      C    7    0.04922      0.99941     1.93772    0.01364     2.95078
      O    8   -0.23316      0.99988     3.22527    0.00802     4.23316
      C    9    0.18160      0.99963     1.79868    0.02008     2.81840
      N   10   -0.25446      0.99971     2.74382    0.01093     3.75446
      H   11    0.08925      0.00000     0.40950    0.00125     0.41075
      H   12    0.08652      0.00000     0.41144    0.00204     0.41348
      H   13    0.09479      0.00000     0.40387    0.00134     0.40521
      H   14    0.08689      0.00000     0.41118    0.00192     0.41311
      H   15    0.09372      0.00000     0.40493    0.00135     0.40628
      H   16    0.09131      0.00000     0.40745    0.00124     0.40869
      H   17    0.09510      0.00000     0.40299    0.00191     0.40490
      H   18    0.09440      0.00000     0.40374    0.00186     0.40560
      H   19    0.11089      0.00000     0.38633    0.00278     0.38911
      H   20    0.10601      0.00000     0.39243    0.00156     0.39399
      H   21    0.10450      0.00000     0.39124    0.00426     0.39550
      H   22    0.09119      0.00000     0.40641    0.00240     0.40881
 =======================================================================
   * Total *    0.00000      9.99636    27.85779    0.14585    38.00000

 Normal termination of Gaussian 16 at Tue Dec  8 10:27:19 2020.
