 Gaussian 16, Revision A.03,

 -----------------------------------------------------------
 # opt freq B3LYP/6-31G(d) empiricaldispersion=gd3bj scf=xqc
 -----------------------------------------------------------

 -------------------------------
 CID_116128717_JID_2172_neutraal
 -------------------------------
 Symbolic Z-matrix:
 Charge =  0 Multiplicity = 1

 SCF Done:  E(RB3LYP) =  -573.226408756     A.U. after   15 cycles
 SCF Done:  E(RB3LYP) =  -573.250456034     A.U. after   13 cycles
 SCF Done:  E(RB3LYP) =  -573.252581028     A.U. after   15 cycles
 SCF Done:  E(RB3LYP) =  -573.253723923     A.U. after   13 cycles
 SCF Done:  E(RB3LYP) =  -573.254170151     A.U. after   13 cycles
 SCF Done:  E(RB3LYP) =  -573.254770961     A.U. after   12 cycles
 SCF Done:  E(RB3LYP) =  -573.255330777     A.U. after   13 cycles
 SCF Done:  E(RB3LYP) =  -573.255864069     A.U. after   12 cycles
 SCF Done:  E(RB3LYP) =  -573.256235098     A.U. after   12 cycles
 SCF Done:  E(RB3LYP) =  -573.256344062     A.U. after   13 cycles
 SCF Done:  E(RB3LYP) =  -573.256718429     A.U. after   11 cycles
 SCF Done:  E(RB3LYP) =  -573.256730915     A.U. after   11 cycles
 SCF Done:  E(RB3LYP) =  -573.256735955     A.U. after   10 cycles
 SCF Done:  E(RB3LYP) =  -573.256736478     A.U. after    8 cycles
 SCF Done:  E(RB3LYP) =  -573.256736649     A.U. after    9 cycles
 SCF Done:  E(RB3LYP) =  -573.256736715     A.U. after    8 cycles
 Optimization completed.
    -- Stationary point found.
 Normal termination of Gaussian 16 at Wed Dec  9 16:56:35 2020.

 --------------------------------------------------------------------
 #N Geom=AllCheck Guess=TCheck SCRF=Check GenChk RB3LYP/6-31G(d) Freq
 --------------------------------------------------------------------

 Structure from the checkpoint file:  "JID_2172.chk"
 -------------------------------
 CID_116128717_JID_2172_neutraal
 -------------------------------
 Charge =  0 Multiplicity = 1

 SCF Done:  E(RB3LYP) =  -573.256736715     A.U. after    1 cycles

  Exact polarizability: 111.524   0.571 107.324  -1.420  -0.755  76.845
 Approx polarizability: 136.481  -0.701 166.229  -4.594  -0.055 118.282

                      1                      2                      3
                      A                      A                      A
 Frequencies --     21.8663                42.6911                67.7245
 Red. masses --      4.1700                 4.6919                 4.5237
 Frc consts  --      0.0012                 0.0050                 0.0122
 IR Inten    --      0.7632                 0.7140                 9.4629

                      4                      5                      6
                      A                      A                      A
 Frequencies --     80.7365                99.3305               119.7194
 Red. masses --      2.7988                 4.6589                 4.1239
 Frc consts  --      0.0107                 0.0271                 0.0348
 IR Inten    --      0.9558                 0.7768                 2.0581

                      7                      8                      9
                      A                      A                      A
 Frequencies --    164.0401               199.8231               236.5662
 Red. masses --      5.1724                 1.9776                 4.3871
 Frc consts  --      0.0820                 0.0465                 0.1447
 IR Inten    --      2.5480                 3.5151                 9.3348

                     10                     11                     12
                      A                      A                      A
 Frequencies --    272.4396               275.1743               321.0702
 Red. masses --      1.1923                 1.2960                 1.8851
 Frc consts  --      0.0521                 0.0578                 0.1145
 IR Inten    --      0.3539                 1.2908                 3.3020

                     13                     14                     15
                      A                      A                      A
 Frequencies --    344.9440               373.0805               390.7938
 Red. masses --      3.3142                 3.3234                 2.7273
 Frc consts  --      0.2323                 0.2725                 0.2454
 IR Inten    --      2.7139                 1.3883                 0.8423

                     16                     17                     18
                      A                      A                      A
 Frequencies --    451.6630               455.8112               517.8221
 Red. masses --      6.5030                 4.2213                 3.4456
 Frc consts  --      0.7816                 0.5167                 0.5444
 IR Inten    --      0.2032                17.3246                 8.8401

                     19                     20                     21
                      A                      A                      A
 Frequencies --    568.0832               580.6215               661.3928
 Red. masses --      2.9890                 2.6125                 1.7529
 Frc consts  --      0.5683                 0.5189                 0.4518
 IR Inten    --      3.1340                 8.8332                41.4328

                     22                     23                     24
                      A                      A                      A
 Frequencies --    722.2169               770.8529               818.1385
 Red. masses --      2.0854                 2.5811                 1.2415
 Frc consts  --      0.6409                 0.9036                 0.4896
 IR Inten    --     71.5334                 8.6278                 0.7302

                     25                     26                     27
                      A                      A                      A
 Frequencies --    864.5965               896.3892               939.0824
 Red. masses --      4.6593                 1.9809                 1.6072
 Frc consts  --      2.0521                 0.9378                 0.8351
 IR Inten    --      0.6774                 4.2280                 3.3038

                     28                     29                     30
                      A                      A                      A
 Frequencies --    941.0969               964.7946               970.5573
 Red. masses --      1.7838                 2.0342                 3.2094
 Frc consts  --      0.9308                 1.1156                 1.7812
 IR Inten    --      9.0915                 0.3421                 1.6354

                     31                     32                     33
                      A                      A                      A
 Frequencies --   1063.5337              1099.3420              1132.9198
 Red. masses --      2.8097                 2.6422                 2.0694
 Frc consts  --      1.8725                 1.8814                 1.5649
 IR Inten    --     19.2340                38.0009                43.4149

                     34                     35                     36
                      A                      A                      A
 Frequencies --   1153.0845              1165.5512              1198.6671
 Red. masses --      2.3342                 2.3494                 2.6857
 Frc consts  --      1.8286                 1.8805                 2.2735
 IR Inten    --     21.8725                71.4875               111.0114

                     37                     38                     39
                      A                      A                      A
 Frequencies --   1213.4947              1217.8658              1288.8097
 Red. masses --      1.9319                 1.1921                 1.2335
 Frc consts  --      1.6762                 1.0417                 1.2072
 IR Inten    --     32.4213                13.8104                27.6357

                     40                     41                     42
                      A                      A                      A
 Frequencies --   1312.1388              1342.3762              1348.4825
 Red. masses --      1.4017                 1.3015                 1.1089
 Frc consts  --      1.4218                 1.3818                 1.1881
 IR Inten    --      4.8741                17.8334                 6.7871

                     43                     44                     45
                      A                      A                      A
 Frequencies --   1380.3028              1412.5467              1426.5186
 Red. masses --      1.8484                 1.3281                 1.4622
 Frc consts  --      2.0748                 1.5614                 1.7531
 IR Inten    --     57.5762                13.6130                60.4125

                     46                     47                     48
                      A                      A                      A
 Frequencies --   1432.1463              1440.5309              1443.5755
 Red. masses --      1.2816                 1.3085                 1.2803
 Frc consts  --      1.5488                 1.5998                 1.5719
 IR Inten    --     12.9950                20.9344                25.0254

                     49                     50                     51
                      A                      A                      A
 Frequencies --   1482.1022              1493.6139              1516.8259
 Red. masses --      1.0874                 1.7734                 1.0596
 Frc consts  --      1.4074                 2.3309                 1.4364
 IR Inten    --     10.8917                78.5026                 2.4634

                     52                     53                     54
                      A                      A                      A
 Frequencies --   1519.3656              1526.3056              1529.5481
 Red. masses --      1.0463                 1.0528                 1.0496
 Frc consts  --      1.4231                 1.4450                 1.4468
 IR Inten    --     10.5415                 8.5600                 5.5223

                     55                     56                     57
                      A                      A                      A
 Frequencies --   1542.3439              1551.3693              1810.2179
 Red. masses --      1.0779                 1.0753                 9.1311
 Frc consts  --      1.5108                 1.5248                17.6293
 IR Inten    --      7.0758                 0.6156               482.7259

                     58                     59                     60
                      A                      A                      A
 Frequencies --   2366.9878              3030.1738              3046.4812
 Red. masses --     12.5869                 1.0689                 1.0641
 Frc consts  --     41.5491                 5.7827                 5.8186
 IR Inten    --     11.1511                27.6930                42.3834

                     61                     62                     63
                      A                      A                      A
 Frequencies --   3056.9405              3061.5038              3063.8236
 Red. masses --      1.0363                 1.0394                 1.0663
 Frc consts  --      5.7054                 5.7398                 5.8971
 IR Inten    --     13.1642                20.0405                 1.6554

                     64                     65                     66
                      A                      A                      A
 Frequencies --   3070.4727              3100.7469              3116.8615
 Red. masses --      1.0838                 1.0994                 1.0944
 Frc consts  --      6.0202                 6.2278                 6.2644
 IR Inten    --     29.2465                 9.2538                 6.6023

                     67                     68                     69
                      A                      A                      A
 Frequencies --   3124.0627              3129.2946              3137.8140
 Red. masses --      1.1003                 1.1011                 1.1037
 Frc consts  --      6.3271                 6.3529                 6.4023
 IR Inten    --     51.6776                28.7257                27.3000

                     70                     71                     72
                      A                      A                      A
 Frequencies --   3138.8358              3142.1237              3572.6058
 Red. masses --      1.1032                 1.0961                 1.0752
 Frc consts  --      6.4037                 6.3759                 8.0859
 IR Inten    --     27.4566                 0.1265                76.7607

 - Thermochemistry -
 -------------------
 Temperature   298.150 Kelvin.  Pressure   1.00000 Atm.
 Atom     1 has atomic number  6 and mass  12.00000

 Molecular mass:   170.10553 amu.
 Principal axes and moments of inertia in atomic units:
                           1         2         3
     Eigenvalues --  1314.592403441.684174253.84843
           X            0.99996  -0.00824  -0.00388
           Y            0.00817   0.99978  -0.01911
           Z            0.00403   0.01908   0.99981
 This molecule is an asymmetric top.
 Rotational symmetry number  1.
 Warning -- assumption of classical behavior for rotation
           may cause significant error
 Rotational temperatures (Kelvin)      0.06589     0.02517     0.02036
 Rotational constants (GHZ):           1.37285     0.52438     0.42426
 Zero-point vibrational energy     582195.1 (Joules/Mol)
                                  139.14798 (Kcal/Mol)
 Warning -- explicit consideration of  20 degrees of freedom as
           vibrations may cause significant error
 Vibrational temperatures:     31.46    61.42    97.44   116.16   142.91
          (Kelvin)            172.25   236.02   287.50   340.37   391.98
                              395.91   461.95   496.30   536.78   562.27
                              649.84   655.81   745.03   817.35   835.38
                              951.60  1039.11  1109.09  1177.12  1243.96
                             1289.70  1351.13  1354.03  1388.12  1396.42
                             1530.19  1581.71  1630.02  1659.03  1676.97
                             1724.61  1745.95  1752.24  1854.31  1887.88
                             1931.38  1940.17  1985.95  2032.34  2052.44
                             2060.54  2072.60  2076.98  2132.41  2148.98
                             2182.37  2186.03  2196.01  2200.68  2219.09
                             2232.07  2604.50  3405.57  4359.74  4383.21
                             4398.26  4404.82  4408.16  4417.73  4461.28
                             4484.47  4494.83  4502.36  4514.61  4516.08
                             4520.82  5140.18

 Zero-point correction=                           0.221746 (Hartree/Particle)
 Thermal correction to Energy=                    0.235390
 Thermal correction to Enthalpy=                  0.236334
 Thermal correction to Gibbs Free Energy=         0.179917
 Sum of electronic and zero-point Energies=           -573.034990
 Sum of electronic and thermal Energies=              -573.021347
 Sum of electronic and thermal Enthalpies=            -573.020403
 Sum of electronic and thermal Free Energies=         -573.076819

                     E (Thermal)             CV                S
                      KCal/Mol        Cal/Mol-Kelvin    Cal/Mol-Kelvin
 Total                  147.709             48.449            118.738
 Electronic               0.000              0.000              0.000
 Translational            0.889              2.981             41.302
 Rotational               0.889              2.981             31.332
 Vibrational            145.932             42.488             46.105
 Vibration     1          0.593              1.985              6.457
 Vibration     2          0.595              1.980              5.130
 Vibration     3          0.598              1.970              4.218
 Vibration     4          0.600              1.962              3.873
 Vibration     5          0.604              1.950              3.467
 Vibration     6          0.609              1.933              3.105
 Vibration     7          0.623              1.887              2.503
 Vibration     8          0.638              1.840              2.135
 Vibration     9          0.655              1.785              1.829
 Vibration    10          0.675              1.724              1.581
 Vibration    11          0.677              1.719              1.563
 Vibration    12          0.707              1.633              1.305
 Vibration    13          0.723              1.586              1.189
 Vibration    14          0.744              1.527              1.067
 Vibration    15          0.758              1.490              0.997
 Vibration    16          0.810              1.357              0.791
 Vibration    17          0.814              1.348              0.778
 Vibration    18          0.873              1.211              0.615
 Vibration    19          0.924              1.100              0.508
 Vibration    20          0.937              1.073              0.484

                           ! Non-Optimized Parameters !
 Normal termination of Gaussian 16 at Wed Dec  9 17:02:22 2020.

 ----------------------------------------------------------------------
 # B3LYP/6-311++G(d,p) empiricaldispersion=gd3bj scf=xqc pop=npa geom=c
 heck
 ----------------------------------------------------------------------

 ---------------------------------------
 CID_116128717_JID_2172_Energie_neutraal
 ---------------------------------------
 Structure from the checkpoint file:  "JID_2172.chk"
 Charge =  0 Multiplicity = 1

 SCF Done:  E(RB3LYP) =  -573.429101929     A.U. after   15 cycles
 Normal termination of Gaussian 16 at Wed Dec  9 17:05:02 2020.

 ----------------------------------------------------------------------
 # B3LYP/6-311++G(d,p) empiricaldispersion=gd3bj scf=xqc pop=npa geom=c
 heck
 ----------------------------------------------------------------------

 -------------------------------------
 CID_116128717_JID_2172_Energie_kation
 -------------------------------------
 Structure from the checkpoint file:  "JID_2172.chk"
 Charge =  1 Multiplicity = 2

 SCF Done:  E(UB3LYP) =  -573.089116740     A.U. after   27 cycles
 Normal termination of Gaussian 16 at Wed Dec  9 17:12:33 2020.
 Gaussian 16:  ES64L-G16RevA.03 25-Dec-2016

 ----------------------------------------------------------------------
 # B3LYP/6-311++G(d,p) empiricaldispersion=gd3bj scf=xqc pop=npa geom=c
 heck
 ----------------------------------------------------------------------

 ------------------------------------
 CID_116128717_JID_2172_Energie_anion
 ------------------------------------
 Structure from the checkpoint file:  "JID_2172.chk"
 Charge = -1 Multiplicity = 2

                         Standard orientation:
 ---------------------------------------------------------------------
 Center     Atomic      Atomic             Coordinates (Angstroms)
 Number     Number       Type             X           Y           Z
 ---------------------------------------------------------------------
      1          6           0       -2.685117   -1.320094    1.114312
      2          6           0       -3.130944   -0.579483   -0.145128
      3          8           0       -2.074923   -0.099983   -0.976085
      4          6           0       -1.280491    1.010643   -0.547398
      5          6           0       -2.052422    2.120071    0.158801
      6          6           0       -0.072729    0.542299    0.284196
      7          7           0        0.523675   -0.609388   -0.372499
      8          6           0        1.743100   -1.171258   -0.169830
      9          8           0        2.087666   -2.229213   -0.671442
     10          6           0        2.710252   -0.401283    0.762072
     11          6           0        3.067846    0.925647    0.264007
     12          7           0        3.323034    1.982714   -0.142664
     13          1           0       -1.935387   -2.080510    0.872524
     14          1           0       -3.546717   -1.821998    1.569526
     15          1           0       -2.263161   -0.644889    1.865161
     16          1           0       -3.681448   -1.265161   -0.796451
     17          1           0       -3.815141    0.238462    0.115258
     18          1           0       -0.881856    1.404702   -1.489149
     19          1           0       -2.415243    1.812306    1.145257
     20          1           0       -1.396978    2.985831    0.300021
     21          1           0       -2.908332    2.437888   -0.444006
     22          1           0        0.643505    1.366644    0.337547
     23          1           0       -0.383483    0.299639    1.309748
     24          1           0       -0.117655   -1.158376   -0.935805
     25          1           0        2.268473   -0.295462    1.761087
     26          1           0        3.607552   -1.018028    0.849454
 ---------------------------------------------------------------------

 SCF Done:  E(UB3LYP) =  -573.421327840     A.U. after   31 cycles

 The electronic state is 2-A.
 Alpha  occ. eigenvalues --  -19.03591 -19.00789 -14.25035 -14.22931 -10.19927
 Alpha  occ. eigenvalues --  -10.14104 -10.13398 -10.13171 -10.12304 -10.11744
 Alpha  occ. eigenvalues --  -10.07327 -10.06373  -0.96023  -0.94585  -0.84230
 Alpha  occ. eigenvalues --   -0.82547  -0.70628  -0.69397  -0.65283  -0.61113
 Alpha  occ. eigenvalues --   -0.55221  -0.51486  -0.48047  -0.44987  -0.42332
 Alpha  occ. eigenvalues --   -0.41520  -0.40650  -0.36664  -0.36470  -0.35392
 Alpha  occ. eigenvalues --   -0.34782  -0.33345  -0.32206  -0.31892  -0.29935
 Alpha  occ. eigenvalues --   -0.29693  -0.28494  -0.28372  -0.27597  -0.25610
 Alpha  occ. eigenvalues --   -0.25356  -0.24574  -0.21639  -0.18229  -0.17945
 Alpha  occ. eigenvalues --   -0.16695   0.04128
 Alpha virt. eigenvalues --    0.06297   0.07308   0.08024   0.08376   0.09112
 Alpha virt. eigenvalues --    0.09770   0.10291   0.10611   0.11239   0.11336
 Alpha virt. eigenvalues --    0.11471   0.12726   0.12894   0.13275   0.14216

  Beta  occ. eigenvalues --  -19.03588 -19.00785 -14.25030 -14.22919 -10.19923
  Beta  occ. eigenvalues --  -10.14099 -10.13351 -10.13163 -10.12278 -10.11713
  Beta  occ. eigenvalues --  -10.07279 -10.06325  -0.96013  -0.94573  -0.84214
  Beta  occ. eigenvalues --   -0.82520  -0.70576  -0.69344  -0.65227  -0.61051
  Beta  occ. eigenvalues --   -0.55133  -0.51450  -0.47965  -0.44943  -0.42291
  Beta  occ. eigenvalues --   -0.41493  -0.40568  -0.36609  -0.36425  -0.35355
  Beta  occ. eigenvalues --   -0.34741  -0.33312  -0.32167  -0.31828  -0.29899
  Beta  occ. eigenvalues --   -0.29645  -0.28451  -0.28347  -0.27545  -0.25573
  Beta  occ. eigenvalues --   -0.25309  -0.24537  -0.21611  -0.18199  -0.17926
  Beta  occ. eigenvalues --   -0.16668
  Beta virt. eigenvalues --    0.06740   0.07357   0.07986   0.08465   0.08660
  Beta virt. eigenvalues --    0.09484   0.10301   0.10656   0.10972   0.11553
  Beta virt. eigenvalues --    0.11677   0.11970   0.13010   0.13298   0.13512

 Mulliken charges and spin densities:
               1          2
     1  C    0.764582  -1.214602
     2  C   -0.026401  -0.189583
     3  O   -0.158280   0.015112
     4  C   -1.601336   1.517299
     5  C    1.331069  -1.918640
     6  C    0.850036  -1.254113
     7  N   -0.185722   0.113248
     8  C   -0.429544   0.444708
     9  O   -0.331148  -0.004064
    10  C    0.637378  -0.757923
    11  C    0.372600  -0.235308
    12  N   -0.338637   0.005744
    13  H    0.181337  -0.029866
    14  H   -0.628265   0.780729
    15  H   -0.402851   0.558629
    16  H   -0.131760   0.304538
    17  H   -0.129895   0.274100
    18  H    0.089884   0.103042
    19  H   -0.373235   0.566356
    20  H   -0.080357   0.231791
    21  H   -0.366967   0.529307
    22  H    0.304489  -0.194677
    23  H    0.056023   0.147027
    24  H    0.282123   0.056495
    25  H   -0.754999   0.966748
    26  H    0.069876   0.183904
 Sum of Mulliken charges =  -1.00000   1.00000

 Dipole moment (field-independent basis, Debye):
    X=              1.8777    Y=             -0.7163    Z=             -4.1938  Tot=              4.6505
 Quadrupole moment (field-independent basis, Debye-Ang):
   XX=           -143.4620   YY=           -119.2264   ZZ=           -113.6967
   XY=             -1.5808   XZ=              8.7327   YZ=             -1.6494

 Summary of Natural Population Analysis:

                                       Natural Population
                Natural  -----------------------------------------------
    Atom  No    Charge         Core      Valence    Rydberg      Total
 -----------------------------------------------------------------------
      C    1   -0.30298      0.99966     2.29813    0.00519     3.30298
      C    2   -0.01163      0.99958     1.99876    0.01329     3.01163
      O    3   -0.31202      0.99988     3.30294    0.00920     4.31202
      C    4    0.06697      0.99955     1.91899    0.01448     2.93303
      C    5   -0.30397      0.99964     2.29896    0.00537     3.30397
      C    6   -0.10599      0.99957     2.09495    0.01147     3.10599
      N    7   -0.31549      0.99966     2.80666    0.00917     3.81549
      C    8    0.34991      0.99968     1.62743    0.02298     2.65009
      O    9   -0.31628      0.99988     3.31050    0.00591     4.31628
      C   10   -0.29026      0.99951     2.28167    0.00908     3.29026
      C   11    0.15960      0.99965     1.82475    0.01600     2.84040
      N   12   -0.18150      0.99979     2.67077    0.01094     3.68150
      H   13    0.09913      0.00000     0.39962    0.00125     0.40087
      H   14    0.10456      0.00000     0.39386    0.00159     0.39544
      H   15    0.10065      0.00000     0.39698    0.00237     0.39935
      H   16    0.08824      0.00000     0.41060    0.00116     0.41176
      H   17    0.08358      0.00000     0.41478    0.00164     0.41642
      H   18    0.09016      0.00000     0.40818    0.00166     0.40984
      H   19    0.10604      0.00000     0.39195    0.00201     0.39396
      H   20    0.10785      0.00000     0.39111    0.00104     0.39215
      H   21    0.10584      0.00000     0.39305    0.00110     0.39416
      H   22    0.10642      0.00000     0.39189    0.00169     0.39358
      H   23    0.09774      0.00000     0.39937    0.00290     0.40226
      H   24    0.20484      0.00000     0.29252    0.00264     0.29516
      H   25    0.13665      0.00000     0.35838    0.00497     0.36335
      H   26    0.13195      0.00000     0.36696    0.00109     0.36805
 =======================================================================
   * Total *    0.00000     11.99605    33.84377    0.16018    46.00000

 Normal termination of Gaussian 16 at Wed Dec  9 17:20:01 2020.
