 Gaussian 16, Revision A.03,

 -----------------------------------------------------------
 # opt freq B3LYP/6-31G(d) empiricaldispersion=gd3bj scf=xqc
 -----------------------------------------------------------

 -----------------------------
 CID_91256412_JID_744_neutraal
 -----------------------------
 Symbolic Z-matrix:
 Charge =  0 Multiplicity = 1

 SCF Done:  E(RB3LYP) =  -423.986826338     A.U. after   13 cycles
 SCF Done:  E(RB3LYP) =  -423.993204676     A.U. after   11 cycles
 SCF Done:  E(RB3LYP) =  -423.994217611     A.U. after   11 cycles
 SCF Done:  E(RB3LYP) =  -423.994531192     A.U. after   11 cycles
 SCF Done:  E(RB3LYP) =  -423.994588668     A.U. after   10 cycles
 SCF Done:  E(RB3LYP) =  -423.994597056     A.U. after    8 cycles
 SCF Done:  E(RB3LYP) =  -423.994597819     A.U. after    8 cycles
 SCF Done:  E(RB3LYP) =  -423.994598322     A.U. after    7 cycles
 SCF Done:  E(RB3LYP) =  -423.994598295     A.U. after    7 cycles
 Optimization completed.
    -- Stationary point found.

 1\1\GINC-NODE128\FOpt\RB3LYP\6-31G(d)\C8H16N2\VSC10255\08-Dec-2020\0\\
 # opt freq B3LYP/6-31G(d) empiricaldispersion=gd3bj scf=xqc\\CID_91256
 412_JID_744_neutraal\\0,1\C,0.9903070652,-0.1071193675,0.1240362274\C,
 0.1451268282,-0.4049634853,1.3413716989\C,-0.8364368918,0.4480324836,1
 .7018142879\N,0.4136356356,-1.6153367688,1.9816811301\C,1.7421509562,-
 2.214894861,1.9246646704\C,2.8436494866,-1.505531083,2.7466184143\C,2.
 3402107204,-0.7835442873,4.0123523139\N,1.3872510994,-1.495100225,4.86
 31347488\C,-0.0105931898,-1.3763264936,4.4630726003\C,-0.3952654727,-2

 Normal termination of Gaussian 16 at Tue Dec  8 12:30:48 2020.

 --------------------------------------------------------------------
 #N Geom=AllCheck Guess=TCheck SCRF=Check GenChk RB3LYP/6-31G(d) Freq
 --------------------------------------------------------------------

 Structure from the checkpoint file:  "JID_744.chk"
 -----------------------------
 CID_91256412_JID_744_neutraal
 -----------------------------
 Charge =  0 Multiplicity = 1

 SCF Done:  E(RB3LYP) =  -423.994598295     A.U. after    1 cycles

  Exact polarizability:  99.699  -3.536 103.813 -10.305   5.551  80.939
 Approx polarizability: 131.435  -8.198 150.804 -19.477  15.478 124.175

                      1                      2                      3
                      A                      A                      A
 Frequencies --     67.0437               101.0804               145.9221
 Red. masses --      2.7526                 3.3619                 2.4143
 Frc consts  --      0.0073                 0.0202                 0.0303
 IR Inten    --      0.5404                 0.2382                 0.9121

                      4                      5                      6
                      A                      A                      A
 Frequencies --    185.4947               241.0755               285.3576
 Red. masses --      2.2733                 1.0355                 3.9559
 Frc consts  --      0.0461                 0.0355                 0.1898
 IR Inten    --      1.1581                 0.1218                 1.5596

                      7                      8                      9
                      A                      A                      A
 Frequencies --    340.4775               353.6978               358.5310
 Red. masses --      2.7879                 2.0163                 3.1182
 Frc consts  --      0.1904                 0.1486                 0.2362
 IR Inten    --      5.3921                14.1072                 2.0355

                     10                     11                     12
                      A                      A                      A
 Frequencies --    450.7334               466.3337               510.8976
 Red. masses --      2.1924                 2.4937                 2.1042
 Frc consts  --      0.2624                 0.3195                 0.3236
 IR Inten    --      1.0694                 6.4500                 4.2181

                     13                     14                     15
                      A                      A                      A
 Frequencies --    527.4316               569.8612               597.5760
 Red. masses --      2.1865                 1.8626                 2.1128
 Frc consts  --      0.3584                 0.3564                 0.4445
 IR Inten    --      1.5315                 3.7726                 9.9429

                     16                     17                     18
                      A                      A                      A
 Frequencies --    713.8433               715.7029               738.2110
 Red. masses --      1.2474                 2.0540                 2.3019
 Frc consts  --      0.3745                 0.6199                 0.7391
 IR Inten    --      1.8206               115.7670                 9.0594

                     19                     20                     21
                      A                      A                      A
 Frequencies --    765.0344               784.9336               847.3772
 Red. masses --      1.3547                 1.3867                 2.5574
 Frc consts  --      0.4672                 0.5034                 1.0820
 IR Inten    --     19.5908                57.3303                14.7339

                     22                     23                     24
                      A                      A                      A
 Frequencies --    869.6766               925.4216               954.5479
 Red. masses --      2.4969                 2.0295                 2.0678
 Frc consts  --      1.1127                 1.0241                 1.1101
 IR Inten    --      7.7110                 0.7045                10.9668

                     25                     26                     27
                      A                      A                      A
 Frequencies --    962.6119              1013.3448              1034.5966
 Red. masses --      1.7791                 1.7613                 1.5191
 Frc consts  --      0.9713                 1.0656                 0.9580
 IR Inten    --      9.9461                 6.2070                 0.4862

                     28                     29                     30
                      A                      A                      A
 Frequencies --   1051.7190              1070.8728              1086.0341
 Red. masses --      2.1444                 2.5279                 1.4862
 Frc consts  --      1.3975                 1.7080                 1.0328
 IR Inten    --      3.9910                20.4529                 1.1139

                     31                     32                     33
                      A                      A                      A
 Frequencies --   1122.5052              1152.3925              1183.4583
 Red. masses --      1.6337                 1.8300                 3.4827
 Frc consts  --      1.2128                 1.4319                 2.8739
 IR Inten    --     17.6747                 9.9889                32.0163

                     34                     35                     36
                      A                      A                      A
 Frequencies --   1216.7807              1259.2621              1287.4575
 Red. masses --      2.4402                 1.3540                 1.4886
 Frc consts  --      2.1286                 1.2651                 1.4538
 IR Inten    --     28.4181                 2.7343                13.1745

                     37                     38                     39
                      A                      A                      A
 Frequencies --   1317.6572              1334.2042              1346.8658
 Red. masses --      1.3481                 1.4576                 1.2859
 Frc consts  --      1.3790                 1.5288                 1.3744
 IR Inten    --     19.8966                14.3987                 4.1359

                     40                     41                     42
                      A                      A                      A
 Frequencies --   1382.1867              1393.3518              1411.8662
 Red. masses --      1.3763                 1.3774                 1.2322
 Frc consts  --      1.5492                 1.5755                 1.4472
 IR Inten    --     17.8129                11.5098                20.9571

                     43                     44                     45
                      A                      A                      A
 Frequencies --   1421.1645              1424.3323              1439.6236
 Red. masses --      1.3095                 1.3246                 1.2265
 Frc consts  --      1.5583                 1.5833                 1.4977
 IR Inten    --     16.7191                16.3104                 8.0803

                     46                     47                     48
                      A                      A                      A
 Frequencies --   1458.5646              1475.8945              1504.0105
 Red. masses --      1.6734                 1.3140                 1.0818
 Frc consts  --      2.0975                 1.6864                 1.4417
 IR Inten    --     40.1798                29.7791                 3.9215

                     49                     50                     51
                      A                      A                      A
 Frequencies --   1508.3331              1514.0187              1516.2376
 Red. masses --      1.0983                 1.1742                 1.0637
 Frc consts  --      1.4722                 1.5859                 1.4408
 IR Inten    --      4.4151                21.0603                 7.7479

                     52                     53                     54
                      A                      A                      A
 Frequencies --   1522.8580              1523.1231              1530.3315
 Red. masses --      1.0793                 1.1149                 1.0964
 Frc consts  --      1.4747                 1.5239                 1.5128
 IR Inten    --     20.8055                 0.4762                 4.1801

                     55                     56                     57
                      A                      A                      A
 Frequencies --   1547.2461              1698.5947              3021.5314
 Red. masses --      1.1199                 4.5562                 1.0635
 Frc consts  --      1.5796                 7.7452                 5.7206
 IR Inten    --      5.2183               140.2244                17.3862

                     58                     59                     60
                      A                      A                      A
 Frequencies --   3027.5097              3034.9123              3042.3567
 Red. masses --      1.0644                 1.0655                 1.0663
 Frc consts  --      5.7483                 5.7823                 5.8150
 IR Inten    --     27.5006               105.1542                50.0781

                     61                     62                     63
                      A                      A                      A
 Frequencies --   3048.3299              3055.7224              3068.4849
 Red. masses --      1.0415                 1.0931                 1.0681
 Frc consts  --      5.7023                 6.0138                 5.9254
 IR Inten    --     16.4222                13.4179                59.3210

                     64                     65                     66
                      A                      A                      A
 Frequencies --   3079.3804              3093.9198              3099.2523
 Red. masses --      1.0988                 1.0985                 1.1002
 Frc consts  --      6.1388                 6.1953                 6.2265
 IR Inten    --     33.3522                17.4675                22.9169

                     67                     68                     69
                      A                      A                      A
 Frequencies --   3102.0408              3106.7989              3151.3160
 Red. masses --      1.0996                 1.1028                 1.0984
 Frc consts  --      6.2344                 6.2713                 6.4269
 IR Inten    --     23.9269                66.8954                17.6193

                     70                     71                     72
                      A                      A                      A
 Frequencies --   3198.4986              3273.6645              3490.0665
 Red. masses --      1.0595                 1.1154                 1.0736
 Frc consts  --      6.3860                 7.0428                 7.7047
 IR Inten    --      2.6457                20.1876                 2.3160

 - Thermochemistry -
 -------------------
 Temperature   298.150 Kelvin.  Pressure   1.00000 Atm.
 Atom     1 has atomic number  6 and mass  12.00000

 Molecular mass:   140.13135 amu.
 Principal axes and moments of inertia in atomic units:
                           1         2         3
     Eigenvalues --   965.858281529.572331929.31976
           X            0.99978   0.01319  -0.01643
           Y           -0.01317   0.99991   0.00141
           Z            0.01645  -0.00120   0.99986
 This molecule is an asymmetric top.
 Rotational symmetry number  1.
 Warning -- assumption of classical behavior for rotation
           may cause significant error
 Rotational temperatures (Kelvin)      0.08968     0.05663     0.04489
 Rotational constants (GHZ):           1.86854     1.17990     0.93543
 Zero-point vibrational energy     628766.5 (Joules/Mol)
                                  150.27880 (Kcal/Mol)
 Warning -- explicit consideration of  15 degrees of freedom as
           vibrations may cause significant error
 Vibrational temperatures:     96.46   145.43   209.95   266.89   346.85
          (Kelvin)            410.57   489.87   508.89   515.85   648.50
                              670.95   735.07   758.86   819.90   859.78
                             1027.06  1029.74  1062.12  1100.71  1129.34
                             1219.19  1251.27  1331.48  1373.38  1384.98
                             1457.98  1488.55  1513.19  1540.75  1562.56
                             1615.03  1658.04  1702.73  1750.68  1811.80
                             1852.36  1895.81  1919.62  1937.84  1988.66
                             2004.72  2031.36  2044.74  2049.30  2071.30
                             2098.55  2123.48  2163.94  2170.15  2178.34
                             2181.53  2191.05  2191.43  2201.81  2226.14
                             2443.90  4347.31  4355.91  4366.56  4377.27
                             4385.87  4396.50  4414.87  4430.54  4451.46
                             4459.13  4463.14  4469.99  4534.04  4601.93
                             4710.07  5021.43

 Zero-point correction=                           0.239485 (Hartree/Particle)
 Thermal correction to Energy=                    0.249496
 Thermal correction to Enthalpy=                  0.250440
 Thermal correction to Gibbs Free Energy=         0.204714
 Sum of electronic and zero-point Energies=           -423.755114
 Sum of electronic and thermal Energies=              -423.745102
 Sum of electronic and thermal Enthalpies=            -423.744158
 Sum of electronic and thermal Free Energies=         -423.789884

                     E (Thermal)             CV                S
                      KCal/Mol        Cal/Mol-Kelvin    Cal/Mol-Kelvin
 Total                  156.561             39.890             96.238
 Electronic               0.000              0.000              0.000
 Translational            0.889              2.981             40.724
 Rotational               0.889              2.981             29.434
 Vibrational            154.784             33.929             26.080
 Vibration     1          0.598              1.970              4.238
 Vibration     2          0.604              1.948              3.433
 Vibration     3          0.617              1.907              2.725
 Vibration     4          0.632              1.860              2.272
 Vibration     5          0.658              1.777              1.795
 Vibration     6          0.683              1.701              1.501
 Vibration     7          0.720              1.595              1.210
 Vibration     8          0.730              1.568              1.150
 Vibration     9          0.733              1.558              1.128
 Vibration    10          0.810              1.359              0.794
 Vibration    11          0.824              1.325              0.748
 Vibration    12          0.866              1.226              0.631
 Vibration    13          0.882              1.189              0.593
 Vibration    14          0.926              1.096              0.505
 Vibration    15          0.955              1.037              0.454

                           ! Non-Optimized Parameters !

 1\1\GINC-NODE128\Freq\RB3LYP\6-31G(d)\C8H16N2\VSC10255\08-Dec-2020\0\\
 #N Geom=AllCheck Guess=TCheck SCRF=Check GenChk RB3LYP/6-31G(d) Freq\\
 CID_91256412_JID_744_neutraal\\0,1\C,0.9903070652,-0.1071193675,0.1240
 362274\C,0.1451268282,-0.4049634853,1.3413716989\C,-0.8364368918,0.448
 0324836,1.7018142879\N,0.4136356356,-1.6153367688,1.9816811301\C,1.742
 1509562,-2.214894861,1.9246646704\C,2.8436494866,-1.505531083,2.746618
 4143\C,2.3402107204,-0.7835442873,4.0123523139\N,1.3872510994,-1.49510
 0225,4.8631347488\C,-0.0105931898,-1.3763264936,4.4630726003\C,-0.3952

 Normal termination of Gaussian 16 at Tue Dec  8 12:44:06 2020.

 ----------------------------------------------------------------------
 # B3LYP/6-311++G(d,p) empiricaldispersion=gd3bj scf=xqc pop=npa geom=c
 heck
 ----------------------------------------------------------------------

 -------------------------------------
 CID_91256412_JID_744_Energie_neutraal
 -------------------------------------
 Structure from the checkpoint file:  "JID_744.chk"
 Charge =  0 Multiplicity = 1

 SCF Done:  E(RB3LYP) =  -424.116439675     A.U. after   13 cycles
 Normal termination of Gaussian 16 at Tue Dec  8 13:04:13 2020.

 ----------------------------------------------------------------------
 # B3LYP/6-311++G(d,p) empiricaldispersion=gd3bj scf=xqc pop=npa geom=c
 heck
 ----------------------------------------------------------------------

 -----------------------------------
 CID_91256412_JID_744_Energie_kation
 -----------------------------------
 Structure from the checkpoint file:  "JID_744.chk"
 Charge =  1 Multiplicity = 2

 SCF Done:  E(UB3LYP) =  -423.854923868     A.U. after   19 cycles
 Normal termination of Gaussian 16 at Tue Dec  8 13:11:32 2020.
 Gaussian 16:  ES64L-G16RevA.03 25-Dec-2016

 ----------------------------------
 CID_91256412_JID_744_Energie_anion
 ----------------------------------
 Structure from the checkpoint file:  "JID_744.chk"
 Charge = -1 Multiplicity = 2

                         Standard orientation:
 ---------------------------------------------------------------------
 Center     Atomic      Atomic             Coordinates (Angstroms)
 Number     Number       Type             X           Y           Z
 ---------------------------------------------------------------------
      1          6           0        2.532211    0.905678   -0.230457
      2          6           0        1.615683   -0.290149   -0.108301
      3          6           0        1.903690   -1.427251   -0.775415
      4          7           0        0.540206   -0.139867    0.767975
      5          6           0       -0.034118    1.174876    1.031184
      6          6           0       -0.851949    1.802360   -0.121864
      7          6           0       -1.557815    0.785044   -1.040351
      8          7           0       -2.263224   -0.326040   -0.403041
      9          6           0       -1.433503   -1.479237   -0.071644
     10          6           0       -0.358457   -1.259929    1.010004
     11          1           0        3.391375    0.652327   -0.854602
     12          1           0        2.903475    1.224036    0.751320
     13          1           0        2.032536    1.768205   -0.686830
     14          1           0        1.283142   -2.313828   -0.746748
     15          1           0        2.813580   -1.491083   -1.359738
     16          1           0        0.754999    1.868781    1.336577
     17          1           0       -0.681533    1.052106    1.905699
     18          1           0       -1.591846    2.485279    0.319416
     19          1           0       -0.204622    2.427011   -0.751968
     20          1           0       -2.266138    1.335579   -1.674650
     21          1           0       -0.818269    0.339941   -1.714995
     22          1           0       -2.792632   -0.008916    0.406980
     23          1           0       -0.953884   -1.804840   -1.000861
     24          1           0       -2.089727   -2.299040    0.250740
     25          1           0        0.241649   -2.169309    1.134579
     26          1           0       -0.855427   -1.073258    1.971602
 ---------------------------------------------------------------------

 SCF Done:  E(UB3LYP) =  -424.099590034     A.U. after   32 cycles

 The electronic state is 2-A.
 Alpha  occ. eigenvalues --  -14.21688 -14.18602 -10.10393 -10.08839 -10.08743
 Alpha  occ. eigenvalues --  -10.08460 -10.08117 -10.06069 -10.05401 -10.03353
 Alpha  occ. eigenvalues --   -0.84168  -0.78993  -0.67636  -0.67159  -0.59400
 Alpha  occ. eigenvalues --   -0.59084  -0.56014  -0.51417  -0.48055  -0.41910
 Alpha  occ. eigenvalues --   -0.39217  -0.38747  -0.36488  -0.35431  -0.33212
 Alpha  occ. eigenvalues --   -0.32338  -0.30935  -0.30455  -0.28987  -0.28479
 Alpha  occ. eigenvalues --   -0.27465  -0.26310  -0.25292  -0.23834  -0.23615
 Alpha  occ. eigenvalues --   -0.22500  -0.18533  -0.11595  -0.08815   0.04923
 Alpha virt. eigenvalues --    0.07136   0.07845   0.08303   0.09466   0.09973
 Alpha virt. eigenvalues --    0.10388   0.10668   0.11059   0.12465   0.12721
 Alpha virt. eigenvalues --    0.13363   0.13609   0.13832   0.14943   0.15520

  Beta  occ. eigenvalues --  -14.21687 -14.18575 -10.10390 -10.08819 -10.08711
  Beta  occ. eigenvalues --  -10.08448 -10.08107 -10.06030 -10.05369 -10.03342
  Beta  occ. eigenvalues --   -0.84151  -0.78946  -0.67599  -0.67118  -0.59350
  Beta  occ. eigenvalues --   -0.59031  -0.55960  -0.51362  -0.47983  -0.41856
  Beta  occ. eigenvalues --   -0.39180  -0.38708  -0.36436  -0.35381  -0.33167
  Beta  occ. eigenvalues --   -0.32301  -0.30887  -0.30405  -0.28957  -0.28440
  Beta  occ. eigenvalues --   -0.27424  -0.26276  -0.25252  -0.23793  -0.23571
  Beta  occ. eigenvalues --   -0.22459  -0.18494  -0.11548  -0.08779
  Beta virt. eigenvalues --    0.07351   0.08143   0.08487   0.08945   0.10106
  Beta virt. eigenvalues --    0.10360   0.10793   0.11260   0.11469   0.13011
  Beta virt. eigenvalues --    0.13224   0.13791   0.13966   0.14327   0.15366

 Mulliken charges and spin densities:
               1          2
     1  C    2.685373  -3.428413
     2  C   -2.180296   2.513796
     3  C    0.228207  -0.823344
     4  N    0.002365   0.188250
     5  C    0.372161  -0.738060
     6  C   -0.031121  -0.190375
     7  C    0.889499  -1.255130
     8  N   -0.260677   0.144506
     9  C    0.035086  -0.416105
    10  C    0.040771  -0.262562
    11  H    0.023548   0.112976
    12  H   -0.486013   0.670141
    13  H   -0.154873   0.300228
    14  H    0.194003  -0.109174
    15  H   -0.059510   0.175463
    16  H   -0.234953   0.395849
    17  H   -0.686145   0.868741
    18  H   -0.561772   0.721299
    19  H   -0.152668   0.289670
    20  H   -0.220433   0.419643
    21  H    0.137127  -0.008414
    22  H    0.024854   0.200114
    23  H    0.118671   0.036785
    24  H   -0.336578   0.494755
    25  H    0.037578   0.110044
    26  H   -0.424204   0.589316
 Sum of Mulliken charges =  -1.00000   1.00000

 Dipole moment (field-independent basis, Debye):
    X=              1.7427    Y=             -3.9117    Z=             -3.0670  Tot=              5.2674
 Quadrupole moment (field-independent basis, Debye-Ang):
   XX=           -118.7602   YY=           -106.1844   ZZ=           -100.7627
   XY=             -2.3054   XZ=              2.2159   YZ=             -2.4771

 Summary of Natural Population Analysis:

                                       Natural Population
                Natural  -----------------------------------------------
    Atom  No    Charge         Core      Valence    Rydberg      Total
 -----------------------------------------------------------------------
      C    1   -0.30189      0.99962     2.29624    0.00602     3.30189
      C    2    0.10902      0.99950     1.87807    0.01341     2.89098
      C    3   -0.27124      0.99953     2.26509    0.00662     3.27124
      N    4   -0.26420      0.99966     2.74921    0.01533     3.76420
      C    5   -0.08673      0.99960     2.07356    0.01358     3.08673
      C    6   -0.20525      0.99962     2.19651    0.00913     3.20525
      C    7   -0.08956      0.99962     2.07784    0.01211     3.08956
      N    8   -0.34136      0.99975     2.82923    0.01238     3.84136
      C    9   -0.09331      0.99961     2.08193    0.01177     3.09331
      C   10   -0.09129      0.99960     2.07966    0.01203     3.09129
      H   11    0.10337      0.00000     0.39574    0.00088     0.39663
      H   12    0.10585      0.00000     0.39280    0.00135     0.39415
      H   13    0.10540      0.00000     0.39310    0.00151     0.39460
      H   14    0.09260      0.00000     0.40640    0.00100     0.40740
      H   15    0.09424      0.00000     0.40498    0.00078     0.40576
      H   16    0.10248      0.00000     0.39553    0.00199     0.39752
      H   17    0.09962      0.00000     0.39767    0.00271     0.40038
      H   18    0.09923      0.00000     0.39787    0.00290     0.40077
      H   19    0.09622      0.00000     0.40224    0.00154     0.40378
      H   20    0.09218      0.00000     0.40667    0.00115     0.40782
      H   21    0.09270      0.00000     0.40561    0.00169     0.40730
      H   22    0.17351      0.00000     0.32241    0.00408     0.32649
      H   23    0.09146      0.00000     0.40722    0.00132     0.40854
      H   24    0.09299      0.00000     0.40592    0.00109     0.40701
      H   25    0.09786      0.00000     0.40080    0.00134     0.40214
      H   26    0.09612      0.00000     0.40192    0.00196     0.40388
 =======================================================================
   * Total *   -0.00000      9.99611    28.86422    0.13966    39.00000

 Normal termination of Gaussian 16 at Tue Dec  8 13:23:54 2020.
