 Gaussian 16, Revision A.03,

 -----------------------------------------------------------
 # opt freq B3LYP/6-31G(d) empiricaldispersion=gd3bj scf=xqc
 -----------------------------------------------------------

 ------------------------------
 CID_79104330_JID_7494_neutraal
 ------------------------------
 Symbolic Z-matrix:
 Charge =  0 Multiplicity = 1

 SCF Done:  E(RB3LYP) =  -767.388546554     A.U. after   15 cycles
 SCF Done:  E(RB3LYP) =  -767.393995136     A.U. after   13 cycles
 SCF Done:  E(RB3LYP) =  -767.394962303     A.U. after   13 cycles
 SCF Done:  E(RB3LYP) =  -767.396010932     A.U. after   13 cycles
 SCF Done:  E(RB3LYP) =  -767.396257585     A.U. after   12 cycles
 SCF Done:  E(RB3LYP) =  -767.395722998     A.U. after   13 cycles
 SCF Done:  E(RB3LYP) =  -767.396414145     A.U. after   12 cycles
 SCF Done:  E(RB3LYP) =  -767.396789128     A.U. after   11 cycles
 SCF Done:  E(RB3LYP) =  -767.396840757     A.U. after   12 cycles
 SCF Done:  E(RB3LYP) =  -767.396878125     A.U. after   10 cycles
 SCF Done:  E(RB3LYP) =  -767.396891275     A.U. after   10 cycles
 SCF Done:  E(RB3LYP) =  -767.396893966     A.U. after    8 cycles
 SCF Done:  E(RB3LYP) =  -767.396894834     A.U. after    8 cycles
 SCF Done:  E(RB3LYP) =  -767.396895023     A.U. after    7 cycles
 SCF Done:  E(RB3LYP) =  -767.396895089     A.U. after    7 cycles
 Optimization completed.
    -- Stationary point found.
 Normal termination of Gaussian 16 at Mon Dec 14 16:47:31 2020.

 --------------------------------------------------------------------
 #N Geom=AllCheck Guess=TCheck SCRF=Check GenChk RB3LYP/6-31G(d) Freq
 --------------------------------------------------------------------

 Structure from the checkpoint file:  "JID_7494.chk"
 ------------------------------
 CID_79104330_JID_7494_neutraal
 ------------------------------
 Charge =  0 Multiplicity = 1

 SCF Done:  E(RB3LYP) =  -767.396895089     A.U. after    1 cycles

  Exact polarizability: 163.791   2.942 143.916   8.234  -6.318 128.747
 Approx polarizability: 228.191   6.430 198.595  21.511 -14.044 220.707

                      1                      2                      3
                      A                      A                      A
 Frequencies --     26.2397                41.5771                56.8301
 Red. masses --      4.2957                 3.9373                 3.2956
 Frc consts  --      0.0017                 0.0040                 0.0063
 IR Inten    --      0.4018                 2.2575                 0.3674

                      4                      5                      6
                      A                      A                      A
 Frequencies --     62.8568                78.1428                84.0473
 Red. masses --      4.8790                 3.3093                 3.4393
 Frc consts  --      0.0114                 0.0119                 0.0143
 IR Inten    --      3.9126                 1.2135                 0.3638

                      7                      8                      9
                      A                      A                      A
 Frequencies --     96.4464               122.6913               153.8537
 Red. masses --      2.6546                 3.9133                 1.2710
 Frc consts  --      0.0145                 0.0347                 0.0177
 IR Inten    --      0.9267                 0.7397                 0.6440

                     10                     11                     12
                      A                      A                      A
 Frequencies --    164.0775               189.2580               225.3779
 Red. masses --      3.5108                 3.3859                 3.2008
 Frc consts  --      0.0557                 0.0715                 0.0958
 IR Inten    --      2.1621                 3.4697                 1.1370

                     13                     14                     15
                      A                      A                      A
 Frequencies --    249.7240               258.8051               303.8872
 Red. masses --      1.2321                 2.7130                 3.0347
 Frc consts  --      0.0453                 0.1071                 0.1651
 IR Inten    --      1.2126                 0.8973                 7.7932

                     16                     17                     18
                      A                      A                      A
 Frequencies --    322.2719               334.8969               344.2977
 Red. masses --      2.0019                 3.8630                 1.4069
 Frc consts  --      0.1225                 0.2553                 0.0983
 IR Inten    --     17.5568                 0.4770                88.0361

                     19                     20                     21
                      A                      A                      A
 Frequencies --    393.2500               401.2172               429.7054
 Red. masses --      4.1481                 2.8903                 2.4419
 Frc consts  --      0.3780                 0.2741                 0.2657
 IR Inten    --     14.8172                 7.5895                 3.2156

                     22                     23                     24
                      A                      A                      A
 Frequencies --    485.2057               495.0680               520.3274
 Red. masses --      3.3058                 3.3213                 3.3582
 Frc consts  --      0.4585                 0.4796                 0.5357
 IR Inten    --      2.0535                 4.2563                 4.3512

                     25                     26                     27
                      A                      A                      A
 Frequencies --    589.8801               618.4180               658.8804
 Red. masses --      4.3713                 4.8262                 3.6896
 Frc consts  --      0.8962                 1.0875                 0.9437
 IR Inten    --      8.6863                 5.2056                14.6720

                     28                     29                     30
                      A                      A                      A
 Frequencies --    668.0610               679.2496               732.1813
 Red. masses --      4.2722                 1.2878                 2.5816
 Frc consts  --      1.1234                 0.3501                 0.8154
 IR Inten    --      2.6632                 7.5992                 4.2761

                     31                     32                     33
                      A                      A                      A
 Frequencies --    742.8144               786.9196               792.3883
 Red. masses --      2.2513                 1.3806                 1.7044
 Frc consts  --      0.7319                 0.5037                 0.6305
 IR Inten    --     27.2112                24.1973                10.2442

                     34                     35                     36
                      A                      A                      A
 Frequencies --    799.4853               809.8591               822.8247
 Red. masses --      1.2708                 2.1812                 1.3420
 Frc consts  --      0.4786                 0.8429                 0.5353
 IR Inten    --     11.3640                 3.8433                 7.7524

                     37                     38                     39
                      A                      A                      A
 Frequencies --    839.2352               850.0588               926.2431
 Red. masses --      1.9134                 1.3806                 2.4558
 Frc consts  --      0.7940                 0.5878                 1.2413
 IR Inten    --     19.8447                 9.8217                 1.1999

                     40                     41                     42
                      A                      A                      A
 Frequencies --    953.5537               972.0478               990.5117
 Red. masses --      3.6168                 3.5899                 2.0906
 Frc consts  --      1.9376                 1.9985                 1.2085
 IR Inten    --      2.9711                17.3571                 9.5531

                     43                     44                     45
                      A                      A                      A
 Frequencies --   1013.2767              1034.5434              1040.1359
 Red. masses --      2.8087                 2.8773                 2.9899
 Frc consts  --      1.6991                 1.8144                 1.9058
 IR Inten    --      6.0700                 9.5152                12.3699

                     46                     47                     48
                      A                      A                      A
 Frequencies --   1060.9027              1067.7619              1092.5970
 Red. masses --      3.9681                 1.2759                 1.3653
 Frc consts  --      2.6314                 0.8571                 0.9603
 IR Inten    --     99.7693                16.9971                 1.3103

                     49                     50                     51
                      A                      A                      A
 Frequencies --   1100.7160              1104.3924              1121.1536
 Red. masses --      1.3299                 1.7250                 1.6327
 Frc consts  --      0.9493                 1.2396                 1.2091
 IR Inten    --     17.0690                 2.7061                23.7022

                     52                     53                     54
                      A                      A                      A
 Frequencies --   1133.4408              1153.7206              1158.6371
 Red. masses --      1.3980                 1.2566                 1.1529
 Frc consts  --      1.0582                 0.9855                 0.9119
 IR Inten    --      1.0016                 8.5429                 4.9994

                     55                     56                     57
                      A                      A                      A
 Frequencies --   1182.9042              1193.8733              1216.5843
 Red. masses --      1.5889                 1.5921                 1.3725
 Frc consts  --      1.3099                 1.3370                 1.1969
 IR Inten    --     25.2707                75.2290                 1.2977

                     58                     59                     60
                      A                      A                      A
 Frequencies --   1233.3067              1239.9635              1267.6753
 Red. masses --      1.5061                 1.8629                 1.4625
 Frc consts  --      1.3497                 1.6875                 1.3847
 IR Inten    --      1.8570                 4.1820                 6.3010

                     61                     62                     63
                      A                      A                      A
 Frequencies --   1273.1023              1286.8374              1342.6504
 Red. masses --      2.9409                 1.4294                 1.6376
 Frc consts  --      2.8084                 1.3946                 1.7393
 IR Inten    --     11.6120                 8.7925                34.3051

                     64                     65                     66
                      A                      A                      A
 Frequencies --   1347.4151              1359.5531              1386.2166
 Red. masses --      1.5279                 1.5757                 3.9677
 Frc consts  --      1.6344                 1.7160                 4.4921
 IR Inten    --     70.9674                20.7332                13.8397

                     67                     68                     69
                      A                      A                      A
 Frequencies --   1407.4473              1409.1398              1421.2006
 Red. masses --      1.7641                 1.2587                 1.8979
 Frc consts  --      2.0589                 1.4726                 2.2586
 IR Inten    --      7.8351                 1.6515                43.3186

                     70                     71                     72
                      A                      A                      A
 Frequencies --   1434.8092              1438.2655              1449.1641
 Red. masses --      2.6286                 1.3130                 1.8845
 Frc consts  --      3.1883                 1.6003                 2.3318
 IR Inten    --     13.6961                 8.0481                36.1368

                     73                     74                     75
                      A                      A                      A
 Frequencies --   1458.6312              1486.1652              1494.5655
 Red. masses --      2.4427                 1.0937                 1.1936
 Frc consts  --      3.0620                 1.4232                 1.5709
 IR Inten    --     69.9425                 4.9826                 6.2730

                     76                     77                     78
                      A                      A                      A
 Frequencies --   1506.1926              1513.6535              1524.6946
 Red. masses --      1.0863                 1.1668                 1.1425
 Frc consts  --      1.4520                 1.5751                 1.5648
 IR Inten    --      9.7954                 9.3903                 8.9787

                     79                     80                     81
                      A                      A                      A
 Frequencies --   1526.5640              1526.9477              1534.9938
 Red. masses --      1.2430                 1.0739                 1.1403
 Frc consts  --      1.7067                 1.4752                 1.5830
 IR Inten    --      3.6593                13.0291                10.2989

                     82                     83                     84
                      A                      A                      A
 Frequencies --   1548.0082              1550.3568              1602.7600
 Red. masses --      1.4707                 1.6828                 4.9562
 Frc consts  --      2.0765                 2.3832                 7.5012
 IR Inten    --     50.9950                33.5963                 8.6727

                     85                     86                     87
                      A                      A                      A
 Frequencies --   1759.7097              3053.5294              3057.9267
 Red. masses --      9.5540                 1.0406                 1.0362
 Frc consts  --     17.4308                 5.7168                 5.7088
 IR Inten    --    263.3042                17.1005                21.7518

                     88                     89                     90
                      A                      A                      A
 Frequencies --   3060.5730              3067.2885              3081.6811
 Red. masses --      1.0852                 1.0685                 1.0587
 Frc consts  --      5.9893                 5.9228                 5.9237
 IR Inten    --     32.7068                37.1173                23.2713

                     91                     92                     93
                      A                      A                      A
 Frequencies --   3117.7523              3122.6820              3131.9643
 Red. masses --      1.1001                 1.1022                 1.1072
 Frc consts  --      6.3004                 6.3325                 6.3987
 IR Inten    --     24.5399                36.3912                 9.0960

                     94                     95                     96
                      A                      A                      A
 Frequencies --   3134.6344              3144.9687              3155.0298
 Red. masses --      1.1002                 1.0534                 1.0653
 Frc consts  --      6.3695                 6.1389                 6.2479
 IR Inten    --     24.2823                13.7051                18.9442

                     97                     98                     99
                      A                      A                      A
 Frequencies --   3157.8458              3161.3491              3166.9010
 Red. masses --      1.0981                 1.0796                 1.0994
 Frc consts  --      6.4515                 6.3572                 6.4962
 IR Inten    --     11.7673                16.7854                16.3141

                    100                    101                    102
                      A                      A                      A
 Frequencies --   3225.0631              3243.9895              3258.3144
 Red. masses --      1.1182                 1.1146                 1.0890
 Frc consts  --      6.8522                 6.9108                 6.8115
 IR Inten    --      7.7138                15.5303                 1.5762

                    103                    104                    105
                      A                      A                      A
 Frequencies --   3269.4826              3277.1230              3726.1581
 Red. masses --      1.0961                 1.1037                 1.0658
 Frc consts  --      6.9032                 6.9839                 8.7183
 IR Inten    --      0.0419                 3.4589                 9.2890

 - Thermochemistry -
 -------------------
 Temperature   298.150 Kelvin.  Pressure   1.00000 Atm.
 Atom     1 has atomic number  6 and mass  12.00000

 Molecular mass:   236.15248 amu.
 Principal axes and moments of inertia in atomic units:
                           1         2         3
     Eigenvalues --  2521.158885440.274926732.69289
           X            0.99998  -0.00470  -0.00332
           Y            0.00466   0.99991  -0.01275
           Z            0.00338   0.01274   0.99991
 This molecule is an asymmetric top.
 Rotational symmetry number  1.
 Warning -- assumption of classical behavior for rotation
           may cause significant error
 Rotational temperatures (Kelvin)      0.03435     0.01592     0.01286
 Rotational constants (GHZ):           0.71584     0.33174     0.26806
 Zero-point vibrational energy     841522.4 (Joules/Mol)
                                  201.12867 (Kcal/Mol)
 Warning -- explicit consideration of  26 degrees of freedom as
           vibrations may cause significant error
 Vibrational temperatures:     37.75    59.82    81.77    90.44   112.43
          (Kelvin)            120.93   138.76   176.53   221.36   236.07
                              272.30   324.27   359.30   372.36   437.23
                              463.68   481.84   495.37   565.80   577.26
                              618.25   698.10   712.29   748.64   848.71
                              889.77   947.98   961.19   977.29  1053.45
                             1068.74  1132.20  1140.07  1150.28  1165.21
                             1183.86  1207.47  1223.04  1332.66  1371.95
                             1398.56  1425.13  1457.88  1488.48  1496.52
                             1526.40  1536.27  1572.00  1583.68  1588.97
                             1613.09  1630.77  1659.95  1667.02  1701.94
                             1717.72  1750.39  1774.45  1784.03  1823.90
                             1831.71  1851.47  1931.77  1938.63  1956.09
                             1994.46  2025.00  2027.44  2044.79  2064.37
                             2069.34  2085.02  2098.65  2138.26  2150.35
                             2167.08  2177.81  2193.70  2196.39  2196.94
                             2208.51  2227.24  2230.62  2306.01  2531.83
                             4393.35  4399.67  4403.48  4413.14  4433.85
                             4485.75  4492.84  4506.20  4510.04  4524.91
                             4539.38  4543.44  4548.48  4556.46  4640.15
                             4667.38  4687.99  4704.06  4715.05  5361.11

 Zero-point correction=                           0.320519 (Hartree/Particle)
 Thermal correction to Energy=                    0.338293
 Thermal correction to Enthalpy=                  0.339237
 Thermal correction to Gibbs Free Energy=         0.273699
 Sum of electronic and zero-point Energies=           -767.076376
 Sum of electronic and thermal Energies=              -767.058602
 Sum of electronic and thermal Enthalpies=            -767.057658
 Sum of electronic and thermal Free Energies=         -767.123197

                     E (Thermal)             CV                S
                      KCal/Mol        Cal/Mol-Kelvin    Cal/Mol-Kelvin
 Total                  212.282             66.443            137.938
 Electronic               0.000              0.000              0.000
 Translational            0.889              2.981             42.279
 Rotational               0.889              2.981             32.890
 Vibrational            210.505             60.481             62.768
 Vibration     1          0.593              1.985              6.095
 Vibration     2          0.594              1.981              5.182
 Vibration     3          0.596              1.975              4.564
 Vibration     4          0.597              1.972              4.365
 Vibration     5          0.599              1.964              3.937
 Vibration     6          0.601              1.960              3.794
 Vibration     7          0.603              1.952              3.525
 Vibration     8          0.610              1.930              3.058
 Vibration     9          0.619              1.898              2.624
 Vibration    10          0.623              1.887              2.502
 Vibration    11          0.633              1.855              2.235
 Vibration    12          0.650              1.802              1.915
 Vibration    13          0.663              1.763              1.733
 Vibration    14          0.668              1.748              1.670
 Vibration    15          0.695              1.666              1.395
 Vibration    16          0.707              1.631              1.299
 Vibration    17          0.716              1.606              1.236
 Vibration    18          0.723              1.587              1.192
 Vibration    19          0.760              1.485              0.988
 Vibration    20          0.767              1.467              0.958
 Vibration    21          0.791              1.406              0.860
 Vibration    22          0.841              1.283              0.696
 Vibration    23          0.851              1.261              0.671
 Vibration    24          0.875              1.205              0.609
 Vibration    25          0.947              1.053              0.467
 Vibration    26          0.978              0.993              0.419

                           ! Non-Optimized Parameters !
 Normal termination of Gaussian 16 at Mon Dec 14 17:04:16 2020.

 ----------------------------------------------------------------------
 # B3LYP/6-311++G(d,p) empiricaldispersion=gd3bj scf=xqc pop=npa geom=c
 heck
 ----------------------------------------------------------------------

 --------------------------------------
 CID_79104330_JID_7494_Energie_neutraal
 --------------------------------------
 Structure from the checkpoint file:  "JID_7494.chk"
 Charge =  0 Multiplicity = 1

 SCF Done:  E(RB3LYP) =  -767.619756517     A.U. after   15 cycles
 Normal termination of Gaussian 16 at Mon Dec 14 17:12:43 2020.

 ----------------------------------------------------------------------
 # B3LYP/6-311++G(d,p) empiricaldispersion=gd3bj scf=xqc pop=npa geom=c
 heck
 ----------------------------------------------------------------------

 ------------------------------------
 CID_79104330_JID_7494_Energie_kation
 ------------------------------------
 Structure from the checkpoint file:  "JID_7494.chk"
 Charge =  1 Multiplicity = 2

 SCF Done:  E(UB3LYP) =  -767.326674079     A.U. after   26 cycles
 Normal termination of Gaussian 16 at Mon Dec 14 17:33:30 2020.
 Gaussian 16:  ES64L-G16RevA.03 25-Dec-2016

 ----------------------------------------------------------------------
 # B3LYP/6-311++G(d,p) empiricaldispersion=gd3bj scf=xqc pop=npa geom=c
 heck
 ----------------------------------------------------------------------

 -----------------------------------
 CID_79104330_JID_7494_Energie_anion
 -----------------------------------
 Structure from the checkpoint file:  "JID_7494.chk"
 Charge = -1 Multiplicity = 2

                         Standard orientation:
 ---------------------------------------------------------------------
 Center     Atomic      Atomic             Coordinates (Angstroms)
 Number     Number       Type             X           Y           Z
 ---------------------------------------------------------------------
      1          6           0       -2.373106    2.494700   -0.347630
      2          6           0       -3.278355    1.420084    0.256072
      3          7           0       -2.571768    0.164939    0.528846
      4          6           0       -1.743323    0.114810    1.727077
      5          6           0       -2.518896   -0.756149   -0.479944
      6          8           0       -3.110566   -0.608707   -1.546010
      7          6           0       -1.687567   -2.030394   -0.254943
      8          7           0       -0.274654   -1.746659   -0.073080
      9          6           0        0.538721   -2.265550    0.908138
     10          6           0        1.789638   -1.704192    0.769400
     11          6           0        1.739902   -0.803815   -0.337621
     12          6           0        0.451512   -0.858802   -0.837351
     13          6           0        2.870593    0.067030   -0.826357
     14          6           0        2.776472    1.522649   -0.379086
     15          6           0        1.473117    2.245303   -0.179489
     16          6           0        2.311086    1.868699    1.018430
     17          8           0        4.142842   -0.455581   -0.428946
     18          1           0       -1.541279    2.743811    0.319665
     19          1           0       -2.943189    3.411360   -0.535302
     20          1           0       -1.962365    2.146903   -1.300489
     21          1           0       -3.712066    1.765672    1.201294
     22          1           0       -4.092650    1.186552   -0.430768
     23          1           0       -2.241442    0.686654    2.515277
     24          1           0       -1.624144   -0.909440    2.080560
     25          1           0       -0.743968    0.535555    1.562456
     26          1           0       -2.038375   -2.581711    0.622891
     27          1           0       -1.852323   -2.649902   -1.140138
     28          1           0        0.158805   -2.997570    1.606627
     29          1           0        2.661342   -1.935194    1.364793
     30          1           0       -0.009228   -0.354167   -1.674503
     31          1           0        2.892927    0.046045   -1.922230
     32          1           0        3.599608    2.118068   -0.769058
     33          1           0        1.423731    3.290708   -0.470497
     34          1           0        0.556718    1.687557   -0.339630
     35          1           0        1.946798    1.054127    1.639293
     36          1           0        2.830912    2.654813    1.558383
     37          1           0        4.258192   -0.199733    0.500497
 ---------------------------------------------------------------------

 SCF Done:  E(UB3LYP) =  -767.609140705     A.U. after   33 cycles
 SCF Done:  E(UB3LYP) =  -767.609140705     a.u. after    1 cycles

 The electronic state is 2-A.
 Alpha  occ. eigenvalues --  -19.03529 -19.00192 -14.27796 -14.25589 -10.18611
 Alpha  occ. eigenvalues --  -10.14265 -10.13474 -10.11159 -10.10653 -10.10273
 Alpha  occ. eigenvalues --  -10.10238 -10.09261 -10.08352 -10.08227 -10.07663
 Alpha  occ. eigenvalues --  -10.07368 -10.06866  -0.95489  -0.93863  -0.90210
 Alpha  occ. eigenvalues --   -0.84820  -0.77400  -0.72888  -0.67446  -0.65372
 Alpha  occ. eigenvalues --   -0.63033  -0.61543  -0.59510  -0.55086  -0.51489
 Alpha  occ. eigenvalues --   -0.50542  -0.48224  -0.47075  -0.45812  -0.45004
 Alpha  occ. eigenvalues --   -0.42400  -0.40472  -0.39428  -0.39285  -0.38013
 Alpha  occ. eigenvalues --   -0.36548  -0.36075  -0.35246  -0.34562  -0.33873
 Alpha  occ. eigenvalues --   -0.32611  -0.31567  -0.31430  -0.30780  -0.29478
 Alpha  occ. eigenvalues --   -0.29431  -0.28323  -0.28110  -0.27667  -0.27564
 Alpha  occ. eigenvalues --   -0.26063  -0.25961  -0.21932  -0.20707  -0.19012
 Alpha  occ. eigenvalues --   -0.17748  -0.15775  -0.14867  -0.13034   0.04039
 Alpha virt. eigenvalues --    0.05848   0.06268   0.07177   0.07856   0.08271
 Alpha virt. eigenvalues --    0.08615   0.08833   0.09333   0.09839   0.10309
 Alpha virt. eigenvalues --    0.10688   0.11272   0.11424   0.11874   0.12507

  Beta  occ. eigenvalues --  -19.03522 -19.00190 -14.27798 -14.25586 -10.18610
  Beta  occ. eigenvalues --  -10.14265 -10.13450 -10.11139 -10.10605 -10.10252
  Beta  occ. eigenvalues --  -10.10234 -10.09257 -10.08343 -10.08204 -10.07662
  Beta  occ. eigenvalues --  -10.07350 -10.06859  -0.95484  -0.93851  -0.90204
  Beta  occ. eigenvalues --   -0.84806  -0.77384  -0.72870  -0.67418  -0.65351
  Beta  occ. eigenvalues --   -0.62999  -0.61487  -0.59487  -0.55043  -0.51447
  Beta  occ. eigenvalues --   -0.50520  -0.48194  -0.47048  -0.45776  -0.44961
  Beta  occ. eigenvalues --   -0.42379  -0.40434  -0.39391  -0.39246  -0.37984
  Beta  occ. eigenvalues --   -0.36528  -0.36055  -0.35220  -0.34532  -0.33848
  Beta  occ. eigenvalues --   -0.32578  -0.31546  -0.31392  -0.30739  -0.29460
  Beta  occ. eigenvalues --   -0.29409  -0.28304  -0.28083  -0.27646  -0.27542
  Beta  occ. eigenvalues --   -0.26045  -0.25944  -0.21920  -0.20687  -0.19003
  Beta  occ. eigenvalues --   -0.17738  -0.15751  -0.14860  -0.13023
  Beta virt. eigenvalues --    0.06226   0.06794   0.07028   0.07511   0.08283
  Beta virt. eigenvalues --    0.08758   0.08971   0.09257   0.09475   0.10071
  Beta virt. eigenvalues --    0.10687   0.10979   0.11433   0.11766   0.12145

 Mulliken charges and spin densities:
               1          2
     1  C   -0.537835   0.098014
     2  C    0.525124  -0.748186
     3  N   -0.095289   0.195866
     4  C    0.381790  -0.806966
     5  C   -0.603739   0.470677
     6  O   -0.295644   0.014517
     7  C    0.915910  -1.256817
     8  N    0.126071   0.144433
     9  C    0.021384  -0.397512
    10  C    0.835844  -0.493347
    11  C   -0.172350   0.464630
    12  C   -0.847873   0.100440
    13  C    0.277484  -1.102686
    14  C   -0.284119   0.351796
    15  C    0.199554  -0.489414
    16  C   -0.033316  -0.371526
    17  O   -0.171704   0.010142
    18  H    0.066421   0.092222
    19  H   -0.284253   0.445293
    20  H    0.141131   0.042374
    21  H   -0.218981   0.384275
    22  H    0.131879   0.035200
    23  H   -0.884838   1.065285
    24  H   -0.383983   0.558440
    25  H    0.721337  -0.509046
    26  H   -0.446089   0.644198
    27  H    0.232262  -0.020105
    28  H   -0.610425   0.790348
    29  H   -0.065140   0.212823
    30  H    0.218896  -0.019178
    31  H    0.191707   0.003543
    32  H    0.098277   0.133367
    33  H   -0.140384   0.315275
    34  H    0.397364  -0.367118
    35  H   -0.080522   0.250916
    36  H   -0.462082   0.649960
    37  H    0.136131   0.107871
 Sum of Mulliken charges =  -1.00000   1.00000

 Dipole moment (field-independent basis, Debye):
    X=              2.4165    Y=             -0.1138    Z=             -5.2754  Tot=              5.8036
 Quadrupole moment (field-independent basis, Debye-Ang):
   XX=           -176.1205   YY=           -159.6732   ZZ=           -151.9833
   XY=             -0.9725   XZ=              6.0403   YZ=             -1.5418

 Summary of Natural Population Analysis:

                                       Natural Population
                Natural  -----------------------------------------------
    Atom  No    Charge         Core      Valence    Rydberg      Total
 -----------------------------------------------------------------------
      C    1   -0.29208      0.99966     2.28748    0.00494     3.29208
      C    2   -0.08475      0.99961     2.07458    0.01056     3.08475
      N    3   -0.25085      0.99964     2.73765    0.01356     3.75085
      C    4   -0.17812      0.99962     2.16948    0.00902     3.17812
      C    5    0.33766      0.99963     1.63951    0.02320     2.66234
      O    6   -0.32697      0.99988     3.32195    0.00514     4.32697
      C    7   -0.11737      0.99957     2.10665    0.01115     3.11737
      N    8   -0.20331      0.99965     2.69319    0.01047     3.70331
      C    9   -0.01098      0.99955     1.99870    0.01273     3.01098
      C   10   -0.14306      0.99951     2.13362    0.00993     3.14306
      C   11   -0.06636      0.99951     2.05509    0.01176     3.06636
      C   12   -0.02419      0.99949     2.01448    0.01022     3.02419
      C   13    0.06000      0.99949     1.92619    0.01432     2.94000
      C   14   -0.12441      0.99958     2.11348    0.01134     3.12441
      C   15   -0.20043      0.99961     2.19152    0.00930     3.20043
      C   16   -0.20461      0.99962     2.19493    0.01006     3.20461
      O   17   -0.36815      0.99990     3.36226    0.00599     4.36815
      H   18    0.10073      0.00000     0.39803    0.00124     0.39927
      H   19    0.10029      0.00000     0.39889    0.00082     0.39971
      H   20    0.10058      0.00000     0.39844    0.00098     0.39942
      H   21    0.09595      0.00000     0.40270    0.00135     0.40405
      H   22    0.10862      0.00000     0.39024    0.00114     0.39138
      H   23    0.10295      0.00000     0.39505    0.00200     0.39705
      H   24    0.10454      0.00000     0.39290    0.00256     0.39546
      H   25    0.09753      0.00000     0.39989    0.00258     0.40247
      H   26    0.11364      0.00000     0.38454    0.00182     0.38636
      H   27    0.10837      0.00000     0.39059    0.00104     0.39163
      H   28    0.10496      0.00000     0.39309    0.00196     0.39504
      H   29    0.10769      0.00000     0.39135    0.00096     0.39231
      H   30    0.10580      0.00000     0.39316    0.00105     0.39420
      H   31    0.09095      0.00000     0.40751    0.00154     0.40905
      H   32    0.10509      0.00000     0.39388    0.00103     0.39491
      H   33    0.10286      0.00000     0.39622    0.00092     0.39714
      H   34    0.10751      0.00000     0.39074    0.00174     0.39249
      H   35    0.10840      0.00000     0.38989    0.00171     0.39160
      H   36    0.10456      0.00000     0.39408    0.00136     0.39544
      H   37    0.22698      0.00000     0.27013    0.00289     0.27302
 =======================================================================
   * Total *    0.00000     16.99353    46.79212    0.21435    64.00000

 Normal termination of Gaussian 16 at Mon Dec 14 17:59:43 2020.
