 Gaussian 16, Revision A.03,

 -----------------------------------------------------------
 # opt freq B3LYP/6-31G(d) empiricaldispersion=gd3bj scf=xqc
 -----------------------------------------------------------

 -------------------------------
 CID_105156801_JID_7697_neutraal
 -------------------------------
 Symbolic Z-matrix:
 Charge =  0 Multiplicity = 1

 SCF Done:  E(RB3LYP) =  -1107.60698825     A.U. after   16 cycles
 SCF Done:  E(RB3LYP) =  -1107.60664196     A.U. after   14 cycles
 SCF Done:  E(RB3LYP) =  -1107.61253281     A.U. after   12 cycles
 SCF Done:  E(RB3LYP) =  -1107.61572285     A.U. after   15 cycles
 SCF Done:  E(RB3LYP) =  -1107.61561752     A.U. after   13 cycles
 SCF Done:  E(RB3LYP) =  -1107.61650812     A.U. after   13 cycles
 SCF Done:  E(RB3LYP) =  -1107.61690244     A.U. after   12 cycles
 SCF Done:  E(RB3LYP) =  -1107.61708742     A.U. after   11 cycles
 SCF Done:  E(RB3LYP) =  -1107.61712171     A.U. after   11 cycles
 SCF Done:  E(RB3LYP) =  -1107.61717269     A.U. after   11 cycles
 SCF Done:  E(RB3LYP) =  -1107.61731822     A.U. after    8 cycles
 SCF Done:  E(RB3LYP) =  -1107.61731831     A.U. after    8 cycles
 SCF Done:  E(RB3LYP) =  -1107.61731834     A.U. after    8 cycles
 SCF Done:  E(RB3LYP) =  -1107.61731835     A.U. after    7 cycles
 Optimization completed.
    -- Stationary point found.
 Normal termination of Gaussian 16 at Mon Dec 14 16:52:46 2020.

 --------------------------------------------------------------------
 #N Geom=AllCheck Guess=TCheck SCRF=Check GenChk RB3LYP/6-31G(d) Freq
 --------------------------------------------------------------------

 Structure from the checkpoint file:  "JID_7697.chk"
 -------------------------------
 CID_105156801_JID_7697_neutraal
 -------------------------------
 Charge =  0 Multiplicity = 1

 SCF Done:  E(RB3LYP) =  -1107.61731835     A.U. after    1 cycles

  Exact polarizability: 196.362   5.968 155.237   4.324  -1.024 127.082
 Approx polarizability: 282.621   3.471 253.688  13.676  -9.928 194.621

                      1                      2                      3
                      A                      A                      A
 Frequencies --     28.0612                31.8766                47.8306
 Red. masses --      3.0682                 2.3512                 4.5366
 Frc consts  --      0.0014                 0.0014                 0.0061
 IR Inten    --      0.2805                 0.2940                 0.1547

                      4                      5                      6
                      A                      A                      A
 Frequencies --     69.5643                77.1833                99.1037
 Red. masses --      2.7773                 3.4242                 4.4657
 Frc consts  --      0.0079                 0.0120                 0.0258
 IR Inten    --      0.2305                 0.9186                 0.4420

                      7                      8                      9
                      A                      A                      A
 Frequencies --    117.6807               138.4866               146.9334
 Red. masses --      3.8708                 4.3446                 2.9821
 Frc consts  --      0.0316                 0.0491                 0.0379
 IR Inten    --      1.3069                 0.4770                 0.5108

                     10                     11                     12
                      A                      A                      A
 Frequencies --    194.1322               217.4857               236.5775
 Red. masses --      4.2028                 1.3487                 3.7927
 Frc consts  --      0.0933                 0.0376                 0.1251
 IR Inten    --      0.9764                 0.7012                 5.3402

                     13                     14                     15
                      A                      A                      A
 Frequencies --    251.1205               259.1698               273.2794
 Red. masses --      1.2857                 1.9694                 4.1284
 Frc consts  --      0.0478                 0.0779                 0.1817
 IR Inten    --      0.1986                 1.0105                 2.1848

                     16                     17                     18
                      A                      A                      A
 Frequencies --    296.7949               310.9042               350.7783
 Red. masses --      2.8685                 3.1898                 1.8489
 Frc consts  --      0.1489                 0.1817                 0.1340
 IR Inten    --      2.2974                 0.6393                 1.2500

                     19                     20                     21
                      A                      A                      A
 Frequencies --    368.0875               374.7395               458.7290
 Red. masses --      2.2496                 1.2430                 3.1003
 Frc consts  --      0.1796                 0.1028                 0.3844
 IR Inten    --     11.0215                41.0352                 2.7945

                     22                     23                     24
                      A                      A                      A
 Frequencies --    482.1585               532.1456               546.8495
 Red. masses --      4.6384                 5.7332                 2.4657
 Frc consts  --      0.6353                 0.9566                 0.4344
 IR Inten    --      4.6838                 9.9245                 4.1884

                     25                     26                     27
                      A                      A                      A
 Frequencies --    563.0643               587.6076               595.7144
 Red. masses --      3.7060                 2.9033                 6.4437
 Frc consts  --      0.6923                 0.5906                 1.3473
 IR Inten    --      6.8084                 3.2023                 1.8445

                     28                     29                     30
                      A                      A                      A
 Frequencies --    599.5467               679.0823               698.6093
 Red. masses --      4.6210                 3.2754                 4.7836
 Frc consts  --      0.9787                 0.8900                 1.3755
 IR Inten    --      2.5942                 0.6502                 4.3894

                     31                     32                     33
                      A                      A                      A
 Frequencies --    745.3648               774.9479               804.9629
 Red. masses --      6.2793                 2.3836                 2.1515
 Frc consts  --      2.0554                 0.8434                 0.8214
 IR Inten    --      0.6759                 8.2880                 3.7158

                     34                     35                     36
                      A                      A                      A
 Frequencies --    822.1909               860.9766               891.2937
 Red. masses --      2.5635                 2.8854                 2.4200
 Frc consts  --      1.0210                 1.2602                 1.1327
 IR Inten    --      1.9956                 6.2561                 4.0570

                     37                     38                     39
                      A                      A                      A
 Frequencies --    903.0358               912.6558               925.1650
 Red. masses --      3.0443                 1.6292                 2.5243
 Frc consts  --      1.4627                 0.7996                 1.2730
 IR Inten    --     11.4933                 2.1199                 7.7179

                     40                     41                     42
                      A                      A                      A
 Frequencies --    943.9808               946.0815               967.2126
 Red. masses --      1.6315                 1.2233                 2.8405
 Frc consts  --      0.8566                 0.6451                 1.5656
 IR Inten    --     94.0708                 5.5034                22.3242

                     43                     44                     45
                      A                      A                      A
 Frequencies --    977.0980               986.6720              1022.6013
 Red. masses --      1.4908                 2.2902                 2.3281
 Frc consts  --      0.8386                 1.3136                 1.4344
 IR Inten    --      0.3416                67.9668                19.7714

                     46                     47                     48
                      A                      A                      A
 Frequencies --   1032.2857              1051.5980              1073.3857
 Red. masses --      2.2396                 2.9795                 2.3464
 Frc consts  --      1.4061                 1.9413                 1.5928
 IR Inten    --     41.6738                44.2159                37.1341

                     49                     50                     51
                      A                      A                      A
 Frequencies --   1094.2164              1109.9283              1140.1685
 Red. masses --      2.7464                 1.6709                 2.4024
 Frc consts  --      1.9374                 1.2128                 1.8401
 IR Inten    --     58.5740                 6.3480                 6.2942

                     52                     53                     54
                      A                      A                      A
 Frequencies --   1146.6419              1160.7386              1192.1866
 Red. masses --      2.5476                 2.0595                 1.9416
 Frc consts  --      1.9735                 1.6349                 1.6259
 IR Inten    --     17.2524                12.6548                 2.5091

                     55                     56                     57
                      A                      A                      A
 Frequencies --   1194.1287              1227.3613              1232.2579
 Red. masses --      2.4611                 1.5048                 1.3706
 Frc consts  --      2.0677                 1.3356                 1.2262
 IR Inten    --     12.1384                 7.1165                 9.0549

                     58                     59                     60
                      A                      A                      A
 Frequencies --   1246.6145              1249.2281              1270.9801
 Red. masses --      1.4765                 1.2538                 1.1814
 Frc consts  --      1.3519                 1.1528                 1.1244
 IR Inten    --      2.8781                 1.4949                 3.0268

                     61                     62                     63
                      A                      A                      A
 Frequencies --   1295.7725              1317.5373              1327.0646
 Red. masses --      1.9619                 1.3899                 1.3000
 Frc consts  --      1.9408                 1.4216                 1.3489
 IR Inten    --      0.5720                13.6725                 7.6798

                     64                     65                     66
                      A                      A                      A
 Frequencies --   1336.3064              1350.1163              1371.4100
 Red. masses --      1.3011                 1.2463                 1.3274
 Frc consts  --      1.3689                 1.3385                 1.4709
 IR Inten    --      2.9479                 2.5651                 2.6517

                     67                     68                     69
                      A                      A                      A
 Frequencies --   1377.2116              1381.7421              1406.4916
 Red. masses --      4.8718                 1.2303                 1.3668
 Frc consts  --      5.4443                 1.3839                 1.5930
 IR Inten    --     72.9940                 5.9204                13.6302

                     70                     71                     72
                      A                      A                      A
 Frequencies --   1414.2350              1417.0715              1419.1323
 Red. masses --      1.3513                 1.9057                 1.6268
 Frc consts  --      1.5923                 2.2547                 1.9303
 IR Inten    --      1.6814                 8.0882                 0.5312

                     73                     74                     75
                      A                      A                      A
 Frequencies --   1429.7679              1442.8798              1447.9059
 Red. masses --      1.2654                 1.3950                 1.2512
 Frc consts  --      1.5240                 1.7111                 1.5454
 IR Inten    --      4.0715                 9.2861                 5.8026

                     76                     77                     78
                      A                      A                      A
 Frequencies --   1455.6482              1506.7567              1512.1134
 Red. masses --      1.3415                 1.0794                 1.0974
 Frc consts  --      1.6748                 1.4438                 1.4783
 IR Inten    --      1.9914                 7.6575                 5.1865

                     79                     80                     81
                      A                      A                      A
 Frequencies --   1515.6372              1518.3348              1523.0510
 Red. masses --      1.0913                 1.0489                 1.0500
 Frc consts  --      1.4770                 1.4247                 1.4351
 IR Inten    --      2.3511                 1.5715                 1.5493

                     82                     83                     84
                      A                      A                      A
 Frequencies --   1533.9224              1535.1944              1536.7018
 Red. masses --      1.0942                 1.0582                 1.1934
 Frc consts  --      1.5169                 1.4694                 1.6604
 IR Inten    --      5.1856                 6.2361                 1.3613

                     85                     86                     87
                      A                      A                      A
 Frequencies --   1553.3242              1556.4494              1721.0804
 Red. masses --      3.4905                 1.1158                 1.0801
 Frc consts  --      4.9620                 1.5926                 1.8850
 IR Inten    --     17.2305                 0.0875                21.1895

                     88                     89                     90
                      A                      A                      A
 Frequencies --   2970.0673              3035.6516              3041.4684
 Red. masses --      1.0834                 1.0631                 1.0678
 Frc consts  --      5.6311                 5.7722                 5.8196
 IR Inten    --     54.3111                15.6270                67.0230

                     91                     92                     93
                      A                      A                      A
 Frequencies --   3049.9977              3050.2048              3053.9387
 Red. masses --      1.0673                 1.0368                 1.0367
 Frc consts  --      5.8499                 5.6833                 5.6967
 IR Inten    --     40.4534                11.7062                19.6099

                     94                     95                     96
                      A                      A                      A
 Frequencies --   3064.4807              3075.6252              3079.3143
 Red. masses --      1.0843                 1.0892                 1.0664
 Frc consts  --      5.9996                 6.0705                 5.9575
 IR Inten    --      3.3654                42.8684                19.2931

                     97                     98                     99
                      A                      A                      A
 Frequencies --   3083.5309              3087.4182              3099.9770
 Red. masses --      1.0654                 1.0835                 1.0949
 Frc consts  --      5.9682                 6.0852                 6.1994
 IR Inten    --     31.8694                47.6581                24.9757

                    100                    101                    102
                      A                      A                      A
 Frequencies --   3104.0842              3115.1266              3120.9021
 Red. masses --      1.1001                 1.1020                 1.1016
 Frc consts  --      6.2455                 6.3007                 6.3215
 IR Inten    --     13.5037                 1.0512                65.2303

                    103                    104                    105
                      A                      A                      A
 Frequencies --   3121.8591              3126.6573              3131.6066
 Red. masses --      1.1037                 1.1017                 1.1017
 Frc consts  --      6.3376                 6.3454                 6.3660
 IR Inten    --      8.6403                28.1328                31.5713

                    106                    107                    108
                      A                      A                      A
 Frequencies --   3135.3710              3446.9453              3537.2883
 Red. masses --      1.1067                 1.0492                 1.0921
 Frc consts  --      6.4098                 7.3446                 8.0514
 IR Inten    --     56.4177                41.8641                53.8960

 - Thermochemistry -
 -------------------
 Temperature   298.150 Kelvin.  Pressure   1.00000 Atm.
 Atom     1 has atomic number  6 and mass  12.00000

 Molecular mass:   255.14053 amu.
 Principal axes and moments of inertia in atomic units:
                           1         2         3
     Eigenvalues --  2271.834546893.573697843.91606
           X            0.99978   0.02091  -0.00213
           Y           -0.02087   0.99965   0.01621
           Z            0.00247  -0.01616   0.99987
 This molecule is an asymmetric top.
 Rotational symmetry number  1.
 Warning -- assumption of classical behavior for rotation
           may cause significant error
 Rotational temperatures (Kelvin)      0.03813     0.01256     0.01104
 Rotational constants (GHZ):           0.79440     0.26180     0.23008
 Zero-point vibrational energy     868929.3 (Joules/Mol)
                                  207.67908 (Kcal/Mol)
 Warning -- explicit consideration of  28 degrees of freedom as
           vibrations may cause significant error
 Vibrational temperatures:     40.37    45.86    68.82   100.09   111.05
          (Kelvin)            142.59   169.32   199.25   211.40   279.31
                              312.91   340.38   361.31   372.89   393.19
                              427.02   447.32   504.69   529.60   539.17
                              660.01   693.72   765.64   786.79   810.12
                              845.44   857.10   862.61   977.05  1005.14
                             1072.41  1114.98  1158.16  1182.95  1238.75
                             1282.37  1299.27  1313.11  1331.11  1358.18
                             1361.20  1391.60  1405.83  1419.60  1471.30
                             1485.23  1513.01  1544.36  1574.33  1596.94
                             1640.45  1649.76  1670.04  1715.29  1718.08
                             1765.90  1772.94  1793.60  1797.36  1828.66
                             1864.33  1895.64  1909.35  1922.65  1942.52
                             1973.15  1981.50  1988.02  2023.63  2034.77
                             2038.85  2041.81  2057.12  2075.98  2083.21
                             2094.35  2167.89  2175.59  2180.66  2184.55
                             2191.33  2206.97  2208.80  2210.97  2234.89
                             2239.38  2476.25  4273.26  4367.63  4375.99
                             4388.27  4388.56  4393.94  4409.10  4425.14
                             4430.45  4436.51  4442.11  4460.18  4466.08
                             4481.97  4490.28  4491.66  4498.56  4505.68
                             4511.10  4959.39  5089.37

 Zero-point correction=                           0.330958 (Hartree/Particle)
 Thermal correction to Energy=                    0.348720
 Thermal correction to Enthalpy=                  0.349664
 Thermal correction to Gibbs Free Energy=         0.284033
 Sum of electronic and zero-point Energies=          -1107.286361
 Sum of electronic and thermal Energies=             -1107.268598
 Sum of electronic and thermal Enthalpies=           -1107.267654
 Sum of electronic and thermal Free Energies=        -1107.333285

                     E (Thermal)             CV                S
                      KCal/Mol        Cal/Mol-Kelvin    Cal/Mol-Kelvin
 Total                  218.825             66.808            138.132
 Electronic               0.000              0.000              0.000
 Translational            0.889              2.981             42.510
 Rotational               0.889              2.981             33.174
 Vibrational            217.048             60.846             62.448
 Vibration     1          0.593              1.984              5.962
 Vibration     2          0.594              1.983              5.709
 Vibration     3          0.595              1.978              4.905
 Vibration     4          0.598              1.969              4.166
 Vibration     5          0.599              1.964              3.961
 Vibration     6          0.604              1.950              3.472
 Vibration     7          0.608              1.935              3.138
 Vibration     8          0.614              1.915              2.825
 Vibration     9          0.617              1.906              2.712
 Vibration    10          0.635              1.848              2.188
 Vibration    11          0.646              1.814              1.980
 Vibration    12          0.655              1.785              1.828
 Vibration    13          0.663              1.761              1.723
 Vibration    14          0.668              1.747              1.667
 Vibration    15          0.676              1.723              1.575
 Vibration    16          0.690              1.680              1.435
 Vibration    17          0.700              1.653              1.358
 Vibration    18          0.728              1.574              1.163
 Vibration    19          0.741              1.538              1.088
 Vibration    20          0.746              1.524              1.060
 Vibration    21          0.817              1.342              0.770
 Vibration    22          0.838              1.290              0.704
 Vibration    23          0.887              1.179              0.582
 Vibration    24          0.902              1.147              0.551
 Vibration    25          0.919              1.111              0.518
 Vibration    26          0.945              1.058              0.471
 Vibration    27          0.953              1.041              0.457
 Vibration    28          0.958              1.033              0.450

                           ! Non-Optimized Parameters !
 Normal termination of Gaussian 16 at Mon Dec 14 17:08:21 2020.

 ----------------------------------------------------------------------
 # B3LYP/6-311++G(d,p) empiricaldispersion=gd3bj scf=xqc pop=npa geom=c
 heck
 ----------------------------------------------------------------------

 ---------------------------------------
 CID_105156801_JID_7697_Energie_neutraal
 ---------------------------------------
 Structure from the checkpoint file:  "JID_7697.chk"
 Charge =  0 Multiplicity = 1

 SCF Done:  E(RB3LYP) =  -1107.84163981     A.U. after   17 cycles
 Normal termination of Gaussian 16 at Mon Dec 14 17:18:17 2020.

 ----------------------------------------------------------------------
 # B3LYP/6-311++G(d,p) empiricaldispersion=gd3bj scf=xqc pop=npa geom=c
 heck
 ----------------------------------------------------------------------

 -------------------------------------
 CID_105156801_JID_7697_Energie_kation
 -------------------------------------
 Structure from the checkpoint file:  "JID_7697.chk"
 Charge =  1 Multiplicity = 2

 SCF Done:  E(UB3LYP) =  -1107.53126450     A.U. after   33 cycles
 SCF Done:  E(UB3LYP) =  -1107.53252462     a.u. after    7 cycles
 Normal termination of Gaussian 16 at Mon Dec 14 19:23:57 2020.
 Gaussian 16:  ES64L-G16RevA.03 25-Dec-2016

 ----------------------------------------------------------------------
 # B3LYP/6-311++G(d,p) empiricaldispersion=gd3bj scf=xqc pop=npa geom=c
 heck
 ----------------------------------------------------------------------

 ------------------------------------
 CID_105156801_JID_7697_Energie_anion
 ------------------------------------
 Structure from the checkpoint file:  "JID_7697.chk"
 Charge = -1 Multiplicity = 2

                         Standard orientation:
 ---------------------------------------------------------------------
 Center     Atomic      Atomic             Coordinates (Angstroms)
 Number     Number       Type             X           Y           Z
 ---------------------------------------------------------------------
      1          6           0       -3.290142   -1.890937   -0.920711
      2          6           0       -3.545194   -0.684949   -0.002185
      3          6           0       -3.786501   -1.116416    1.455670
      4          6           0       -2.485423    0.392365   -0.098102
      5          6           0       -1.125145    0.318012    0.133553
      6         16           0       -0.464918    1.896958   -0.059708
      7          7           0       -2.019025    2.569138   -0.437407
      8          7           0       -2.918344    1.663187   -0.412873
      9          6           0       -0.306947   -0.895778    0.511564
     10          6           0        0.420834   -1.527124   -0.709220
     11          6           0        1.381985   -0.671145   -1.551447
     12          6           0        2.714448   -0.218232   -0.958139
     13          6           0        3.585956   -1.252971   -0.240199
     14          6           0        4.540779   -0.364112    0.581673
     15          6           0        3.755204    0.964618    0.738411
     16          8           0        2.515484    0.796924    0.037346
     17          7           0        0.523988   -0.597428    1.683882
     18          1           0       -2.441183   -2.493853   -0.582029
     19          1           0       -3.089586   -1.569595   -1.948259
     20          1           0       -4.169177   -2.545127   -0.933860
     21          1           0       -4.459987   -0.194848   -0.354275
     22          1           0       -2.900732   -1.592510    1.890183
     23          1           0       -4.037930   -0.252726    2.078919
     24          1           0       -4.614349   -1.832923    1.509322
     25          1           0       -1.024946   -1.653178    0.839357
     26          1           0        0.941696   -2.422023   -0.342577
     27          1           0       -0.352445   -1.892656   -1.396140
     28          1           0        1.633432   -1.257746   -2.444903
     29          1           0        0.861231    0.219722   -1.918833
     30          1           0        3.301348    0.224595   -1.781466
     31          1           0        2.965592   -1.863712    0.422859
     32          1           0        4.107654   -1.921206   -0.931454
     33          1           0        4.795405   -0.810845    1.546632
     34          1           0        5.477289   -0.194038    0.041679
     35          1           0        3.510529    1.206550    1.776540
     36          1           0        4.307552    1.810239    0.308179
     37          1           0        0.949367   -1.464709    2.009767
     38          1           0        1.288602    0.009616    1.386488
 ---------------------------------------------------------------------

 SCF Done:  E(UB3LYP) =  -1107.83911052     A.U. after   33 cycles
 SCF Done:  E(UB3LYP) =  -1107.83911052     a.u. after    1 cycles

 The electronic state is 2-A.
 Alpha  occ. eigenvalues --  -88.75514 -19.02913 -14.22204 -14.21395 -14.18298
 Alpha  occ. eigenvalues --  -10.12363 -10.12289 -10.10945 -10.08622 -10.08319
 Alpha  occ. eigenvalues --  -10.08089 -10.07737 -10.07293 -10.07234 -10.07174
 Alpha  occ. eigenvalues --  -10.07070 -10.07036  -7.84075  -5.80405  -5.79959
 Alpha  occ. eigenvalues --   -5.79677  -0.94662  -0.90610  -0.78910  -0.72053
 Alpha  occ. eigenvalues --   -0.69963  -0.68596  -0.67790  -0.64490  -0.63149
 Alpha  occ. eigenvalues --   -0.59736  -0.57751  -0.52984  -0.50268  -0.50132
 Alpha  occ. eigenvalues --   -0.47305  -0.45945  -0.42991  -0.40870  -0.39029
 Alpha  occ. eigenvalues --   -0.38395  -0.36774  -0.36720  -0.36044  -0.34978
 Alpha  occ. eigenvalues --   -0.33602  -0.32673  -0.32604  -0.31468  -0.30530
 Alpha  occ. eigenvalues --   -0.30129  -0.29293  -0.28956  -0.27041  -0.26336
 Alpha  occ. eigenvalues --   -0.26036  -0.25615  -0.25403  -0.24900  -0.24114
 Alpha  occ. eigenvalues --   -0.23189  -0.22347  -0.21991  -0.20340  -0.17074
 Alpha  occ. eigenvalues --   -0.16516  -0.13953  -0.13344  -0.12457   0.03985
 Alpha virt. eigenvalues --    0.05598   0.06485   0.07044   0.07526   0.08670
 Alpha virt. eigenvalues --    0.08835   0.09374   0.10182   0.10369   0.10546
 Alpha virt. eigenvalues --    0.11307   0.11493   0.12234   0.12394   0.12719

  Beta  occ. eigenvalues --  -88.75478 -19.02907 -14.21821 -14.21279 -14.18275
  Beta  occ. eigenvalues --  -10.12349 -10.12280 -10.10957 -10.08620 -10.08368
  Beta  occ. eigenvalues --  -10.07856 -10.07708 -10.07268 -10.07229 -10.07156
  Beta  occ. eigenvalues --  -10.07060 -10.07036  -7.84043  -5.80394  -5.79948
  Beta  occ. eigenvalues --   -5.79550  -0.94648  -0.90190  -0.78832  -0.71972
  Beta  occ. eigenvalues --   -0.69917  -0.68456  -0.67624  -0.64246  -0.63066
  Beta  occ. eigenvalues --   -0.59729  -0.57680  -0.52867  -0.50200  -0.50036
  Beta  occ. eigenvalues --   -0.47154  -0.45774  -0.42876  -0.40827  -0.38968
  Beta  occ. eigenvalues --   -0.38335  -0.36678  -0.36653  -0.35940  -0.34945
  Beta  occ. eigenvalues --   -0.33460  -0.32586  -0.32556  -0.31413  -0.30457
  Beta  occ. eigenvalues --   -0.30063  -0.28871  -0.28572  -0.26939  -0.26237
  Beta  occ. eigenvalues --   -0.25976  -0.25560  -0.25288  -0.24860  -0.24075
  Beta  occ. eigenvalues --   -0.23154  -0.22276  -0.21885  -0.20078  -0.17002
  Beta  occ. eigenvalues --   -0.15592  -0.13781  -0.12456  -0.12174
  Beta virt. eigenvalues --    0.06145   0.06762   0.07584   0.07797   0.08376
  Beta virt. eigenvalues --    0.08922   0.09037   0.09559   0.10344   0.10628
  Beta virt. eigenvalues --    0.10642   0.11420   0.11706   0.12260   0.12438

 Mulliken charges and spin densities:
               1          2
     1  C   -0.405838  -0.186788
     2  C   -0.000902   0.139962
     3  C   -0.532612  -0.026241
     4  C   -0.345161   0.012030
     5  C    0.177954   0.077518
     6  S   -0.044050   0.014454
     7  N   -0.174076   0.158477
     8  N    0.009782   0.054034
     9  C   -0.213361   0.183715
    10  C   -0.388875  -0.147955
    11  C   -0.081118  -0.301656
    12  C   -0.214771   0.245503
    13  C   -0.003354  -0.455990
    14  C    1.143893  -1.595534
    15  C   -0.353147   0.150156
    16  O   -0.042122  -0.039418
    17  N   -0.202686  -0.078590
    18  H    0.029082   0.101913
    19  H    0.099442   0.044343
    20  H    0.113116   0.021034
    21  H    0.194185   0.008122
    22  H    0.094876   0.043756
    23  H    0.148117  -0.001932
    24  H    0.123624   0.002501
    25  H    0.460259  -0.234976
    26  H   -0.178912   0.339943
    27  H    0.181121  -0.045913
    28  H   -0.227138   0.395524
    29  H    0.125019   0.072988
    30  H   -0.227406   0.430982
    31  H    0.363585  -0.222520
    32  H   -0.601545   0.762987
    33  H   -0.329706   0.477017
    34  H   -0.116727   0.282940
    35  H    0.127713   0.026079
    36  H   -0.006383   0.152056
    37  H    0.003792   0.214767
    38  H    0.294331  -0.075286
 Sum of Mulliken charges =  -1.00000   1.00000

 Dipole moment (field-independent basis, Debye):
    X=             -3.3375    Y=             -2.8294    Z=              1.7303  Tot=              4.7051
 Quadrupole moment (field-independent basis, Debye-Ang):
   XX=           -189.3716   YY=           -150.4813   ZZ=           -142.2664
   XY=             23.4371   XZ=              4.6121   YZ=             -0.2906

 Summary of Natural Population Analysis:

                                       Natural Population
                Natural  -----------------------------------------------
    Atom  No    Charge         Core      Valence    Rydberg      Total
 -----------------------------------------------------------------------
      C    1   -0.28090      0.99965     2.27654    0.00471     3.28090
      C    2   -0.12611      0.99958     2.11577    0.01076     3.12611
      C    3   -0.27888      0.99965     2.27497    0.00426     3.27888
      C    4    0.02729      0.99938     1.95439    0.01893     2.97271
      C    5   -0.06771      0.99941     2.05363    0.01467     3.06771
      S    6    0.27746      4.99943     2.69899    0.02412     7.72254
      N    7   -0.13416      0.99982     2.61837    0.01597     3.63416
      N    8   -0.10656      0.99969     2.59231    0.01456     3.60656
      C    9   -0.03050      0.99954     2.01750    0.01347     3.03050
      C   10   -0.18840      0.99960     2.17947    0.00934     3.18840
      C   11   -0.20494      0.99959     2.19501    0.01034     3.20494
      C   12    0.06774      0.99955     1.91683    0.01587     2.93226
      C   13   -0.20267      0.99961     2.19417    0.00889     3.20267
      C   14   -0.20606      0.99965     2.19889    0.00753     3.20606
      C   15   -0.01119      0.99961     2.00025    0.01133     3.01119
      O   16   -0.31025      0.99989     3.30095    0.00941     4.31025
      N   17   -0.42307      0.99976     2.91318    0.01012     3.92307
      H   18    0.09484      0.00000     0.40407    0.00109     0.40516
      H   19    0.10238      0.00000     0.39657    0.00105     0.39762
      H   20    0.09349      0.00000     0.40565    0.00085     0.40651
      H   21    0.10375      0.00000     0.39372    0.00253     0.39625
      H   22    0.09683      0.00000     0.40226    0.00092     0.40317
      H   23    0.10309      0.00000     0.39621    0.00069     0.39691
      H   24    0.09119      0.00000     0.40800    0.00082     0.40881
      H   25    0.09445      0.00000     0.40320    0.00235     0.40555
      H   26    0.09309      0.00000     0.40573    0.00118     0.40691
      H   27    0.10115      0.00000     0.39768    0.00116     0.39885
      H   28    0.10360      0.00000     0.39534    0.00106     0.39640
      H   29    0.10980      0.00000     0.38828    0.00193     0.39020
      H   30    0.08273      0.00000     0.41576    0.00152     0.41727
      H   31    0.09677      0.00000     0.40159    0.00165     0.40323
      H   32    0.10671      0.00000     0.39105    0.00224     0.39329
      H   33    0.10149      0.00000     0.39733    0.00118     0.39851
      H   34    0.10072      0.00000     0.39747    0.00180     0.39928
      H   35    0.08785      0.00000     0.41105    0.00110     0.41215
      H   36    0.08199      0.00000     0.41687    0.00114     0.41801
      H   37    0.16798      0.00000     0.33028    0.00174     0.33202
      H   38    0.18505      0.00000     0.31188    0.00307     0.31495
 =======================================================================
   * Total *    0.00004     20.99341    47.77119    0.23536    68.99996

 Normal termination of Gaussian 16 at Mon Dec 14 19:49:08 2020.
