 Gaussian 16, Revision A.03,

 -----------------------------------------------------------
 # opt freq B3LYP/6-31G(d) empiricaldispersion=gd3bj scf=xqc
 -----------------------------------------------------------

 -------------------------------
 CID_149863779_JID_4003_neutraal
 -------------------------------
 Symbolic Z-matrix:
 Charge =  0 Multiplicity = 1

 SCF Done:  E(RB3LYP) =  -714.890173427     A.U. after   16 cycles
 SCF Done:  E(RB3LYP) =  -714.897461349     A.U. after   15 cycles
 SCF Done:  E(RB3LYP) =  -714.899838290     A.U. after   14 cycles
 SCF Done:  E(RB3LYP) =  -714.901648970     A.U. after   17 cycles
 SCF Done:  E(RB3LYP) =  -714.902392285     A.U. after   14 cycles
 SCF Done:  E(RB3LYP) =  -714.901428048     A.U. after   15 cycles
 SCF Done:  E(RB3LYP) =  -714.903465360     A.U. after   13 cycles
 SCF Done:  E(RB3LYP) =  -714.903575301     A.U. after   12 cycles
 SCF Done:  E(RB3LYP) =  -714.903618052     A.U. after   11 cycles
 SCF Done:  E(RB3LYP) =  -714.903631830     A.U. after   11 cycles
 SCF Done:  E(RB3LYP) =  -714.903918098     A.U. after   10 cycles
 SCF Done:  E(RB3LYP) =  -714.903918245     A.U. after    8 cycles
 SCF Done:  E(RB3LYP) =  -714.903918289     A.U. after   10 cycles
 SCF Done:  E(RB3LYP) =  -714.903918315     A.U. after    8 cycles
 SCF Done:  E(RB3LYP) =  -714.903918319     A.U. after    8 cycles
 Optimization completed.
    -- Stationary point found.
 Normal termination of Gaussian 16 at Thu Dec 10 09:27:06 2020.

 --------------------------------------------------------------------
 #N Geom=AllCheck Guess=TCheck SCRF=Check GenChk RB3LYP/6-31G(d) Freq
 --------------------------------------------------------------------

 Structure from the checkpoint file:  "JID_4003.chk"
 -------------------------------
 CID_149863779_JID_4003_neutraal
 -------------------------------
 Charge =  0 Multiplicity = 1

 SCF Done:  E(RB3LYP) =  -714.903918319     A.U. after    1 cycles

  Exact polarizability: 174.925  14.240 116.511   0.154   2.016  56.310
 Approx polarizability: 260.880  37.630 224.308   0.878   2.298  92.740

                      1                      2                      3
                      A                      A                      A
 Frequencies --     15.7692                32.3377                65.6031
 Red. masses --     10.3413                10.6764                 4.3826
 Frc consts  --      0.0015                 0.0066                 0.0111
 IR Inten    --      0.1454                 0.3688                 2.4404

                      4                      5                      6
                      A                      A                      A
 Frequencies --    118.4335               138.9233               158.3210
 Red. masses --      5.8103                 4.5859                 6.7390
 Frc consts  --      0.0480                 0.0521                 0.0995
 IR Inten    --     13.1600                 0.8663                 5.2732

                      7                      8                      9
                      A                      A                      A
 Frequencies --    187.2297               196.6864               221.1312
 Red. masses --      6.0623                 2.1743                 3.5733
 Frc consts  --      0.1252                 0.0496                 0.1029
 IR Inten    --      3.2962                 1.7532                 1.2073

                     10                     11                     12
                      A                      A                      A
 Frequencies --    265.0145               290.0547               332.7276
 Red. masses --      1.6028                 4.3001                 8.8341
 Frc consts  --      0.0663                 0.2132                 0.5762
 IR Inten    --      0.4168                 2.0979                 1.9329

                     13                     14                     15
                      A                      A                      A
 Frequencies --    408.2397               467.8994               475.7192
 Red. masses --      8.4360                 3.3401                 5.8594
 Frc consts  --      0.8284                 0.4308                 0.7813
 IR Inten    --      4.0092                 5.7788                 2.3245

                     16                     17                     18
                      A                      A                      A
 Frequencies --    528.5433               542.5994               577.4623
 Red. masses --      9.2336                10.3555                 5.4571
 Frc consts  --      1.5198                 1.7963                 1.0722
 IR Inten    --      1.0389                 6.6111                 3.3368

                     19                     20                     21
                      A                      A                      A
 Frequencies --    599.2857               641.8861               660.2771
 Red. masses --      7.8482                 7.2756                 6.2186
 Frc consts  --      1.6607                 1.7662                 1.5973
 IR Inten    --     39.3964                29.2202                 3.6762

                     22                     23                     24
                      A                      A                      A
 Frequencies --    746.7464               761.6658               785.1187
 Red. masses --      6.5735                 8.6467                 6.8860
 Frc consts  --      2.1597                 2.9555                 2.5008
 IR Inten    --     11.7139                 3.5942                 1.4696

                     25                     26                     27
                      A                      A                      A
 Frequencies --    852.7821               895.1288               958.2489
 Red. masses --      6.8028                 1.4345                 1.4524
 Frc consts  --      2.9148                 0.6772                 0.7858
 IR Inten    --     12.6604                19.9473                 5.3980

                     28                     29                     30
                      A                      A                      A
 Frequencies --    975.7439              1028.2964              1092.2504
 Red. masses --      3.9497                 1.8384                 4.9206
 Frc consts  --      2.2156                 1.1453                 3.4587
 IR Inten    --      3.2138                 0.3368                49.1077

                     31                     32                     33
                      A                      A                      A
 Frequencies --   1150.9333              1179.0476              1185.4982
 Red. masses --      4.1428                12.8213                 1.2721
 Frc consts  --      3.2333                10.5013                 1.0533
 IR Inten    --     61.8458                87.8966                 1.0182

                     34                     35                     36
                      A                      A                      A
 Frequencies --   1218.7067              1240.5732              1285.2488
 Red. masses --      1.5133                 2.4893                 2.1589
 Frc consts  --      1.3243                 2.2572                 2.1012
 IR Inten    --      4.9606                84.0780                26.9442

                     37                     38                     39
                      A                      A                      A
 Frequencies --   1313.3278              1365.9709              1421.6366
 Red. masses --      2.7092                 4.2342                 4.4957
 Frc consts  --      2.7532                 4.6548                 5.3534
 IR Inten    --      1.3433               109.4440               421.5395

                     40                     41                     42
                      A                      A                      A
 Frequencies --   1440.1019              1500.1681              1524.3380
 Red. masses --      1.3567                 1.6276                 1.0488
 Frc consts  --      1.6577                 2.1581                 1.4358
 IR Inten    --      2.4650                45.9787                 8.5718

                     43                     44                     45
                      A                      A                      A
 Frequencies --   1526.2590              1534.7362              1617.6669
 Red. masses --      1.5040                 1.2963                 8.5699
 Frc consts  --      2.0642                 1.7990                13.2131
 IR Inten    --    169.3861                 6.4285                14.4858

                     46                     47                     48
                      A                      A                      A
 Frequencies --   1645.6829              1798.5848              2186.0804
 Red. masses --      6.4289                 9.5363                14.0002
 Frc consts  --     10.2583                18.1757                39.4201
 IR Inten    --    173.0891               167.4984               472.8087

                     49                     50                     51
                      A                      A                      A
 Frequencies --   3018.4131              3039.1793              3103.6934
 Red. masses --      1.0873                 1.0344                 1.1073
 Frc consts  --      5.8368                 5.6292                 6.2845
 IR Inten    --     60.1594                43.9358                32.6905

                     52                     53                     54
                      A                      A                      A
 Frequencies --   3174.5940              3185.8101              3246.4439
 Red. masses --      1.1008                 1.0915                 1.0902
 Frc consts  --      6.5362                 6.5268                 6.7698
 IR Inten    --     20.6658                13.4671                 4.4025

 - Thermochemistry -
 -------------------
 Temperature   298.150 Kelvin.  Pressure   1.00000 Atm.
 Atom     1 has atomic number  6 and mass  12.00000

 Molecular mass:   194.04399 amu.
 Principal axes and moments of inertia in atomic units:
                           1         2         3
     Eigenvalues --  1562.652764244.890075477.68214
           X            0.99996  -0.00026   0.00936
           Y            0.00024   1.00000   0.00248
           Z           -0.00936  -0.00248   0.99995
 This molecule is an asymmetric top.
 Rotational symmetry number  1.
 Warning -- assumption of classical behavior for rotation
           may cause significant error
 Rotational temperatures (Kelvin)      0.05543     0.02040     0.01581
 Rotational constants (GHZ):           1.15492     0.42516     0.32947
 Zero-point vibrational energy     358418.1 (Joules/Mol)
                                   85.66397 (Kcal/Mol)
 Warning -- explicit consideration of  19 degrees of freedom as
           vibrations may cause significant error
 Vibrational temperatures:     22.69    46.53    94.39   170.40   199.88
          (Kelvin)            227.79   269.38   282.99   318.16   381.30
                              417.32   478.72   587.37   673.20   684.45
                              760.46   780.68   830.84   862.24   923.53
                              949.99  1074.40  1095.87  1129.61  1226.96
                             1287.89  1378.71  1403.88  1479.49  1571.50
                             1655.94  1696.39  1705.67  1753.45  1784.91
                             1849.19  1889.59  1965.33  2045.42  2071.99
                             2158.41  2193.18  2195.95  2208.14  2327.46
                             2367.77  2587.76  3145.28  4342.82  4372.70
                             4465.52  4567.53  4583.67  4670.91

 Zero-point correction=                           0.136514 (Hartree/Particle)
 Thermal correction to Energy=                    0.149355
 Thermal correction to Enthalpy=                  0.150299
 Thermal correction to Gibbs Free Energy=         0.094730
 Sum of electronic and zero-point Energies=           -714.767404
 Sum of electronic and thermal Energies=              -714.754563
 Sum of electronic and thermal Enthalpies=            -714.753619
 Sum of electronic and thermal Free Energies=         -714.809188

                     E (Thermal)             CV                S
                      KCal/Mol        Cal/Mol-Kelvin    Cal/Mol-Kelvin
 Total                   93.722             45.307            116.955
 Electronic               0.000              0.000              0.000
 Translational            0.889              2.981             41.694
 Rotational               0.889              2.981             31.963
 Vibrational             91.944             39.345             43.297
 Vibration     1          0.593              1.986              7.106
 Vibration     2          0.594              1.983              5.681
 Vibration     3          0.597              1.971              4.281
 Vibration     4          0.609              1.934              3.126
 Vibration     5          0.615              1.914              2.819
 Vibration     6          0.621              1.893              2.570
 Vibration     7          0.632              1.857              2.255
 Vibration     8          0.636              1.845              2.164
 Vibration     9          0.648              1.809              1.950
 Vibration    10          0.671              1.737              1.629
 Vibration    11          0.686              1.692              1.474
 Vibration    12          0.715              1.610              1.247
 Vibration    13          0.773              1.452              0.933
 Vibration    14          0.825              1.321              0.743
 Vibration    15          0.832              1.304              0.722
 Vibration    16          0.883              1.187              0.590
 Vibration    17          0.898              1.156              0.560
 Vibration    18          0.934              1.080              0.490
 Vibration    19          0.957              1.033              0.451

 Optimization completed.
    -- Stationary point found.
 Normal termination of Gaussian 16 at Thu Dec 10 09:31:29 2020.

 ----------------------------------------------------------------------
 # B3LYP/6-311++G(d,p) empiricaldispersion=gd3bj scf=xqc pop=npa geom=c
 heck
 ----------------------------------------------------------------------

 ---------------------------------------
 CID_149863779_JID_4003_Energie_neutraal
 ---------------------------------------
 Structure from the checkpoint file:  "JID_4003.chk"
 Charge =  0 Multiplicity = 1

 SCF Done:  E(RB3LYP) =  -715.102200454     A.U. after   17 cycles
 Normal termination of Gaussian 16 at Thu Dec 10 09:33:04 2020.

 ----------------------------------------------------------------------
 # B3LYP/6-311++G(d,p) empiricaldispersion=gd3bj scf=xqc pop=npa geom=c
 heck
 ----------------------------------------------------------------------

 -------------------------------------
 CID_149863779_JID_4003_Energie_kation
 -------------------------------------
 Structure from the checkpoint file:  "JID_4003.chk"
 Charge =  1 Multiplicity = 2

 SCF Done:  E(UB3LYP) =  -714.770528577     A.U. after   33 cycles
 SCF Done:  E(UB3LYP) =  -714.770528576     a.u. after    1 cycles
 Normal termination of Gaussian 16 at Thu Dec 10 09:37:16 2020.
 Gaussian 16:  ES64L-G16RevA.03 25-Dec-2016

 ----------------------------------------------------------------------
 # B3LYP/6-311++G(d,p) empiricaldispersion=gd3bj scf=xqc pop=npa geom=c
 heck
 ----------------------------------------------------------------------

 ------------------------------------
 CID_149863779_JID_4003_Energie_anion
 ------------------------------------
 Structure from the checkpoint file:  "JID_4003.chk"
 Charge = -1 Multiplicity = 2

                         Standard orientation:
 ---------------------------------------------------------------------
 Center     Atomic      Atomic             Coordinates (Angstroms)
 Number     Number       Type             X           Y           Z
 ---------------------------------------------------------------------
      1          6           0        4.156270   -0.326540    0.552837
      2          8           0        3.157466   -1.275981    0.195929
      3          6           0        1.907783   -0.826433   -0.039779
      4          7           0        1.051150   -1.802201   -0.363037
      5          6           0       -0.215141   -1.472761   -0.602443
      6          6           0       -0.687187   -0.160351   -0.550262
      7          6           0        0.208328    0.864066   -0.219514
      8          6           0        1.533801    0.523833    0.043446
      9          6           0       -0.209409    2.293939   -0.159974
     10          8           0        0.553664    3.186617    0.152685
     11          8           0       -2.005008    0.093384   -0.883814
     12          7           0       -2.781061    0.438566    0.342343
     13          7           0       -3.553083   -0.530778    0.535569
     14          7           0       -4.311232   -1.340821    0.798304
     15          1           0        5.070657   -0.902329    0.697756
     16          1           0        3.898423    0.192792    1.483821
     17          1           0        4.309572    0.410071   -0.245162
     18          1           0       -0.898802   -2.277569   -0.865320
     19          1           0        2.225003    1.317293    0.297588
     20          1           0       -1.260924    2.499702   -0.425202
 ---------------------------------------------------------------------

 SCF Done:  E(UB3LYP) =  -715.159390858     A.U. after   26 cycles

 The electronic state is 2-A.
 Alpha  occ. eigenvalues --  -19.04759 -19.03173 -18.96639 -14.31968 -14.24976
 Alpha  occ. eigenvalues --  -14.23442 -14.18068 -10.13933 -10.13197 -10.10259
 Alpha  occ. eigenvalues --  -10.09543 -10.08410 -10.05194 -10.05123  -1.00553
 Alpha  occ. eigenvalues --   -0.97187  -0.93172  -0.90097  -0.82035  -0.79439
 Alpha  occ. eigenvalues --   -0.67968  -0.64709  -0.59552  -0.54412  -0.50158
 Alpha  occ. eigenvalues --   -0.45984  -0.43931  -0.41597  -0.39567  -0.37668
 Alpha  occ. eigenvalues --   -0.37454  -0.36978  -0.34390  -0.33031  -0.32582
 Alpha  occ. eigenvalues --   -0.31774  -0.30617  -0.29904  -0.29024  -0.26783
 Alpha  occ. eigenvalues --   -0.26151  -0.24345  -0.24038  -0.20845  -0.17211
 Alpha  occ. eigenvalues --   -0.16157  -0.14315  -0.12078  -0.11512  -0.11151
 Alpha  occ. eigenvalues --    0.00529
 Alpha virt. eigenvalues --    0.05078   0.07246   0.10557   0.10916   0.11389
 Alpha virt. eigenvalues --    0.11826   0.12331   0.12640   0.14056   0.14188
 Alpha virt. eigenvalues --    0.14931   0.16180   0.16606   0.16921   0.17474

  Beta  occ. eigenvalues --  -19.04757 -19.02937 -18.96251 -14.31767 -14.24866
  Beta  occ. eigenvalues --  -14.22860 -14.17893 -10.13913 -10.13195 -10.10110
  Beta  occ. eigenvalues --  -10.09458 -10.08462 -10.05108 -10.04955  -0.99891
  Beta  occ. eigenvalues --   -0.97164  -0.92568  -0.89401  -0.81778  -0.78845
  Beta  occ. eigenvalues --   -0.67550  -0.64637  -0.59367  -0.53846  -0.49883
  Beta  occ. eigenvalues --   -0.45674  -0.43349  -0.41416  -0.39268  -0.37569
  Beta  occ. eigenvalues --   -0.37138  -0.36017  -0.34271  -0.32577  -0.32349
  Beta  occ. eigenvalues --   -0.30627  -0.30426  -0.29526  -0.28566  -0.26547
  Beta  occ. eigenvalues --   -0.24590  -0.24204  -0.23085  -0.20417  -0.16865
  Beta  occ. eigenvalues --   -0.14939  -0.14041  -0.11712  -0.11001  -0.10698
  Beta virt. eigenvalues --    0.06188   0.07234   0.08132   0.10557   0.10943
  Beta virt. eigenvalues --    0.11424   0.12061   0.12487   0.12785   0.14283
  Beta virt. eigenvalues --    0.14870   0.15049   0.16263   0.16844   0.17506

 Mulliken charges and spin densities:
               1          2
     1  C   -0.265200  -0.004255
     2  O   -0.112078   0.001033
     3  C   -0.687536  -0.011172
     4  N   -0.207972   0.085698
     5  C    0.389620  -0.044198
     6  C   -1.856005   0.100707
     7  C    1.627310   0.130581
     8  C    0.002044   0.069541
     9  C   -0.040981   0.090834
    10  O   -0.336028   0.134760
    11  O   -0.083404   0.027131
    12  N   -0.491213   0.058849
    13  N    0.366539   0.101240
    14  N   -0.235559   0.267835
    15  H    0.165825  -0.000255
    16  H    0.139906   0.003323
    17  H    0.137707   0.003099
    18  H    0.189379   0.001430
    19  H    0.181356  -0.004794
    20  H    0.116290  -0.011387
 Sum of Mulliken charges =  -1.00000   1.00000

 Dipole moment (field-independent basis, Debye):
    X=              5.1344    Y=             -0.7602    Z=             -0.1992  Tot=              5.1942
 Quadrupole moment (field-independent basis, Debye-Ang):
   XX=           -111.9262   YY=           -115.1133   ZZ=            -86.0868
   XY=             -2.8502   XZ=              5.6407   YZ=             -0.6587

 Summary of Natural Population Analysis:

                                       Natural Population
                Natural  -----------------------------------------------
    Atom  No    Charge         Core      Valence    Rydberg      Total
 -----------------------------------------------------------------------
      C    1   -0.10167      0.99961     2.09394    0.00812     3.10167
      O    2   -0.27401      0.99985     3.26236    0.01181     4.27401
      C    3    0.25815      0.99946     1.72695    0.01544     2.74185
      N    4   -0.22144      0.99966     2.71033    0.01145     3.72144
      C    5    0.00330      0.99955     1.98284    0.01431     2.99670
      C    6    0.14794      0.99932     1.84042    0.01231     2.85206
      C    7   -0.03212      0.99945     2.02204    0.01063     3.03212
      C    8   -0.12767      0.99949     2.12108    0.00711     3.12767
      C    9    0.22478      0.99969     1.75514    0.02039     2.77522
      O   10   -0.25039      0.99988     3.24314    0.00737     4.25039
      O   11   -0.21128      0.99987     3.20073    0.01068     4.21128
      N   12   -0.07079      0.99974     2.55689    0.01417     3.57079
      N   13    0.10472      0.99972     2.37950    0.01606     3.39528
      N   14    0.03831      0.99982     2.44825    0.01362     3.46169
      H   15    0.08753      0.00000     0.41164    0.00083     0.41247
      H   16    0.08401      0.00000     0.41453    0.00146     0.41599
      H   17    0.08334      0.00000     0.41521    0.00145     0.41666
      H   18    0.09094      0.00000     0.40763    0.00143     0.40906
      H   19    0.10914      0.00000     0.38910    0.00176     0.39086
      H   20    0.05723      0.00000     0.44080    0.00197     0.44277
 =======================================================================
   * Total *    0.00000     13.99511    35.82252    0.18237    50.00000

 Normal termination of Gaussian 16 at Thu Dec 10 09:40:32 2020.
