 Gaussian 16, Revision A.03,

 -----------------------------------------------------------
 # opt freq B3LYP/6-31G(d) empiricaldispersion=gd3bj scf=xqc
 -----------------------------------------------------------

 ------------------------------
 CID_77749468_JID_2549_neutraal
 ------------------------------
 Symbolic Z-matrix:
 Charge =  0 Multiplicity = 1

 SCF Done:  E(RB3LYP) =  -486.581769627     A.U. after   13 cycles
 SCF Done:  E(RB3LYP) =  -486.588534786     A.U. after   11 cycles
 SCF Done:  E(RB3LYP) =  -486.588497921     A.U. after   10 cycles
 SCF Done:  E(RB3LYP) =  -486.589246667     A.U. after   10 cycles
 SCF Done:  E(RB3LYP) =  -486.589364278     A.U. after    9 cycles
 SCF Done:  E(RB3LYP) =  -486.589394666     A.U. after    8 cycles
 SCF Done:  E(RB3LYP) =  -486.589401116     A.U. after    8 cycles
 SCF Done:  E(RB3LYP) =  -486.589404001     A.U. after    8 cycles
 SCF Done:  E(RB3LYP) =  -486.589405305     A.U. after    8 cycles
 SCF Done:  E(RB3LYP) =  -486.589405845     A.U. after    8 cycles
 SCF Done:  E(RB3LYP) =  -486.589405920     A.U. after    7 cycles
 Optimization completed.
    -- Stationary point found.
 Normal termination of Gaussian 16 at Wed Dec  9 17:35:43 2020.

 --------------------------------------------------------------------
 #N Geom=AllCheck Guess=TCheck SCRF=Check GenChk RB3LYP/6-31G(d) Freq
 --------------------------------------------------------------------

 Structure from the checkpoint file:  "JID_2549.chk"
 ------------------------------
 CID_77749468_JID_2549_neutraal
 ------------------------------
 Charge =  0 Multiplicity = 1

 SCF Done:  E(RB3LYP) =  -486.589405920     A.U. after    1 cycles

  Exact polarizability: 121.858   0.250 119.557  -0.705   1.262 107.288
 Approx polarizability: 160.514   2.112 165.331  -1.434   1.864 163.181

                      1                      2                      3
                      A                      A                      A
 Frequencies --     50.2685                82.9224               167.9165
 Red. masses --      2.4474                 2.4786                 1.9910
 Frc consts  --      0.0036                 0.0100                 0.0331
 IR Inten    --      0.7499                 0.6531                 0.5653

                      4                      5                      6
                      A                      A                      A
 Frequencies --    191.6613               214.0372               226.0566
 Red. masses --      2.1587                 1.0437                 2.0834
 Frc consts  --      0.0467                 0.0282                 0.0627
 IR Inten    --      0.1528                 0.0802                 0.4316

                      7                      8                      9
                      A                      A                      A
 Frequencies --    250.8662               255.3629               275.5382
 Red. masses --      1.2775                 1.5506                 1.4789
 Frc consts  --      0.0474                 0.0596                 0.0662
 IR Inten    --      0.5562                 0.2313                 0.2918

                     10                     11                     12
                      A                      A                      A
 Frequencies --    299.9332               324.3736               375.4968
 Red. masses --      2.8207                 2.0403                 2.7466
 Frc consts  --      0.1495                 0.1265                 0.2282
 IR Inten    --      0.3435                 0.9549                 0.2706

                     13                     14                     15
                      A                      A                      A
 Frequencies --    389.2054               407.0460               422.6326
 Red. masses --      1.8406                 2.0043                 2.6834
 Frc consts  --      0.1643                 0.1957                 0.2824
 IR Inten    --      0.0375                 0.3521                 1.0092

                     16                     17                     18
                      A                      A                      A
 Frequencies --    424.4606               466.3821               534.5948
 Red. masses --      2.3985                 2.8511                 2.7679
 Frc consts  --      0.2546                 0.3654                 0.4661
 IR Inten    --      0.1635                 2.7153                 0.7228

                     19                     20                     21
                      A                      A                      A
 Frequencies --    555.8443               650.6180               673.2966
 Red. masses --      3.1988                 3.3625                 2.4179
 Frc consts  --      0.5823                 0.8386                 0.6458
 IR Inten    --      0.5206                 0.5029                 9.8088

                     22                     23                     24
                      A                      A                      A
 Frequencies --    707.9402               792.8602               826.2774
 Red. masses --      2.2856                 2.1620                 1.8828
 Frc consts  --      0.6749                 0.8007                 0.7574
 IR Inten    --     42.2532                23.3601                21.7105

                     25                     26                     27
                      A                      A                      A
 Frequencies --    861.2173               895.8756               908.7867
 Red. masses --      2.4691                 1.7018                 2.2653
 Frc consts  --      1.0790                 0.8048                 1.1023
 IR Inten    --      2.6026                 8.6137                 4.8082

                     28                     29                     30
                      A                      A                      A
 Frequencies --    942.9801               947.6676               964.1702
 Red. masses --      1.8248                 1.7439                 1.4053
 Frc consts  --      0.9560                 0.9228                 0.7697
 IR Inten    --      4.4254                 0.5613                 1.0536

                     31                     32                     33
                      A                      A                      A
 Frequencies --    968.1547               986.3714              1014.8989
 Red. masses --      1.7229                 1.9288                 1.5795
 Frc consts  --      0.9515                 1.1056                 0.9586
 IR Inten    --      2.6582                 1.4948                 3.7982

                     34                     35                     36
                      A                      A                      A
 Frequencies --   1039.0827              1048.7985              1051.6178
 Red. masses --      1.5307                 2.4067                 1.6411
 Frc consts  --      0.9737                 1.5598                 1.0693
 IR Inten    --      3.5882                 0.3579                 0.6236

                     37                     38                     39
                      A                      A                      A
 Frequencies --   1092.4839              1121.5663              1126.3057
 Red. masses --      1.3813                 1.6836                 1.5377
 Frc consts  --      0.9713                 1.2478                 1.1493
 IR Inten    --      1.7803                 0.1192                 1.0283

                     40                     41                     42
                      A                      A                      A
 Frequencies --   1147.2493              1159.7955              1167.8228
 Red. masses --      2.5323                 1.5111                 1.7186
 Frc consts  --      1.9637                 1.1976                 1.3810
 IR Inten    --     26.2005                 4.1530                15.8443

                     43                     44                     45
                      A                      A                      A
 Frequencies --   1186.8827              1213.4850              1218.1326
 Red. masses --      1.9712                 2.3143                 1.9861
 Frc consts  --      1.6361                 2.0079                 1.7364
 IR Inten    --     15.4660                 2.7685                 1.9911

                     46                     47                     48
                      A                      A                      A
 Frequencies --   1237.1169              1250.3186              1257.6612
 Red. masses --      1.6522                 2.0285                 1.8551
 Frc consts  --      1.4898                 1.8684                 1.7288
 IR Inten    --      0.1859                 0.6058                 3.7333

                     49                     50                     51
                      A                      A                      A
 Frequencies --   1273.9555              1310.3254              1329.7729
 Red. masses --      1.5760                 1.6367                 1.5823
 Frc consts  --      1.5070                 1.6556                 1.6485
 IR Inten    --      3.8770                 3.0520                 2.7056

                     52                     53                     54
                      A                      A                      A
 Frequencies --   1337.6322              1356.0759              1380.1039
 Red. masses --      1.7574                 1.3712                 1.4559
 Frc consts  --      1.8526                 1.4857                 1.6339
 IR Inten    --      1.6018                 0.3313                 1.2883

                     55                     56                     57
                      A                      A                      A
 Frequencies --   1390.7366              1393.7807              1404.8343
 Red. masses --      1.3309                 1.2497                 1.3858
 Frc consts  --      1.5167                 1.4303                 1.6114
 IR Inten    --      6.2855                 1.5998                 1.7649

                     58                     59                     60
                      A                      A                      A
 Frequencies --   1429.6730              1442.8797              1449.3191
 Red. masses --      1.2616                 1.2388                 1.2163
 Frc consts  --      1.5193                 1.5195                 1.5052
 IR Inten    --      3.3742                 3.2123                 4.7864

                     61                     62                     63
                      A                      A                      A
 Frequencies --   1481.6576              1510.5242              1515.3241
 Red. masses --      1.1574                 1.1565                 1.0584
 Frc consts  --      1.4971                 1.5547                 1.4319
 IR Inten    --      2.1231                18.9712                 0.8626

                     64                     65                     66
                      A                      A                      A
 Frequencies --   1518.2469              1520.9975              1523.8644
 Red. masses --      1.0504                 1.0589                 1.0634
 Frc consts  --      1.4265                 1.4434                 1.4549
 IR Inten    --      9.9697                 7.8291                 2.1168

                     67                     68                     69
                      A                      A                      A
 Frequencies --   1527.6125              1532.0105              1541.8565
 Red. masses --      1.0679                 1.0682                 1.0707
 Frc consts  --      1.4683                 1.4772                 1.4996
 IR Inten    --      2.7716                 4.9666                 3.0239

                     70                     71                     72
                      A                      A                      A
 Frequencies --   1550.0585              1552.7486              1564.3657
 Red. masses --      1.0667                 1.0702                 1.0619
 Frc consts  --      1.5100                 1.5203                 1.5311
 IR Inten    --     12.5204                 1.4819                 3.2060

                     73                     74                     75
                      A                      A                      A
 Frequencies --   2966.4517              3005.7289              3036.2441
 Red. masses --      1.0590                 1.0848                 1.0522
 Frc consts  --      5.4906                 5.7745                 5.7152
 IR Inten    --     72.5899                23.9984                 7.9400

                     76                     77                     78
                      A                      A                      A
 Frequencies --   3037.4331              3042.5743              3043.4546
 Red. masses --      1.0543                 1.0447                 1.0711
 Frc consts  --      5.7312                 5.6982                 5.8452
 IR Inten    --     25.4062                50.0857                 0.9767

                     79                     80                     81
                      A                      A                      A
 Frequencies --   3048.1301              3060.6989              3065.4365
 Red. masses --      1.0448                 1.0815                 1.0746
 Frc consts  --      5.7194                 5.9693                 5.9495
 IR Inten    --     41.2756                97.0277                70.6005

                     82                     83                     84
                      A                      A                      A
 Frequencies --   3069.4234              3073.5326              3083.8024
 Red. masses --      1.0821                 1.1002                 1.0705
 Frc consts  --      6.0068                 6.1237                 5.9980
 IR Inten    --     27.1886                27.0859                50.1431

                     85                     86                     87
                      A                      A                      A
 Frequencies --   3088.9880              3097.6759              3106.4645
 Red. masses --      1.1013                 1.1012                 1.1006
 Frc consts  --      6.1915                 6.2260                 6.2577
 IR Inten    --      5.9106                56.0314                59.4734

                     88                     89                     90
                      A                      A                      A
 Frequencies --   3111.5371              3125.4515              3136.7944
 Red. masses --      1.1025                 1.1020                 1.0962
 Frc consts  --      6.2890                 6.3424                 6.3552
 IR Inten    --     34.1673                30.1201                36.2764

                     91                     92                     93
                      A                      A                      A
 Frequencies --   3138.4863              3140.9242              3567.1804
 Red. masses --      1.0996                 1.0982                 1.0725
 Frc consts  --      6.3816                 6.3831                 8.0406
 IR Inten    --     19.8452                51.6024                 2.0773

 - Thermochemistry -
 -------------------
 Temperature   298.150 Kelvin.  Pressure   1.00000 Atm.
 Atom     1 has atomic number  6 and mass  12.00000

 Molecular mass:   167.16740 amu.
 Principal axes and moments of inertia in atomic units:
                           1         2         3
     Eigenvalues --  1538.733102033.201162602.07146
           X            0.99969  -0.02507  -0.00114
           Y            0.02506   0.99966  -0.00710
           Z            0.00132   0.00707   0.99997
 This molecule is an asymmetric top.
 Rotational symmetry number  1.
 Warning -- assumption of classical behavior for rotation
           may cause significant error
 Rotational temperatures (Kelvin)      0.05629     0.04260     0.03329
 Rotational constants (GHZ):           1.17287     0.88764     0.69358
 Zero-point vibrational energy     809027.3 (Joules/Mol)
                                  193.36217 (Kcal/Mol)
 Warning -- explicit consideration of  19 degrees of freedom as
           vibrations may cause significant error
 Vibrational temperatures:     72.33   119.31   241.59   275.76   307.95
          (Kelvin)            325.24   360.94   367.41   396.44   431.54
                              466.70   540.26   559.98   585.65   608.07
                              610.70   671.02   769.16   799.74   936.09
                              968.72  1018.57  1140.75  1188.83  1239.10
                             1288.97  1307.54  1356.74  1363.48  1387.23
                             1392.96  1419.17  1460.21  1495.01  1508.99
                             1513.04  1571.84  1613.68  1620.50  1650.64
                             1668.69  1680.24  1707.66  1745.93  1752.62
                             1779.94  1798.93  1809.49  1832.94  1885.27
                             1913.25  1924.55  1951.09  1985.66  2000.96
                             2005.34  2021.24  2056.98  2075.98  2085.25
                             2131.77  2173.31  2180.21  2184.42  2188.38
                             2192.50  2197.89  2204.22  2218.39  2230.19
                             2234.06  2250.77  4268.06  4324.57  4368.48
                             4370.19  4377.59  4378.85  4385.58  4403.66
                             4410.48  4416.22  4422.13  4436.90  4444.36
                             4456.86  4469.51  4476.81  4496.83  4513.15
                             4515.58  4519.09  5132.38

 Zero-point correction=                           0.308142 (Hartree/Particle)
 Thermal correction to Energy=                    0.320621
 Thermal correction to Enthalpy=                  0.321566
 Thermal correction to Gibbs Free Energy=         0.270786
 Sum of electronic and zero-point Energies=           -486.281264
 Sum of electronic and thermal Energies=              -486.268785
 Sum of electronic and thermal Enthalpies=            -486.267840
 Sum of electronic and thermal Free Energies=         -486.318620

                     E (Thermal)             CV                S
                      KCal/Mol        Cal/Mol-Kelvin    Cal/Mol-Kelvin
 Total                  201.193             50.478            106.874
 Electronic               0.000              0.000              0.000
 Translational            0.889              2.981             41.250
 Rotational               0.889              2.981             30.477
 Vibrational            199.416             44.516             35.147
 Vibration     1          0.595              1.977              4.807
 Vibration     2          0.600              1.961              3.820
 Vibration     3          0.625              1.882              2.459
 Vibration     4          0.634              1.851              2.212
 Vibration     5          0.644              1.820              2.009
 Vibration     6          0.650              1.801              1.910
 Vibration     7          0.663              1.761              1.724
 Vibration     8          0.666              1.754              1.693
 Vibration     9          0.677              1.719              1.561
 Vibration    10          0.692              1.674              1.417
 Vibration    11          0.709              1.627              1.288
 Vibration    12          0.746              1.522              1.057
 Vibration    13          0.757              1.493              1.003
 Vibration    14          0.772              1.455              0.937
 Vibration    15          0.785              1.421              0.883
 Vibration    16          0.786              1.417              0.877
 Vibration    17          0.824              1.325              0.748
 Vibration    18          0.890              1.173              0.577
 Vibration    19          0.911              1.127              0.532

 Optimization completed.
    -- Stationary point found.
 Normal termination of Gaussian 16 at Wed Dec  9 17:46:12 2020.

 ----------------------------------------------------------------------
 # B3LYP/6-311++G(d,p) empiricaldispersion=gd3bj scf=xqc pop=npa geom=c
 heck
 ----------------------------------------------------------------------

 --------------------------------------
 CID_77749468_JID_2549_Energie_neutraal
 --------------------------------------
 Structure from the checkpoint file:  "JID_2549.chk"
 Charge =  0 Multiplicity = 1

 SCF Done:  E(RB3LYP) =  -486.722544514     A.U. after   13 cycles
 Normal termination of Gaussian 16 at Wed Dec  9 17:49:55 2020.

 ----------------------------------------------------------------------
 # B3LYP/6-311++G(d,p) empiricaldispersion=gd3bj scf=xqc pop=npa geom=c
 heck
 ----------------------------------------------------------------------

 ------------------------------------
 CID_77749468_JID_2549_Energie_kation
 ------------------------------------
 Structure from the checkpoint file:  "JID_2549.chk"
 Charge =  1 Multiplicity = 2

 SCF Done:  E(UB3LYP) =  -486.429496092     A.U. after   20 cycles
 Normal termination of Gaussian 16 at Wed Dec  9 17:58:02 2020.
 Gaussian 16:  ES64L-G16RevA.03 25-Dec-2016

 ----------------------------------------------------------------------
 # B3LYP/6-311++G(d,p) empiricaldispersion=gd3bj scf=xqc pop=npa geom=c
 heck
 ----------------------------------------------------------------------

 -----------------------------------
 CID_77749468_JID_2549_Energie_anion
 -----------------------------------
 Structure from the checkpoint file:  "JID_2549.chk"
 Charge = -1 Multiplicity = 2

                         Standard orientation:
 ---------------------------------------------------------------------
 Center     Atomic      Atomic             Coordinates (Angstroms)
 Number     Number       Type             X           Y           Z
 ---------------------------------------------------------------------
      1          6           0        2.242105   -1.694101    0.624968
      2          6           0        1.073074   -1.342898   -0.296970
      3          6           0       -0.265315   -1.944952    0.228497
      4          6           0       -1.486208   -1.121682   -0.197315
      5          6           0       -1.228382   -0.519521   -1.605053
      6          6           0       -0.473763    0.619807   -0.862906
      7          6           0        0.995552    0.186742   -0.669085
      8          7           0        1.804780    1.038871    0.205487
      9          6           0        2.002871    2.394585   -0.287593
     10          6           0       -1.392019    0.330384    0.375751
     11          6           0       -0.878523    0.516643    1.805677
     12          6           0       -2.722879    1.087823    0.262783
     13          1           0        2.123719   -1.246952    1.618305
     14          1           0        3.192830   -1.335959    0.221509
     15          1           0        2.301381   -2.781698    0.755099
     16          1           0        1.268543   -1.849066   -1.249070
     17          1           0       -0.359357   -2.967609   -0.158469
     18          1           0       -0.244227   -2.039967    1.321296
     19          1           0       -2.423497   -1.664650   -0.025341
     20          1           0       -2.139297   -0.180282   -2.101560
     21          1           0       -0.652896   -1.122939   -2.314579
     22          1           0       -0.534093    1.628818   -1.286122
     23          1           0        1.472494    0.283216   -1.655269
     24          1           0        1.408157    1.075150    1.137618
     25          1           0        1.082491    2.991908   -0.414679
     26          1           0        2.660987    2.934822    0.401497
     27          1           0        2.504265    2.352892   -1.262194
     28          1           0       -0.683734    1.575696    2.016229
     29          1           0       -1.640437    0.181314    2.521091
     30          1           0        0.029189   -0.049168    2.026947
     31          1           0       -3.175334    1.012096   -0.729693
     32          1           0       -3.448239    0.699589    0.988698
     33          1           0       -2.575482    2.153709    0.477751
 ---------------------------------------------------------------------

 SCF Done:  E(UB3LYP) =  -486.705346816     A.U. after   27 cycles

 The electronic state is 2-A.
 Alpha  occ. eigenvalues --  -14.18672 -10.09057 -10.08039 -10.07496 -10.06779
 Alpha  occ. eigenvalues --  -10.06495 -10.06290 -10.05735 -10.05696 -10.05503
 Alpha  occ. eigenvalues --  -10.05191 -10.05148  -0.80431  -0.76156  -0.68213
 Alpha  occ. eigenvalues --   -0.64100  -0.61922  -0.58833  -0.56630  -0.54777
 Alpha  occ. eigenvalues --   -0.50836  -0.48687  -0.46414  -0.40167  -0.38662
 Alpha  occ. eigenvalues --   -0.37090  -0.36253  -0.34543  -0.33392  -0.32062
 Alpha  occ. eigenvalues --   -0.31568  -0.30815  -0.29596  -0.28813  -0.28069
 Alpha  occ. eigenvalues --   -0.27904  -0.26900  -0.26203  -0.26101  -0.23972
 Alpha  occ. eigenvalues --   -0.23166  -0.22194  -0.20931  -0.19637  -0.18533
 Alpha  occ. eigenvalues --   -0.16810  -0.11508   0.04665
 Alpha virt. eigenvalues --    0.06919   0.07134   0.07459   0.09001   0.09457
 Alpha virt. eigenvalues --    0.09574   0.09661   0.09918   0.11377   0.12053
 Alpha virt. eigenvalues --    0.12353   0.12494   0.12775   0.12874   0.13186

  Beta  occ. eigenvalues --  -14.18661 -10.09050 -10.08008 -10.07495 -10.06772
  Beta  occ. eigenvalues --  -10.06483 -10.06279 -10.05719 -10.05680 -10.05473
  Beta  occ. eigenvalues --  -10.05177 -10.05118  -0.80413  -0.76135  -0.68189
  Beta  occ. eigenvalues --   -0.64065  -0.61890  -0.58785  -0.56576  -0.54719
  Beta  occ. eigenvalues --   -0.50782  -0.48647  -0.46378  -0.40116  -0.38621
  Beta  occ. eigenvalues --   -0.37054  -0.36199  -0.34518  -0.33362  -0.32026
  Beta  occ. eigenvalues --   -0.31532  -0.30788  -0.29563  -0.28786  -0.28037
  Beta  occ. eigenvalues --   -0.27870  -0.26867  -0.26174  -0.26071  -0.23942
  Beta  occ. eigenvalues --   -0.23141  -0.22162  -0.20901  -0.19611  -0.18493
  Beta  occ. eigenvalues --   -0.16787  -0.11483
  Beta virt. eigenvalues --    0.06792   0.07713   0.07896   0.08037   0.09513
  Beta virt. eigenvalues --    0.09991   0.10067   0.10255   0.10370   0.11891
  Beta virt. eigenvalues --    0.12442   0.12719   0.12830   0.13151   0.13339

 Mulliken charges and spin densities:
               1          2
     1  C    0.567555  -1.279408
     2  C   -0.438174   0.255108
     3  C   -0.044897  -0.511036
     4  C   -0.282640   0.545036
     5  C    0.543550  -1.163711
     6  C   -0.019021   0.044440
     7  C   -0.277064   0.033269
     8  N   -0.199549   0.174815
     9  C    0.662736  -0.961859
    10  C   -1.490803   1.523987
    11  C    0.589505  -1.293011
    12  C    1.739710  -2.066090
    13  H    0.006659   0.124309
    14  H    0.023855   0.139517
    15  H   -0.135412   0.272822
    16  H    0.011389   0.170898
    17  H   -0.335397   0.504449
    18  H    0.080686   0.063382
    19  H   -0.439689   0.691602
    20  H   -0.331361   0.500369
    21  H   -0.118103   0.261715
    22  H    0.055165   0.204057
    23  H   -0.033185   0.234149
    24  H    0.252304  -0.075861
    25  H   -0.192153   0.312074
    26  H   -0.357759   0.496465
    27  H   -0.158367   0.288422
    28  H   -0.068271   0.234006
    29  H   -0.314363   0.468920
    30  H    0.071079   0.038503
    31  H   -0.131164   0.250369
    32  H   -0.136663   0.274096
    33  H   -0.100158   0.244198
 Sum of Mulliken charges =  -1.00000   1.00000

 Dipole moment (field-independent basis, Debye):
    X=              1.4540    Y=             -0.7856    Z=              0.1669  Tot=              1.6611
 Quadrupole moment (field-independent basis, Debye-Ang):
   XX=           -134.4389   YY=           -130.7580   ZZ=           -116.0317
   XY=             -4.1606   XZ=              0.0145   YZ=             -0.5872

 Summary of Natural Population Analysis:

                                       Natural Population
                Natural  -----------------------------------------------
    Atom  No    Charge         Core      Valence    Rydberg      Total
 -----------------------------------------------------------------------
      C    1   -0.27976      0.99964     2.27450    0.00561     3.27976
      C    2   -0.11432      0.99958     2.10402    0.01072     3.11432
      C    3   -0.18873      0.99960     2.17876    0.01037     3.18873
      C    4   -0.09866      0.99956     2.08578    0.01333     3.09866
      C    5   -0.18965      0.99962     2.18085    0.00918     3.18965
      C    6   -0.10733      0.99954     2.09453    0.01327     3.10733
      C    7   -0.00025      0.99955     1.98587    0.01483     3.00025
      N    8   -0.34561      0.99974     2.83389    0.01199     3.84561
      C    9   -0.17629      0.99966     2.16842    0.00822     3.17629
      C   10   -0.04053      0.99955     2.02632    0.01466     3.04053
      C   11   -0.29385      0.99961     2.28717    0.00708     3.29385
      C   12   -0.28119      0.99962     2.27461    0.00697     3.28119
      H   13    0.09506      0.00000     0.40376    0.00118     0.40494
      H   14    0.10402      0.00000     0.39479    0.00119     0.39598
      H   15    0.09533      0.00000     0.40370    0.00097     0.40467
      H   16    0.09717      0.00000     0.40144    0.00139     0.40283
      H   17    0.10104      0.00000     0.39774    0.00122     0.39896
      H   18    0.09629      0.00000     0.40226    0.00145     0.40371
      H   19    0.09739      0.00000     0.40085    0.00176     0.40261
      H   20    0.10163      0.00000     0.39706    0.00131     0.39837
      H   21    0.09511      0.00000     0.40361    0.00128     0.40489
      H   22    0.09934      0.00000     0.39888    0.00178     0.40066
      H   23    0.09339      0.00000     0.40511    0.00150     0.40661
      H   24    0.17510      0.00000     0.32141    0.00349     0.32490
      H   25    0.08004      0.00000     0.41836    0.00160     0.41996
      H   26    0.09350      0.00000     0.40554    0.00096     0.40650
      H   27    0.09031      0.00000     0.40853    0.00116     0.40969
      H   28    0.10206      0.00000     0.39675    0.00119     0.39794
      H   29    0.10276      0.00000     0.39622    0.00102     0.39724
      H   30    0.09748      0.00000     0.40109    0.00143     0.40252
      H   31    0.10072      0.00000     0.39797    0.00132     0.39928
      H   32    0.09891      0.00000     0.39997    0.00113     0.40109
      H   33    0.09954      0.00000     0.39937    0.00108     0.40046
 =======================================================================
   * Total *   -0.00000     11.99527    34.84910    0.15563    47.00000

 Normal termination of Gaussian 16 at Wed Dec  9 18:08:47 2020.
