 Gaussian 16, Revision A.03,

 -----------------------------------------------------------
 # opt freq B3LYP/6-31G(d) empiricaldispersion=gd3bj scf=xqc
 -----------------------------------------------------------

 ------------------------------
 CID_151242222_JID_811_neutraal
 ------------------------------
 Symbolic Z-matrix:
 Charge =  0 Multiplicity = 1

 SCF Done:  E(RB3LYP) =  -858.546576077     A.U. after   14 cycles
 SCF Done:  E(RB3LYP) =  -858.548901435     A.U. after   13 cycles
 SCF Done:  E(RB3LYP) =  -858.546574666     A.U. after   14 cycles
 SCF Done:  E(RB3LYP) =  -858.550064341     A.U. after   12 cycles
 SCF Done:  E(RB3LYP) =  -858.550311991     A.U. after   12 cycles
 SCF Done:  E(RB3LYP) =  -858.550608813     A.U. after   14 cycles
 SCF Done:  E(RB3LYP) =  -858.550700489     A.U. after   13 cycles
 SCF Done:  E(RB3LYP) =  -858.550632968     A.U. after   15 cycles
 SCF Done:  E(RB3LYP) =  -858.550898469     A.U. after   13 cycles
 SCF Done:  E(RB3LYP) =  -858.550994851     A.U. after   12 cycles
 SCF Done:  E(RB3LYP) =  -858.550999260     A.U. after   10 cycles
 SCF Done:  E(RB3LYP) =  -858.550999476     A.U. after    9 cycles
 SCF Done:  E(RB3LYP) =  -858.550998914     A.U. after    9 cycles
 SCF Done:  E(RB3LYP) =  -858.550999816     A.U. after    9 cycles
 SCF Done:  E(RB3LYP) =  -858.551000066     A.U. after    9 cycles
 SCF Done:  E(RB3LYP) =  -858.551000113     A.U. after    8 cycles
 Optimization completed.
    -- Stationary point found.
 Normal termination of Gaussian 16 at Tue Dec  8 12:49:32 2020.

 --------------------------------------------------------------------
 #N Geom=AllCheck Guess=TCheck SCRF=Check GenChk RB3LYP/6-31G(d) Freq
 --------------------------------------------------------------------

 Structure from the checkpoint file:  "JID_811.chk"
 ------------------------------
 CID_151242222_JID_811_neutraal
 ------------------------------
 Charge =  0 Multiplicity = 1

 SCF Done:  E(RB3LYP) =  -858.551000113     A.U. after    1 cycles

  Exact polarizability:  91.314   1.128  88.255   1.728   1.783  76.889
 Approx polarizability: 111.334   4.883 130.530   6.772   3.964 131.853

                      1                      2                      3
                      A                      A                      A
 Frequencies --     30.6429                39.2483                49.2342
 Red. masses --      5.3184                 8.4298                 8.2686
 Frc consts  --      0.0029                 0.0077                 0.0118
 IR Inten    --      2.7806                 2.6898                 4.9758

                      4                      5                      6
                      A                      A                      A
 Frequencies --     78.9230               132.2098               136.7467
 Red. masses --      3.7943                 2.7562                 4.0199
 Frc consts  --      0.0139                 0.0284                 0.0443
 IR Inten    --      0.4756                 1.8847                 0.6122

                      7                      8                      9
                      A                      A                      A
 Frequencies --    183.0078               237.6522               262.5784
 Red. masses --      3.3196                 1.4248                 1.9503
 Frc consts  --      0.0655                 0.0474                 0.0792
 IR Inten    --      0.6857                23.1116                 3.3294

                     10                     11                     12
                      A                      A                      A
 Frequencies --    290.4007               333.0554               382.5057
 Red. masses --      3.2066                 4.6026                 2.8221
 Frc consts  --      0.1593                 0.3008                 0.2433
 IR Inten    --      1.9337                 0.7311                 3.2727

                     13                     14                     15
                      A                      A                      A
 Frequencies --    495.5013               534.1342               593.7542
 Red. masses --      2.9478                 3.3203                 2.0382
 Frc consts  --      0.4264                 0.5581                 0.4234
 IR Inten    --     24.9110                13.0127                24.5779

                     16                     17                     18
                      A                      A                      A
 Frequencies --    620.3821               706.0001               758.6351
 Red. masses --      2.3821                 2.3225                 1.3268
 Frc consts  --      0.5402                 0.6820                 0.4499
 IR Inten    --     42.3890                93.4045                16.9803

                     19                     20                     21
                      A                      A                      A
 Frequencies --    790.3646               799.0781               858.2980
 Red. masses --      2.9398                 1.8004                 2.6124
 Frc consts  --      1.0820                 0.6773                 1.1339
 IR Inten    --      7.8559                 6.2719                 3.0545

                     22                     23                     24
                      A                      A                      A
 Frequencies --    921.1112               967.4153               987.7414
 Red. masses --      1.6931                 1.6170                 1.6886
 Frc consts  --      0.8464                 0.8917                 0.9707
 IR Inten    --      5.4995                 2.0816                11.0921

                     25                     26                     27
                      A                      A                      A
 Frequencies --   1028.1867              1075.4318              1100.5794
 Red. masses --      3.1539                 2.1452                 2.3615
 Frc consts  --      1.9645                 1.4618                 1.6853
 IR Inten    --      1.3720                 7.3847                 4.5950

                     28                     29                     30
                      A                      A                      A
 Frequencies --   1130.2679              1174.0601              1214.5761
 Red. masses --      2.6374                 2.0957                 1.4635
 Frc consts  --      1.9851                 1.7020                 1.2720
 IR Inten    --     69.7151               154.3173                36.7027

                     31                     32                     33
                      A                      A                      A
 Frequencies --   1242.5804              1270.8789              1306.4045
 Red. masses --      1.3248                 1.1864                 1.3625
 Frc consts  --      1.2052                 1.1290                 1.3700
 IR Inten    --     47.1080                 4.4377                 4.8667

                     34                     35                     36
                      A                      A                      A
 Frequencies --   1336.9900              1360.7772              1369.9815
 Red. masses --      1.2947                 1.3197                 1.2299
 Frc consts  --      1.3635                 1.4398                 1.3601
 IR Inten    --      1.3309                 4.4711                 1.7467

                     37                     38                     39
                      A                      A                      A
 Frequencies --   1419.6252              1427.4576              1442.0602
 Red. masses --      1.4681                 2.1442                 1.2154
 Frc consts  --      1.7432                 2.5742                 1.4892
 IR Inten    --      2.3751                65.2969                 4.0344

                     40                     41                     42
                      A                      A                      A
 Frequencies --   1493.7285              1508.4435              1525.0230
 Red. masses --      1.0948                 1.0827                 1.0937
 Frc consts  --      1.4392                 1.4515                 1.4986
 IR Inten    --      6.4824                 4.3949                 4.6012

                     43                     44                     45
                      A                      A                      A
 Frequencies --   1837.8732              1839.4396              2678.6434
 Red. masses --      9.6470                 9.7470                 1.0383
 Frc consts  --     19.1988                19.4309                 4.3895
 IR Inten    --    256.2674               125.4421                 8.5386

                     46                     47                     48
                      A                      A                      A
 Frequencies --   2875.4545              3032.1581              3038.6188
 Red. masses --      1.0827                 1.0667                 1.0663
 Frc consts  --      5.2746                 5.7781                 5.8009
 IR Inten    --    116.6171                19.6929                19.9818

                     49                     50                     51
                      A                      A                      A
 Frequencies --   3069.4322              3092.9229              3107.8398
 Red. masses --      1.0603                 1.0951                 1.0906
 Frc consts  --      5.8855                 6.1724                 6.2062
 IR Inten    --      9.5248                 6.6820                 7.5981

                     52                     53                     54
                      A                      A                      A
 Frequencies --   3116.2742              3123.0972              3681.7349
 Red. masses --      1.0972                 1.0994                 1.0639
 Frc consts  --      6.2779                 6.3180                 8.4970
 IR Inten    --      7.7643                25.7643                55.4856

 - Thermochemistry -
 -------------------
 Temperature   298.150 Kelvin.  Pressure   1.00000 Atm.
 Atom     1 has atomic number  6 and mass  12.00000

 Molecular mass:   162.03507 amu.
 Principal axes and moments of inertia in atomic units:
                           1         2         3
     Eigenvalues --  1030.887803360.334744004.90243
           X            0.99994  -0.01014  -0.00353
           Y            0.01020   0.99981   0.01679
           Z            0.00336  -0.01683   0.99985
 This molecule is an asymmetric top.
 Rotational symmetry number  1.
 Warning -- assumption of classical behavior for rotation
           may cause significant error
 Rotational temperatures (Kelvin)      0.08402     0.02578     0.02163
 Rotational constants (GHZ):           1.75067     0.53707     0.45063
 Zero-point vibrational energy     413364.6 (Joules/Mol)
                                   98.79651 (Kcal/Mol)
 Warning -- explicit consideration of  16 degrees of freedom as
           vibrations may cause significant error
 Vibrational temperatures:     44.09    56.47    70.84   113.55   190.22
          (Kelvin)            196.75   263.31   341.93   377.79   417.82
                              479.19   550.34   712.92   768.50   854.28
                              892.59  1015.78  1091.51  1137.16  1149.70
                             1234.90  1325.27  1391.89  1421.14  1479.33
                             1547.31  1583.49  1626.20  1689.21  1747.50
                             1787.80  1828.51  1879.62  1923.63  1957.85
                             1971.10  2042.52  2053.79  2074.80  2149.14
                             2170.31  2194.17  2644.29  2646.54  3853.97
                             4137.14  4362.60  4371.89  4416.23  4450.03
                             4471.49  4483.62  4493.44  5297.20

 Zero-point correction=                           0.157442 (Hartree/Particle)
 Thermal correction to Energy=                    0.169200
 Thermal correction to Enthalpy=                  0.170144
 Thermal correction to Gibbs Free Energy=         0.117181
 Sum of electronic and zero-point Energies=           -858.393558
 Sum of electronic and thermal Energies=              -858.381800
 Sum of electronic and thermal Enthalpies=            -858.380856
 Sum of electronic and thermal Free Energies=         -858.433819

                     E (Thermal)             CV                S
                      KCal/Mol        Cal/Mol-Kelvin    Cal/Mol-Kelvin
 Total                  106.175             40.072            111.471
 Electronic               0.000              0.000              0.000
 Translational            0.889              2.981             41.157
 Rotational               0.889              2.981             31.007
 Vibrational            104.397             34.111             39.308
 Vibration     1          0.594              1.984              5.787
 Vibration     2          0.594              1.981              5.297
 Vibration     3          0.595              1.978              4.848
 Vibration     4          0.600              1.963              3.917
 Vibration     5          0.612              1.921              2.914
 Vibration     6          0.614              1.917              2.849
 Vibration     7          0.631              1.863              2.298
 Vibration     8          0.656              1.783              1.820
 Vibration     9          0.670              1.741              1.645
 Vibration    10          0.686              1.692              1.472
 Vibration    11          0.715              1.609              1.245
 Vibration    12          0.752              1.507              1.029
 Vibration    13          0.851              1.260              0.669
 Vibration    14          0.889              1.175              0.578
 Vibration    15          0.951              1.045              0.461
 Vibration    16          0.980              0.989              0.416

 Optimization completed.
    -- Stationary point found.
 Normal termination of Gaussian 16 at Tue Dec  8 13:04:03 2020.

 ----------------------------------------------------------------------
 # B3LYP/6-311++G(d,p) empiricaldispersion=gd3bj scf=xqc pop=npa geom=c
 heck
 ----------------------------------------------------------------------

 --------------------------------------
 CID_151242222_JID_811_Energie_neutraal
 --------------------------------------
 Structure from the checkpoint file:  "JID_811.chk"
 Charge =  0 Multiplicity = 1

 SCF Done:  E(RB3LYP) =  -858.730834069     A.U. after   14 cycles
 Normal termination of Gaussian 16 at Tue Dec  8 13:08:29 2020.

 ----------------------------------------------------------------------
 # B3LYP/6-311++G(d,p) empiricaldispersion=gd3bj scf=xqc pop=npa geom=c
 heck
 ----------------------------------------------------------------------

 ------------------------------------
 CID_151242222_JID_811_Energie_kation
 ------------------------------------
 Structure from the checkpoint file:  "JID_811.chk"
 Charge =  1 Multiplicity = 2

 SCF Done:  E(UB3LYP) =  -858.398759341     A.U. after   27 cycles
 Normal termination of Gaussian 16 at Tue Dec  8 13:23:25 2020.
 Gaussian 16:  ES64L-G16RevA.03 25-Dec-2016

 ----------------------------------------------------------------------
 # B3LYP/6-311++G(d,p) empiricaldispersion=gd3bj scf=xqc pop=npa geom=c
 heck
 ----------------------------------------------------------------------

 -----------------------------------
 CID_151242222_JID_811_Energie_anion
 -----------------------------------
 Structure from the checkpoint file:  "JID_811.chk"
 Charge = -1 Multiplicity = 2

                         Standard orientation:
 ---------------------------------------------------------------------
 Center     Atomic      Atomic             Coordinates (Angstroms)
 Number     Number       Type             X           Y           Z
 ---------------------------------------------------------------------
      1          6           0        1.160929   -0.991632   -0.307187
      2          6           0        2.604840   -1.018398    0.226902
      3          6           0        3.442759    0.078556   -0.388252
      4          8           0        4.017553    0.946175    0.229525
      5          6           0        0.400718    0.264666    0.137930
      6          6           0       -1.023063    0.316441   -0.415853
      7          6           0       -1.873310   -0.828002    0.104536
      8          8           0       -1.819395   -1.266575    1.233233
      9          8           0       -2.718490   -1.302759   -0.835431
     10         16           0       -1.894646    1.895813   -0.004011
     11          1           0        0.637742   -1.885062    0.049947
     12          1           0        1.176074   -1.049567   -1.405073
     13          1           0        2.629283   -0.911816    1.316077
     14          1           0        3.066954   -1.980745   -0.036837
     15          1           0        3.490067    0.048630   -1.503031
     16          1           0        0.352520    0.289277    1.232329
     17          1           0        0.929100    1.168843   -0.182529
     18          1           0       -1.024070    0.291573   -1.509090
     19          1           0       -3.255819   -1.991169   -0.399475
     20          1           0       -1.802097    1.742522    1.334792
 ---------------------------------------------------------------------

 SCF Done:  E(UB3LYP) =  -858.726011300     A.U. after   32 cycles

 The electronic state is 2-A.
 Alpha  occ. eigenvalues --  -88.73755 -19.05413 -18.99845 -18.98148 -10.18877
 Alpha  occ. eigenvalues --  -10.11377 -10.10659 -10.06484 -10.06308 -10.06155
 Alpha  occ. eigenvalues --   -7.82422  -5.78801  -5.78469  -5.77806  -0.99539
 Alpha  occ. eigenvalues --   -0.91529  -0.90664  -0.72142  -0.67453  -0.60261
 Alpha  occ. eigenvalues --   -0.56511  -0.51071  -0.46252  -0.44975  -0.40645
 Alpha  occ. eigenvalues --   -0.37359  -0.35744  -0.35248  -0.33936  -0.32303
 Alpha  occ. eigenvalues --   -0.30333  -0.29900  -0.29048  -0.27360  -0.26091
 Alpha  occ. eigenvalues --   -0.24798  -0.24151  -0.23261  -0.21894  -0.20868
 Alpha  occ. eigenvalues --   -0.17440  -0.13621  -0.12761   0.04891
 Alpha virt. eigenvalues --    0.07191   0.08007   0.08749   0.09040   0.09406
 Alpha virt. eigenvalues --    0.11382   0.11675   0.12318   0.13311   0.13588
 Alpha virt. eigenvalues --    0.14573   0.15420   0.16098   0.16628   0.16860

  Beta  occ. eigenvalues --  -88.73721 -19.05330 -18.99767 -18.97843 -10.18798
  Beta  occ. eigenvalues --  -10.11112 -10.10582 -10.06476 -10.06244 -10.06177
  Beta  occ. eigenvalues --   -7.82390  -5.78707  -5.78439  -5.77786  -0.99375
  Beta  occ. eigenvalues --   -0.90952  -0.90511  -0.72015  -0.67274  -0.60069
  Beta  occ. eigenvalues --   -0.56268  -0.50799  -0.46076  -0.44569  -0.40504
  Beta  occ. eigenvalues --   -0.37253  -0.35420  -0.34983  -0.33772  -0.32015
  Beta  occ. eigenvalues --   -0.30140  -0.29718  -0.28664  -0.27068  -0.25979
  Beta  occ. eigenvalues --   -0.24248  -0.23649  -0.23087  -0.21500  -0.20540
  Beta  occ. eigenvalues --   -0.17339  -0.13522  -0.12520
  Beta virt. eigenvalues --    0.08043   0.08646   0.08930   0.09472   0.09629
  Beta virt. eigenvalues --    0.10193   0.11640   0.11898   0.12388   0.13522
  Beta virt. eigenvalues --    0.13872   0.14608   0.15507   0.15977   0.16666

 Mulliken charges and spin densities:
               1          2
     1  C    0.201381  -0.345464
     2  C   -0.192064  -0.059765
     3  C   -0.183325   0.140886
     4  O   -0.292578   0.088389
     5  C   -0.898068   0.129977
     6  C    1.710290  -0.795433
     7  C   -0.233109  -0.380320
     8  O   -0.287274   0.027952
     9  O   -0.159537   0.064009
    10  S   -0.467587   0.332452
    11  H   -0.140726   0.324931
    12  H    0.047823   0.084508
    13  H    0.153025   0.000079
    14  H   -0.033150   0.173956
    15  H   -0.001406   0.029852
    16  H    0.160306   0.022159
    17  H    0.191999  -0.048722
    18  H   -0.025675   0.346123
    19  H   -0.581840   0.868294
    20  H    0.031513  -0.003862
 Sum of Mulliken charges =  -1.00000   1.00000

 Dipole moment (field-independent basis, Debye):
    X=              1.1577    Y=              1.7618    Z=              0.4041  Tot=              2.1465
 Quadrupole moment (field-independent basis, Debye-Ang):
   XX=           -133.5767   YY=            -99.1783   ZZ=            -84.0495
   XY=            -17.7072   XZ=             -5.6016   YZ=             -0.1081

 Summary of Natural Population Analysis:

                                       Natural Population
                Natural  -----------------------------------------------
    Atom  No    Charge         Core      Valence    Rydberg      Total
 -----------------------------------------------------------------------
      C    1   -0.18828      0.99962     2.17927    0.00939     3.18828
      C    2   -0.23917      0.99962     2.22962    0.00993     3.23917
      C    3    0.25378      0.99974     1.72550    0.02098     2.74622
      O    4   -0.25908      0.99988     3.25214    0.00706     4.25908
      C    5   -0.19831      0.99960     2.18726    0.01146     3.19831
      C    6   -0.19158      0.99950     2.17839    0.01369     3.19158
      C    7    0.41021      0.99965     1.56242    0.02772     2.58979
      O    8   -0.31074      0.99987     3.30464    0.00624     4.31074
      O    9   -0.34145      0.99987     3.33437    0.00720     4.34145
      S   10   -0.00181      4.99966     2.98746    0.01469     8.00181
      H   11    0.10562      0.00000     0.39300    0.00138     0.39438
      H   12    0.09471      0.00000     0.40374    0.00155     0.40529
      H   13    0.10147      0.00000     0.39739    0.00114     0.39853
      H   14    0.10566      0.00000     0.39316    0.00118     0.39434
      H   15    0.03240      0.00000     0.46531    0.00229     0.46760
      H   16    0.10374      0.00000     0.39511    0.00115     0.39626
      H   17    0.10626      0.00000     0.39249    0.00125     0.39374
      H   18    0.11439      0.00000     0.38454    0.00108     0.38561
      H   19    0.24288      0.00000     0.23101    0.02612     0.25712
      H   20    0.05931      0.00000     0.43795    0.00273     0.44069
 =======================================================================
   * Total *    0.00000     13.99701    28.83476    0.16823    43.00000

 Normal termination of Gaussian 16 at Tue Dec  8 13:32:52 2020.
