 Gaussian 16, Revision A.03,

 -----------------------------------------------------------
 # opt freq B3LYP/6-31G(d) empiricaldispersion=gd3bj scf=xqc
 -----------------------------------------------------------

 -----------------------------
 CID_54594787_JID_107_neutraal
 -----------------------------
 Symbolic Z-matrix:
 Charge =  0 Multiplicity = 1

 SCF Done:  E(RB3LYP) =  -799.100082144     A.U. after   14 cycles
 SCF Done:  E(RB3LYP) =  -799.103813038     A.U. after   12 cycles
 SCF Done:  E(RB3LYP) =  -799.104457147     A.U. after   12 cycles
 SCF Done:  E(RB3LYP) =  -799.105188022     A.U. after   14 cycles
 SCF Done:  E(RB3LYP) =  -799.105986266     A.U. after   14 cycles
 SCF Done:  E(RB3LYP) =  -799.106639714     A.U. after   12 cycles
 SCF Done:  E(RB3LYP) =  -799.106975718     A.U. after   12 cycles
 SCF Done:  E(RB3LYP) =  -799.107000229     A.U. after   12 cycles
 SCF Done:  E(RB3LYP) =  -799.107055060     A.U. after   10 cycles
 SCF Done:  E(RB3LYP) =  -799.107064826     A.U. after    9 cycles
 SCF Done:  E(RB3LYP) =  -799.107065809     A.U. after    8 cycles
 SCF Done:  E(RB3LYP) =  -799.107066118     A.U. after    7 cycles
 SCF Done:  E(RB3LYP) =  -799.107066239     A.U. after    7 cycles
 Optimization completed.
    -- Stationary point found.
 Normal termination of Gaussian 16 at Tue Dec  8 10:16:28 2020.

 --------------------------------------------------------------------
 #N Geom=AllCheck Guess=TCheck SCRF=Check GenChk RB3LYP/6-31G(d) Freq
 --------------------------------------------------------------------

 Structure from the checkpoint file:  "JID_107.chk"
 -----------------------------
 CID_54594787_JID_107_neutraal
 -----------------------------
 Charge =  0 Multiplicity = 1

 SCF Done:  E(RB3LYP) =  -799.107066239     A.U. after    1 cycles

  Exact polarizability: 144.453   2.472  92.263   4.230  -0.185  48.328
 Approx polarizability: 218.601  -5.683 172.111   9.384  -2.349  75.371

                      1                      2                      3
                      A                      A                      A
 Frequencies --     66.7815               118.1467               191.6791
 Red. masses --      3.7866                 3.6310                 3.9947
 Frc consts  --      0.0099                 0.0299                 0.0865
 IR Inten    --      3.5978                 6.7513                 2.8369

                      4                      5                      6
                      A                      A                      A
 Frequencies --    234.5540               281.1904               327.7223
 Red. masses --      2.9906                 3.7854                 1.7634
 Frc consts  --      0.0969                 0.1763                 0.1116
 IR Inten    --     10.7392                 4.8798                33.5800

                      7                      8                      9
                      A                      A                      A
 Frequencies --    357.5061               431.7529               498.2997
 Red. masses --      3.3388                 4.9775                 4.0669
 Frc consts  --      0.2514                 0.5467                 0.5950
 IR Inten    --     18.3412                 7.0527                 7.8129

                     10                     11                     12
                      A                      A                      A
 Frequencies --    547.7366               589.3443               597.8028
 Red. masses --     13.9395                 4.1859                 3.9959
 Frc consts  --      2.4640                 0.8566                 0.8414
 IR Inten    --      5.0119                 6.3316                 1.1735

                     13                     14                     15
                      A                      A                      A
 Frequencies --    668.2384               691.7777               720.1956
 Red. masses --      5.3705                 3.5379                 1.5193
 Frc consts  --      1.4129                 0.9975                 0.4643
 IR Inten    --      9.7820                 8.4794                32.4834

                     16                     17                     18
                      A                      A                      A
 Frequencies --    781.5596               815.7633               833.1513
 Red. masses --      5.4489                 1.3732                 1.2488
 Frc consts  --      1.9610                 0.5384                 0.5107
 IR Inten    --      6.2956                23.2269                 6.2877

                     19                     20                     21
                      A                      A                      A
 Frequencies --    863.9706               918.9206               984.4802
 Red. masses --      1.2624                 6.1952                 1.6436
 Frc consts  --      0.5552                 3.0822                 0.9386
 IR Inten    --    111.2401                 9.7727                21.6174

                     22                     23                     24
                      A                      A                      A
 Frequencies --   1029.0340              1054.7962              1093.8822
 Red. masses --      2.7411                 2.6093                 3.5657
 Frc consts  --      1.7101                 1.7104                 2.5138
 IR Inten    --      4.9352                11.7421                16.9005

                     25                     26                     27
                      A                      A                      A
 Frequencies --   1154.8535              1172.2568              1192.3765
 Red. masses --      1.8155                 1.8312                 1.2763
 Frc consts  --      1.4266                 1.4826                 1.0691
 IR Inten    --     22.3415                18.7094                 5.6167

                     28                     29                     30
                      A                      A                      A
 Frequencies --   1223.4519              1256.2086              1327.1925
 Red. masses --      2.2979                 1.9413                 1.3025
 Frc consts  --      2.0266                 1.8050                 1.3518
 IR Inten    --      9.1059                 1.8405                 2.8309

                     31                     32                     33
                      A                      A                      A
 Frequencies --   1387.7184              1427.8792              1472.5858
 Red. masses --      3.8731                 1.5317                 3.9225
 Frc consts  --      4.3946                 1.8400                 5.0115
 IR Inten    --      9.1744                35.0638                39.6695

                     34                     35                     36
                      A                      A                      A
 Frequencies --   1527.5680              1535.0826              1557.2902
 Red. masses --      1.4451                 2.8537                 5.1642
 Frc consts  --      1.9868                 3.9620                 7.3789
 IR Inten    --      0.6923                 2.0213                13.3974

                     37                     38                     39
                      A                      A                      A
 Frequencies --   1599.5227              1691.0641              2964.2848
 Red. masses --      6.5874                 1.0936                 1.0720
 Frc consts  --      9.9299                 1.8426                 5.5501
 IR Inten    --      3.9708                34.4643                74.9135

                     40                     41                     42
                      A                      A                      A
 Frequencies --   3039.7459              3239.8663              3275.8549
 Red. masses --      1.0887                 1.0941                 1.0917
 Frc consts  --      5.9271                 6.7662                 6.9022
 IR Inten    --     34.7881                 4.0575                 3.7926

                     43                     44                     45
                      A                      A                      A
 Frequencies --   3304.2537              3477.5094              3568.4713
 Red. masses --      1.1034                 1.0494                 1.0937
 Frc consts  --      7.0977                 7.4767                 8.2059
 IR Inten    --      1.1104                 1.5911                 0.5605

 - Thermochemistry -
 -------------------
 Temperature   298.150 Kelvin.  Pressure   1.00000 Atm.
 Atom     1 has atomic number  6 and mass  12.00000

 Molecular mass:   153.02484 amu.
 Principal axes and moments of inertia in atomic units:
                           1         2         3
     Eigenvalues --   538.937612370.518972845.05869
           X            0.99977   0.02161  -0.00163
           Y           -0.02159   0.99973   0.00870
           Z            0.00182  -0.00867   0.99996
 This molecule is an asymmetric top.
 Rotational symmetry number  1.
 Warning -- assumption of classical behavior for rotation
           may cause significant error
 Rotational temperatures (Kelvin)      0.16071     0.03654     0.03044
 Rotational constants (GHZ):           3.34870     0.76133     0.63434
 Zero-point vibrational energy     341493.9 (Joules/Mol)
                                   81.61900 (Kcal/Mol)
 Warning -- explicit consideration of  12 degrees of freedom as
           vibrations may cause significant error
 Vibrational temperatures:     96.08   169.99   275.78   337.47   404.57
          (Kelvin)            471.52   514.37   621.20   716.94   788.07
                              847.94   860.10   961.45   995.31  1036.20
                             1124.49  1173.70  1198.72  1243.06  1322.12
                             1416.45  1480.55  1517.62  1573.85  1661.58
                             1686.62  1715.56  1760.27  1807.40  1909.53
                             1996.62  2054.40  2118.72  2197.83  2208.64
                             2240.59  2301.36  2433.06  4264.94  4373.52
                             4661.44  4713.22  4754.08  5003.36  5134.23

 Zero-point correction=                           0.130068 (Hartree/Particle)
 Thermal correction to Energy=                    0.138637
 Thermal correction to Enthalpy=                  0.139581
 Thermal correction to Gibbs Free Energy=         0.096111
 Sum of electronic and zero-point Energies=           -798.976998
 Sum of electronic and thermal Energies=              -798.968429
 Sum of electronic and thermal Enthalpies=            -798.967485
 Sum of electronic and thermal Free Energies=         -799.010956

                     E (Thermal)             CV                S
                      KCal/Mol        Cal/Mol-Kelvin    Cal/Mol-Kelvin
 Total                   86.996             32.830             91.492
 Electronic               0.000              0.000              0.000
 Translational            0.889              2.981             40.986
 Rotational               0.889              2.981             29.676
 Vibrational             85.219             26.869             20.830
 Vibration     1          0.598              1.970              4.246
 Vibration     2          0.608              1.934              3.130
 Vibration     3          0.634              1.851              2.212
 Vibration     4          0.654              1.788              1.844
 Vibration     5          0.681              1.708              1.526
 Vibration     6          0.711              1.620              1.271
 Vibration     7          0.733              1.560              1.133
 Vibration     8          0.793              1.401              0.853
 Vibration     9          0.854              1.254              0.662
 Vibration    10          0.903              1.145              0.549
 Vibration    11          0.947              1.054              0.468
 Vibration    12          0.956              1.036              0.453

                           ! Non-Optimized Parameters !
 Normal termination of Gaussian 16 at Tue Dec  8 10:18:49 2020.

 ----------------------------------------------------------------------
 # B3LYP/6-311++G(d,p) empiricaldispersion=gd3bj scf=xqc pop=npa geom=c
 heck
 ----------------------------------------------------------------------

 -------------------------------------
 CID_54594787_JID_107_Energie_neutraal
 -------------------------------------
 Structure from the checkpoint file:  "JID_107.chk"
 Charge =  0 Multiplicity = 1

 SCF Done:  E(RB3LYP) =  -799.249094580     A.U. after   15 cycles
 Normal termination of Gaussian 16 at Tue Dec  8 10:19:32 2020.

 ----------------------------------------------------------------------
 # B3LYP/6-311++G(d,p) empiricaldispersion=gd3bj scf=xqc pop=npa geom=c
 heck
 ----------------------------------------------------------------------

 -----------------------------------
 CID_54594787_JID_107_Energie_kation
 -----------------------------------
 Structure from the checkpoint file:  "JID_107.chk"
 Charge =  1 Multiplicity = 2

 SCF Done:  E(UB3LYP) =  -798.967132808     A.U. after   23 cycles
 Normal termination of Gaussian 16 at Tue Dec  8 10:21:18 2020.
 Gaussian 16:  ES64L-G16RevA.03 25-Dec-2016

 ----------------------------------------------------------------------
 # B3LYP/6-311++G(d,p) empiricaldispersion=gd3bj scf=xqc pop=npa geom=c
 heck
 ----------------------------------------------------------------------

 ----------------------------------
 CID_54594787_JID_107_Energie_anion
 ----------------------------------
 Structure from the checkpoint file:  "JID_107.chk"
 Charge = -1 Multiplicity = 2

                         Standard orientation:
 ---------------------------------------------------------------------
 Center     Atomic      Atomic             Coordinates (Angstroms)
 Number     Number       Type             X           Y           Z
 ---------------------------------------------------------------------
      1          6           0        2.394167    1.095977    0.036131
      2          6           0        3.140682   -0.043865    0.129293
      3          8           0        2.359026   -1.177521    0.110306
      4          6           0        1.075445   -0.732860   -0.003244
      5          6           0        1.038628    0.646049   -0.057472
      6         16           0       -0.604588    1.208622   -0.155966
      7          6           0       -1.191624   -0.463603   -0.136513
      8          6           0       -0.182613   -1.387603   -0.040458
      9          6           0       -2.663270   -0.712168   -0.275128
     10          7           0       -3.426220    0.316520    0.435508
     11          1           0        2.771949    2.108050    0.028731
     12          1           0        4.202391   -0.219265    0.206868
     13          1           0       -0.341685   -2.458544   -0.006689
     14          1           0       -2.954859   -0.652472   -1.332958
     15          1           0       -2.863309   -1.749612    0.046881
     16          1           0       -4.422699    0.196751    0.267035
     17          1           0       -3.275536    0.230111    1.438931
 ---------------------------------------------------------------------

 SCF Done:  E(UB3LYP) =  -799.235581417     A.U. after   33 cycles
 SCF Done:  E(UB3LYP) =  -799.235581417     a.u. after    1 cycles

 The electronic state is 2-A.
 Alpha  occ. eigenvalues --  -88.75709 -19.08235 -14.17791 -10.11833 -10.11255
 Alpha  occ. eigenvalues --  -10.08800 -10.08732 -10.08056 -10.07752 -10.06466
 Alpha  occ. eigenvalues --   -7.84243  -5.80568  -5.80199  -5.79777  -1.00484
 Alpha  occ. eigenvalues --   -0.78047  -0.75466  -0.68962  -0.62801  -0.61430
 Alpha  occ. eigenvalues --   -0.55711  -0.48702  -0.44938  -0.44459  -0.39357
 Alpha  occ. eigenvalues --   -0.38022  -0.35954  -0.35282  -0.33847  -0.30649
 Alpha  occ. eigenvalues --   -0.30143  -0.28225  -0.27005  -0.25495  -0.23988
 Alpha  occ. eigenvalues --   -0.22833  -0.18338  -0.13566  -0.12716  -0.09995
 Alpha  occ. eigenvalues --    0.04913
 Alpha virt. eigenvalues --    0.06462   0.08045   0.08401   0.08949   0.09980
 Alpha virt. eigenvalues --    0.11121   0.12040   0.12667   0.12816   0.14184
 Alpha virt. eigenvalues --    0.14606   0.15014   0.15925   0.16179   0.17345

  Beta  occ. eigenvalues --  -88.75693 -19.08191 -14.17719 -10.11759 -10.11259
  Beta  occ. eigenvalues --  -10.08717 -10.08691 -10.08022 -10.07753 -10.06428
  Beta  occ. eigenvalues --   -7.84226  -5.80555  -5.80189  -5.79739  -1.00410
  Beta  occ. eigenvalues --   -0.77917  -0.75367  -0.68873  -0.62672  -0.61321
  Beta  occ. eigenvalues --   -0.55563  -0.48659  -0.44808  -0.44369  -0.39280
  Beta  occ. eigenvalues --   -0.37910  -0.35847  -0.35098  -0.33756  -0.30524
  Beta  occ. eigenvalues --   -0.30099  -0.28118  -0.26938  -0.25406  -0.23784
  Beta  occ. eigenvalues --   -0.22761  -0.18112  -0.13443  -0.12520  -0.09596
  Beta virt. eigenvalues --    0.06955   0.08008   0.08754   0.08781   0.09739
  Beta virt. eigenvalues --    0.10825   0.11644   0.12662   0.12889   0.13164
  Beta virt. eigenvalues --    0.14259   0.14568   0.15194   0.15922   0.16168

 Mulliken charges and spin densities:
               1          2
     1  C   -0.330475   0.495793
     2  C    0.433741  -0.294495
     3  O   -0.107185   0.020560
     4  C   -0.366728  -0.965371
     5  C    0.989338   0.131834
     6  S   -0.165818  -0.546664
     7  C   -1.299792   1.172903
     8  C   -0.677798   1.348775
     9  C    3.434604  -4.235188
    10  N   -0.508063   0.141336
    11  H   -0.288862   0.458727
    12  H   -0.295004   0.471906
    13  H   -0.280152   0.446029
    14  H   -0.517744   0.702755
    15  H   -0.552469   0.725370
    16  H   -0.371887   0.622697
    17  H   -0.095703   0.303032
 Sum of Mulliken charges =  -1.00000   1.00000

 Dipole moment (field-independent basis, Debye):
    X=              7.1575    Y=              1.0217    Z=              0.9108  Tot=              7.2872
 Quadrupole moment (field-independent basis, Debye-Ang):
   XX=           -145.8069   YY=            -91.8001   ZZ=            -87.9483
   XY=             -4.7395   XZ=              0.5273   YZ=             -0.8835

 Summary of Natural Population Analysis:

                                       Natural Population
                Natural  -----------------------------------------------
    Atom  No    Charge         Core      Valence    Rydberg      Total
 -----------------------------------------------------------------------
      C    1   -0.15422      0.99950     2.14530    0.00941     3.15422
      C    2    0.06603      0.99952     1.91959    0.01487     2.93397
      O    3   -0.23257      0.99986     3.22518    0.00753     4.23257
      C    4    0.12896      0.99926     1.85756    0.01421     2.87104
      C    5   -0.14488      0.99933     2.13415    0.01140     3.14488
      S    6    0.21427      4.99941     2.76618    0.02015     7.78573
      C    7   -0.06578      0.99952     2.05280    0.01347     3.06578
      C    8   -0.14581      0.99940     2.13640    0.01001     3.14581
      C    9   -0.10492      0.99956     2.09105    0.01432     3.10492
      N   10   -0.42074      0.99978     2.90941    0.01156     3.92074
      H   11    0.10911      0.00000     0.38994    0.00095     0.39089
      H   12    0.09154      0.00000     0.40732    0.00114     0.40846
      H   13    0.11045      0.00000     0.38837    0.00119     0.38955
      H   14    0.10230      0.00000     0.39397    0.00373     0.39770
      H   15    0.08902      0.00000     0.40801    0.00297     0.41098
      H   16    0.18256      0.00000     0.30834    0.00910     0.31744
      H   17    0.17470      0.00000     0.32283    0.00247     0.32530
 =======================================================================
   * Total *    0.00000     13.99513    25.85640    0.14847    40.00000

 Normal termination of Gaussian 16 at Tue Dec  8 10:23:43 2020.
