 Gaussian 16, Revision A.03,

 -----------------------------------------------------------
 # opt freq B3LYP/6-31G(d) empiricaldispersion=gd3bj scf=xqc
 -----------------------------------------------------------

 ------------------------------
 CID_13222808_JID_4674_neutraal
 ------------------------------
 Symbolic Z-matrix:
 Charge =  0 Multiplicity = 1

 SCF Done:  E(RB3LYP) =  -704.074581464     A.U. after   15 cycles
 SCF Done:  E(RB3LYP) =  -704.076090458     A.U. after   13 cycles
 SCF Done:  E(RB3LYP) =  -704.076591785     A.U. after   12 cycles
 SCF Done:  E(RB3LYP) =  -704.077921509     A.U. after   12 cycles
 SCF Done:  E(RB3LYP) =  -704.079131576     A.U. after   13 cycles
 SCF Done:  E(RB3LYP) =  -704.080953012     A.U. after   15 cycles
 SCF Done:  E(RB3LYP) =  -704.082002231     A.U. after   12 cycles
 SCF Done:  E(RB3LYP) =  -704.082387858     A.U. after   12 cycles
 SCF Done:  E(RB3LYP) =  -704.082488821     A.U. after   12 cycles
 SCF Done:  E(RB3LYP) =  -704.082528617     A.U. after   11 cycles
 SCF Done:  E(RB3LYP) =  -704.082575734     A.U. after   10 cycles
 SCF Done:  E(RB3LYP) =  -704.082586692     A.U. after   11 cycles
 SCF Done:  E(RB3LYP) =  -704.082593773     A.U. after   10 cycles
 SCF Done:  E(RB3LYP) =  -704.082597593     A.U. after   11 cycles
 SCF Done:  E(RB3LYP) =  -704.082598497     A.U. after   10 cycles
 SCF Done:  E(RB3LYP) =  -704.082598640     A.U. after    9 cycles
 Optimization completed.
    -- Stationary point found.
 Normal termination of Gaussian 16 at Thu Dec 10 10:23:26 2020.

 --------------------------------------------------------------------
 #N Geom=AllCheck Guess=TCheck SCRF=Check GenChk RB3LYP/6-31G(d) Freq
 --------------------------------------------------------------------

 Structure from the checkpoint file:  "JID_4674.chk"
 ------------------------------
 CID_13222808_JID_4674_neutraal
 ------------------------------
 Charge =  0 Multiplicity = 1

 SCF Done:  E(RB3LYP) =  -704.082598640     A.U. after    1 cycles

  Exact polarizability: 160.970   2.548 131.361   0.939  -1.690  49.180
 Approx polarizability: 234.167   9.292 225.786  -0.488  -3.880  75.394

                      1                      2                      3
                      A                      A                      A
 Frequencies --     23.5463                56.3088                72.9648
 Red. masses --     10.0272                 6.1435                 3.6952
 Frc consts  --      0.0033                 0.0115                 0.0116
 IR Inten    --      1.4082                 5.7631                 2.6356

                      4                      5                      6
                      A                      A                      A
 Frequencies --    114.2531               142.8143               156.6270
 Red. masses --      4.3626                 7.1372                 4.6163
 Frc consts  --      0.0336                 0.0858                 0.0667
 IR Inten    --      3.3736                 0.5942                 2.6372

                      7                      8                      9
                      A                      A                      A
 Frequencies --    196.1179               253.0484               286.9013
 Red. masses --      4.3454                 1.3472                 4.3712
 Frc consts  --      0.0985                 0.0508                 0.2120
 IR Inten    --      0.1806                 1.0881                 7.7801

                     10                     11                     12
                      A                      A                      A
 Frequencies --    311.7066               333.2590               361.7999
 Red. masses --      3.0902                 5.7221                 7.5400
 Frc consts  --      0.1769                 0.3744                 0.5815
 IR Inten    --      2.1736                 2.1103                 4.0742

                     13                     14                     15
                      A                      A                      A
 Frequencies --    404.9626               443.9633               444.5523
 Red. masses --      5.2804                 1.6533                 2.0370
 Frc consts  --      0.5102                 0.1920                 0.2372
 IR Inten    --      4.9436                92.7338                57.7169

                     16                     17                     18
                      A                      A                      A
 Frequencies --    497.8746               531.8848               568.5890
 Red. masses --      3.6350                 2.2348                 2.2783
 Frc consts  --      0.5309                 0.3725                 0.4340
 IR Inten    --     16.6195                29.7027                27.5937

                     19                     20                     21
                      A                      A                      A
 Frequencies --    591.3010               623.5355               642.9750
 Red. masses --      2.1967                 3.5169                 1.9736
 Frc consts  --      0.4525                 0.8056                 0.4807
 IR Inten    --    104.7612                18.9551                68.0380

                     22                     23                     24
                      A                      A                      A
 Frequencies --    654.2998               711.8609               724.4495
 Red. masses --      3.3816                 4.0777                 2.9431
 Frc consts  --      0.8530                 1.2175                 0.9101
 IR Inten    --     27.5079                11.7399                62.0423

                     25                     26                     27
                      A                      A                      A
 Frequencies --    767.1917               779.7789               795.6998
 Red. masses --      4.6514                 4.7644                 4.6934
 Frc consts  --      1.6130                 1.7069                 1.7508
 IR Inten    --      6.7360                26.3239                29.1201

                     28                     29                     30
                      A                      A                      A
 Frequencies --    837.4023               906.5153               960.7818
 Red. masses --      1.7996                 5.6858                 1.3447
 Frc consts  --      0.7435                 2.7529                 0.7314
 IR Inten    --     20.2348                 1.3104                 0.3096

                     31                     32                     33
                      A                      A                      A
 Frequencies --    996.0117              1068.2437              1107.6382
 Red. masses --      1.3990                 7.0277                 1.9267
 Frc consts  --      0.8177                 4.7250                 1.3927
 IR Inten    --      6.5482                47.3863                 3.8651

                     34                     35                     36
                      A                      A                      A
 Frequencies --   1121.2146              1162.8241              1183.1509
 Red. masses --      2.3405                 3.3604                 1.2699
 Frc consts  --      1.7335                 2.6772                 1.0474
 IR Inten    --     14.8870                86.7133                 0.8138

                     37                     38                     39
                      A                      A                      A
 Frequencies --   1189.2734              1218.2471              1225.6954
 Red. masses --      1.6869                 1.4719                 1.5887
 Frc consts  --      1.4057                 1.2871                 1.4063
 IR Inten    --    114.5461                51.1510               122.8496

                     40                     41                     42
                      A                      A                      A
 Frequencies --   1294.6110              1328.4077              1356.1354
 Red. masses --      1.6494                 3.1503                 4.5658
 Frc consts  --      1.6288                 3.2754                 4.9474
 IR Inten    --     67.1649               356.1179                21.3591

                     43                     44                     45
                      A                      A                      A
 Frequencies --   1376.0471              1402.8854              1470.6959
 Red. masses --      3.4902                 2.9042                 3.9938
 Frc consts  --      3.8938                 3.3676                 5.0896
 IR Inten    --    322.2385                31.4405                26.3276

                     46                     47                     48
                      A                      A                      A
 Frequencies --   1499.4011              1524.1779              1531.8928
 Red. masses --      1.2889                 1.0478                 1.0986
 Frc consts  --      1.7073                 1.4342                 1.5190
 IR Inten    --     19.0462                 6.6043                58.5396

                     49                     50                     51
                      A                      A                      A
 Frequencies --   1555.0610              1624.2948              1649.0460
 Red. masses --      2.4719                 6.7034                 1.2424
 Frc consts  --      3.5219                10.4202                 1.9906
 IR Inten    --     77.2737                25.5124               138.2309

                     52                     53                     54
                      A                      A                      A
 Frequencies --   1665.9009              1791.6783              1807.8488
 Red. masses --      5.9329                 8.3973                 9.4061
 Frc consts  --      9.7010                15.8822                18.1127
 IR Inten    --    158.0833               134.1121               436.2412

                     55                     56                     57
                      A                      A                      A
 Frequencies --   3035.0487              3098.8380              3170.6507
 Red. masses --      1.0345                 1.1071                 1.1003
 Frc consts  --      5.6143                 6.2640                 6.5172
 IR Inten    --     53.2991                36.3951                19.1501

                     58                     59                     60
                      A                      A                      A
 Frequencies --   3198.2253              3239.8472              3247.0328
 Red. masses --      1.0891                 1.0911                 1.0902
 Frc consts  --      6.5637                 6.7476                 6.7722
 IR Inten    --      8.9374                 8.1685                 5.8786

                     61                     62                     63
                      A                      A                      A
 Frequencies --   3572.9615              3680.3188              3689.6839
 Red. masses --      1.0462                 1.0637                 1.1017
 Frc consts  --      7.8693                 8.4884                 8.8370
 IR Inten    --     34.9984                60.0744                23.3402

 - Thermochemistry -
 -------------------
 Temperature   298.150 Kelvin.  Pressure   1.00000 Atm.
 Atom     1 has atomic number  6 and mass  12.00000

 Molecular mass:   195.05316 amu.
 Principal axes and moments of inertia in atomic units:
                           1         2         3
     Eigenvalues --  1683.059713834.287635469.78562
           X            0.99992   0.01167   0.00486
           Y           -0.01167   0.99993  -0.00171
           Z           -0.00488   0.00165   0.99999
 This molecule is an asymmetric top.
 Rotational symmetry number  1.
 Warning -- assumption of classical behavior for rotation
           may cause significant error
 Rotational temperatures (Kelvin)      0.05146     0.02259     0.01583
 Rotational constants (GHZ):           1.07230     0.47068     0.32995
 Zero-point vibrational energy     462236.8 (Joules/Mol)
                                  110.47724 (Kcal/Mol)
 Warning -- explicit consideration of  19 degrees of freedom as
           vibrations may cause significant error
 Vibrational temperatures:     33.88    81.02   104.98   164.38   205.48
          (Kelvin)            225.35   282.17   364.08   412.79   448.48
                              479.49   520.55   582.65   638.76   639.61
                              716.33   765.26   818.07   850.75   897.13
                              925.10   941.39  1024.21  1042.32  1103.82
                             1121.93  1144.83  1204.84  1304.27  1382.35
                             1433.04  1536.96  1593.64  1613.18  1673.04
                             1702.29  1711.10  1752.79  1763.50  1862.66
                             1911.28  1951.18  1979.82  2018.44  2116.00
                             2157.30  2192.95  2204.05  2237.39  2337.00
                             2372.61  2396.86  2577.83  2601.09  4366.76
                             4458.54  4561.86  4601.53  4661.42  4671.76
                             5140.69  5295.16  5308.63

 Zero-point correction=                           0.176057 (Hartree/Particle)
 Thermal correction to Energy=                    0.188941
 Thermal correction to Enthalpy=                  0.189886
 Thermal correction to Gibbs Free Energy=         0.135463
 Sum of electronic and zero-point Energies=           -703.906542
 Sum of electronic and thermal Energies=              -703.893657
 Sum of electronic and thermal Enthalpies=            -703.892713
 Sum of electronic and thermal Free Energies=         -703.947136

                     E (Thermal)             CV                S
                      KCal/Mol        Cal/Mol-Kelvin    Cal/Mol-Kelvin
 Total                  118.563             47.956            114.542
 Electronic               0.000              0.000              0.000
 Translational            0.889              2.981             41.709
 Rotational               0.889              2.981             31.935
 Vibrational            116.785             41.994             40.898
 Vibration     1          0.593              1.985              6.310
 Vibration     2          0.596              1.975              4.583
 Vibration     3          0.599              1.967              4.072
 Vibration     4          0.607              1.938              3.195
 Vibration     5          0.616              1.910              2.766
 Vibration     6          0.620              1.895              2.590
 Vibration     7          0.636              1.845              2.169
 Vibration     8          0.664              1.758              1.709
 Vibration     9          0.684              1.698              1.492
 Vibration    10          0.700              1.651              1.353
 Vibration    11          0.715              1.609              1.244
 Vibration    12          0.736              1.551              1.114
 Vibration    13          0.770              1.459              0.945
 Vibration    14          0.803              1.374              0.814
 Vibration    15          0.804              1.373              0.812
 Vibration    16          0.853              1.255              0.663
 Vibration    17          0.887              1.179              0.583
 Vibration    18          0.925              1.099              0.507
 Vibration    19          0.949              1.050              0.465

 Optimization completed.
    -- Stationary point found.
 Normal termination of Gaussian 16 at Thu Dec 10 10:29:26 2020.

 ----------------------------------------------------------------------
 # B3LYP/6-311++G(d,p) empiricaldispersion=gd3bj scf=xqc pop=npa geom=c
 heck
 ----------------------------------------------------------------------

 --------------------------------------
 CID_13222808_JID_4674_Energie_neutraal
 --------------------------------------
 Structure from the checkpoint file:  "JID_4674.chk"
 Charge =  0 Multiplicity = 1

 SCF Done:  E(RB3LYP) =  -704.297817667     A.U. after   16 cycles
 Normal termination of Gaussian 16 at Thu Dec 10 10:35:53 2020.

 ----------------------------------------------------------------------
 # B3LYP/6-311++G(d,p) empiricaldispersion=gd3bj scf=xqc pop=npa geom=c
 heck
 ----------------------------------------------------------------------

 ------------------------------------
 CID_13222808_JID_4674_Energie_kation
 ------------------------------------
 Structure from the checkpoint file:  "JID_4674.chk"
 Charge =  1 Multiplicity = 2

 SCF Done:  E(UB3LYP) =  -703.980562784     A.U. after   27 cycles
 Normal termination of Gaussian 16 at Thu Dec 10 10:44:56 2020.
 Gaussian 16:  ES64L-G16RevA.03 25-Dec-2016

 ----------------------------------------------------------------------
 # B3LYP/6-311++G(d,p) empiricaldispersion=gd3bj scf=xqc pop=npa geom=c
 heck
 ----------------------------------------------------------------------

 -----------------------------------
 CID_13222808_JID_4674_Energie_anion
 -----------------------------------
 Structure from the checkpoint file:  "JID_4674.chk"
 Charge = -1 Multiplicity = 2

                         Standard orientation:
 ---------------------------------------------------------------------
 Center     Atomic      Atomic             Coordinates (Angstroms)
 Number     Number       Type             X           Y           Z
 ---------------------------------------------------------------------
      1          6           0       -2.965846   -2.348554   -0.016909
      2          8           0       -2.492986   -1.009368    0.011172
      3          6           0       -1.162700   -0.783912   -0.015772
      4          6           0       -0.710236    0.560827    0.014914
      5          6           0        0.663905    0.808139   -0.000836
      6          6           0        1.604736   -0.221063   -0.035732
      7          6           0        1.142668   -1.540913   -0.080361
      8          6           0       -0.218522   -1.821766   -0.070331
      9          6           0        3.053419    0.151689   -0.051644
     10          8           0        3.436770    1.269870   -0.367013
     11          7           0        3.939471   -0.854259    0.278012
     12          6           0       -1.576006    1.773765    0.063938
     13          8           0       -1.136161    2.901755    0.184802
     14          8           0       -2.903758    1.544331   -0.047762
     15          1           0       -4.053179   -2.273460    0.017843
     16          1           0       -2.610000   -2.917574    0.850932
     17          1           0       -2.663992   -2.860751   -0.938781
     18          1           0        1.004673    1.836553    0.014635
     19          1           0        1.844447   -2.366273   -0.157847
     20          1           0       -0.544272   -2.853066   -0.115003
     21          1           0        3.639312   -1.594870    0.896191
     22          1           0        4.895324   -0.544517    0.398685
     23          1           0       -3.308046    2.431787   -0.005943
 ---------------------------------------------------------------------

 SCF Done:  E(UB3LYP) =  -704.307228687     A.U. after   31 cycles

 The electronic state is 2-A.
 Alpha  occ. eigenvalues --  -19.02713 -19.02005 -18.95047 -18.94627 -14.20318
 Alpha  occ. eigenvalues --  -10.13763 -10.13452 -10.11815 -10.09261 -10.03054
 Alpha  occ. eigenvalues --  -10.02857 -10.02718 -10.02700 -10.01996  -0.96037
 Alpha  occ. eigenvalues --   -0.94674  -0.90248  -0.86131  -0.77531  -0.71384
 Alpha  occ. eigenvalues --   -0.63766  -0.61439  -0.58577  -0.51470  -0.49497
 Alpha  occ. eigenvalues --   -0.45281  -0.44331  -0.41671  -0.40415  -0.36594
 Alpha  occ. eigenvalues --   -0.35993  -0.35640  -0.33183  -0.32005  -0.31001
 Alpha  occ. eigenvalues --   -0.30361  -0.29621  -0.28271  -0.27725  -0.25812
 Alpha  occ. eigenvalues --   -0.24793  -0.24606  -0.22712  -0.19620  -0.19086
 Alpha  occ. eigenvalues --   -0.17776  -0.15329  -0.13119  -0.12575  -0.11905
 Alpha  occ. eigenvalues --   -0.09605   0.04728
 Alpha virt. eigenvalues --    0.07358   0.07811   0.09626   0.10369   0.10453
 Alpha virt. eigenvalues --    0.11236   0.11832   0.13084   0.13694   0.14311
 Alpha virt. eigenvalues --    0.15088   0.16008   0.17102   0.17267   0.18232

  Beta  occ. eigenvalues --  -19.02657 -19.01940 -18.94950 -18.94393 -14.20298
  Beta  occ. eigenvalues --  -10.13567 -10.13389 -10.11812 -10.09006 -10.03116
  Beta  occ. eigenvalues --  -10.02811 -10.02727 -10.02564 -10.01527  -0.95800
  Beta  occ. eigenvalues --   -0.94503  -0.90088  -0.85775  -0.77459  -0.71007
  Beta  occ. eigenvalues --   -0.63430  -0.61042  -0.58409  -0.50924  -0.49114
  Beta  occ. eigenvalues --   -0.45053  -0.44174  -0.41541  -0.40269  -0.36461
  Beta  occ. eigenvalues --   -0.35774  -0.35455  -0.32977  -0.31800  -0.30726
  Beta  occ. eigenvalues --   -0.29485  -0.29417  -0.28016  -0.27472  -0.25579
  Beta  occ. eigenvalues --   -0.24510  -0.23973  -0.22592  -0.18944  -0.18851
  Beta  occ. eigenvalues --   -0.16741  -0.15060  -0.12872  -0.12402  -0.10680
  Beta  occ. eigenvalues --   -0.08471
  Beta virt. eigenvalues --    0.07323   0.08006   0.09601   0.10351   0.10410
  Beta virt. eigenvalues --    0.11132   0.11362   0.11883   0.13299   0.13669
  Beta virt. eigenvalues --    0.14279   0.15035   0.16838   0.17210   0.17456

 Mulliken charges and spin densities:
               1          2
     1  C   -0.241695  -0.035665
     2  O   -0.126495   0.016001
     3  C   -0.300668   0.104204
     4  C    0.127771   0.098958
     5  C   -0.566897   0.064695
     6  C    0.610934   0.040449
     7  C   -0.514093   0.392065
     8  C   -0.134472  -0.191951
     9  C    0.006214   0.037612
    10  O   -0.377376   0.030706
    11  N   -0.286775  -0.073189
    12  C    0.196501   0.094251
    13  O   -0.406808   0.081075
    14  O   -0.245428   0.012260
    15  H    0.154547   0.000719
    16  H    0.130366  -0.000663
    17  H    0.100960   0.034250
    18  H    0.220003  -0.003090
    19  H    0.102522  -0.031776
    20  H    0.045481   0.054227
    21  H    0.006875   0.211899
    22  H    0.216912   0.064971
    23  H    0.281621  -0.002009
 Sum of Mulliken charges =  -1.00000   1.00000

 Dipole moment (field-independent basis, Debye):
    X=             -3.8415    Y=             -5.1923    Z=              0.5852  Tot=              6.4854
 Quadrupole moment (field-independent basis, Debye-Ang):
   XX=           -108.2163   YY=           -104.8922   ZZ=            -90.3187
   XY=             -2.1516   XZ=              3.2857   YZ=              0.5454

 Summary of Natural Population Analysis:

                                       Natural Population
                Natural  -----------------------------------------------
    Atom  No    Charge         Core      Valence    Rydberg      Total
 -----------------------------------------------------------------------
      C    1   -0.09928      0.99961     2.09188    0.00779     3.09928
      O    2   -0.25845      0.99985     3.24975    0.00885     4.25845
      C    3    0.22674      0.99939     1.76178    0.01210     2.77326
      C    4   -0.08855      0.99943     2.07949    0.00964     3.08855
      C    5   -0.03560      0.99952     2.02838    0.00770     3.03560
      C    6   -0.10626      0.99945     2.09531    0.01150     3.10626
      C    7    0.00998      0.99955     1.98011    0.01035     2.99002
      C    8   -0.17284      0.99954     2.16459    0.00871     3.17284
      C    9    0.33975      0.99965     1.63629    0.02431     2.66025
      O   10   -0.31893      0.99988     3.31342    0.00564     4.31893
      N   11   -0.41549      0.99971     2.90753    0.00825     3.91549
      C   12    0.42197      0.99968     1.55455    0.02380     2.57803
      O   13   -0.31190      0.99987     3.30560    0.00642     4.31190
      O   14   -0.34233      0.99988     3.33487    0.00758     4.34233
      H   15    0.08683      0.00000     0.41236    0.00081     0.41317
      H   16    0.08047      0.00000     0.41789    0.00164     0.41953
      H   17    0.08066      0.00000     0.41752    0.00182     0.41934
      H   18    0.11859      0.00000     0.38034    0.00108     0.38141
      H   19    0.08778      0.00000     0.41118    0.00104     0.41222
      H   20    0.09438      0.00000     0.40424    0.00138     0.40562
      H   21    0.19131      0.00000     0.30599    0.00270     0.30869
      H   22    0.18566      0.00000     0.31195    0.00239     0.31434
      H   23    0.22552      0.00000     0.26918    0.00530     0.27448
 =======================================================================
   * Total *    0.00000     13.99501    36.83418    0.17081    51.00000

 Normal termination of Gaussian 16 at Thu Dec 10 10:53:03 2020.
