 Gaussian 16, Revision A.03,

 -----------------------------------------------------------
 # opt freq B3LYP/6-31G(d) empiricaldispersion=gd3bj scf=xqc
 -----------------------------------------------------------

 ------------------------------
 CID_14851193_JID_9740_neutraal
 ------------------------------
 Symbolic Z-matrix:
 Charge =  0 Multiplicity = 1

 SCF Done:  E(RB3LYP) =  -898.198274175     A.U. after   15 cycles
 SCF Done:  E(RB3LYP) =  -898.207559113     A.U. after   13 cycles
 SCF Done:  E(RB3LYP) =  -898.208592692     A.U. after   13 cycles
 SCF Done:  E(RB3LYP) =  -898.208654378     A.U. after   12 cycles
 SCF Done:  E(RB3LYP) =  -898.209093051     A.U. after   11 cycles
 SCF Done:  E(RB3LYP) =  -898.209163484     A.U. after   12 cycles
 SCF Done:  E(RB3LYP) =  -898.209187551     A.U. after   11 cycles
 SCF Done:  E(RB3LYP) =  -898.209213919     A.U. after   11 cycles
 SCF Done:  E(RB3LYP) =  -898.209227121     A.U. after   10 cycles
 SCF Done:  E(RB3LYP) =  -898.209232986     A.U. after   11 cycles
 SCF Done:  E(RB3LYP) =  -898.209239170     A.U. after    9 cycles
 SCF Done:  E(RB3LYP) =  -898.209239731     A.U. after    8 cycles
 SCF Done:  E(RB3LYP) =  -898.209240430     A.U. after    8 cycles
 SCF Done:  E(RB3LYP) =  -898.209240683     A.U. after    8 cycles
 SCF Done:  E(RB3LYP) =  -898.209240790     A.U. after    8 cycles
 Optimization completed.
    -- Stationary point found.
 Normal termination of Gaussian 16 at Sun Dec 13 16:18:33 2020.

 --------------------------------------------------------------------
 #N Geom=AllCheck Guess=TCheck SCRF=Check GenChk RB3LYP/6-31G(d) Freq
 --------------------------------------------------------------------

 Structure from the checkpoint file:  "JID_9740.chk"
 ------------------------------
 CID_14851193_JID_9740_neutraal
 ------------------------------
 Charge =  0 Multiplicity = 1

 SCF Done:  E(RB3LYP) =  -898.209240790     A.U. after    1 cycles

  Exact polarizability: 216.739  -8.334 155.664  12.551  12.106 108.450
 Approx polarizability: 276.018 -15.859 285.206  24.674  20.834 164.800

                      1                      2                      3
                      A                      A                      A
 Frequencies --     18.2286                34.9887                41.0961
 Red. masses --      4.4870                 5.1067                 5.7567
 Frc consts  --      0.0009                 0.0037                 0.0057
 IR Inten    --      1.2342                 0.5924                 0.3812

                      4                      5                      6
                      A                      A                      A
 Frequencies --     63.3100                73.1734                94.5786
 Red. masses --      4.0499                 2.1008                 3.7099
 Frc consts  --      0.0096                 0.0066                 0.0196
 IR Inten    --      1.4005                 1.2472                 0.3701

                      7                      8                      9
                      A                      A                      A
 Frequencies --    118.4497               154.5560               174.3173
 Red. masses --      3.2600                 3.7021                 5.2331
 Frc consts  --      0.0269                 0.0521                 0.0937
 IR Inten    --      1.3207                 0.4391                 1.4141

                     10                     11                     12
                      A                      A                      A
 Frequencies --    192.4506               221.1206               227.1319
 Red. masses --      3.6959                 1.8560                 5.0613
 Frc consts  --      0.0807                 0.0535                 0.1538
 IR Inten    --      0.6306                 1.6974                 1.7764

                     13                     14                     15
                      A                      A                      A
 Frequencies --    234.2984               239.8221               260.8896
 Red. masses --      3.0938                 6.1144                 2.6790
 Frc consts  --      0.1001                 0.2072                 0.1074
 IR Inten    --      4.4823                 1.2443                 3.6994

                     16                     17                     18
                      A                      A                      A
 Frequencies --    282.3166               314.1668               334.4303
 Red. masses --      2.6428                 1.6314                 3.8640
 Frc consts  --      0.1241                 0.0949                 0.2546
 IR Inten    --      6.3253                 0.2132                11.3038

                     19                     20                     21
                      A                      A                      A
 Frequencies --    360.6845               381.5399               415.0424
 Red. masses --      2.9442                 8.1667                 3.0365
 Frc consts  --      0.2257                 0.7004                 0.3082
 IR Inten    --      0.3133                 0.4906                 0.2028

                     22                     23                     24
                      A                      A                      A
 Frequencies --    430.3489               477.0287               537.8582
 Red. masses --      4.3166                 5.0107                 7.9253
 Frc consts  --      0.4710                 0.6718                 1.3508
 IR Inten    --      4.4091                 1.1760                 1.6092

                     25                     26                     27
                      A                      A                      A
 Frequencies --    575.0265               633.0452               658.4695
 Red. masses --      5.2748                 6.4217                 7.2183
 Frc consts  --      1.0276                 1.5163                 1.8440
 IR Inten    --      9.9055                 2.2374                34.1752

                     28                     29                     30
                      A                      A                      A
 Frequencies --    669.1007               692.9904               708.3297
 Red. masses --      6.9001                 5.9207                 2.0316
 Frc consts  --      1.8201                 1.6753                 0.6006
 IR Inten    --     29.6187                 2.7477                36.2352

                     31                     32                     33
                      A                      A                      A
 Frequencies --    719.1695               723.2598               738.3765
 Red. masses --      4.2887                 3.8543                 5.8321
 Frc consts  --      1.3069                 1.1879                 1.8734
 IR Inten    --     26.6652                14.6892                 5.6680

                     34                     35                     36
                      A                      A                      A
 Frequencies --    779.6610               793.8363               801.0959
 Red. masses --      1.9481                 1.5333                 2.0884
 Frc consts  --      0.6977                 0.5693                 0.7897
 IR Inten    --      1.1583                 2.5476                16.5051

                     37                     38                     39
                      A                      A                      A
 Frequencies --    814.2085               863.0799               942.6966
 Red. masses --      2.3344                 1.2469                 3.1214
 Frc consts  --      0.9118                 0.5473                 1.6344
 IR Inten    --      7.7209                 3.5528                76.1516

                     40                     41                     42
                      A                      A                      A
 Frequencies --    945.7327               954.0932               961.3402
 Red. masses --      2.3170                 1.6812                 2.0822
 Frc consts  --      1.2210                 0.9017                 1.1338
 IR Inten    --     38.8280                13.6498                 2.3066

                     43                     44                     45
                      A                      A                      A
 Frequencies --    981.1832              1007.1791              1022.8393
 Red. masses --      1.3592                 1.2755                 6.0308
 Frc consts  --      0.7709                 0.7624                 3.7174
 IR Inten    --      3.3363                 0.0837                11.5465

                     46                     47                     48
                      A                      A                      A
 Frequencies --   1038.0197              1048.2781              1062.8348
 Red. masses --      3.2810                 2.9651                 2.1820
 Frc consts  --      2.0829                 1.9197                 1.4522
 IR Inten    --     97.2196                10.6145                 4.6614

                     49                     50                     51
                      A                      A                      A
 Frequencies --   1069.1708              1106.2916              1118.9332
 Red. masses --      2.1226                 1.7326                 1.8657
 Frc consts  --      1.4296                 1.2494                 1.3762
 IR Inten    --      5.1563                 5.5102                 3.5985

                     52                     53                     54
                      A                      A                      A
 Frequencies --   1134.0107              1145.5861              1163.6446
 Red. masses --      4.6745                 2.7676                 2.8925
 Frc consts  --      3.5418                 2.1400                 2.3077
 IR Inten    --      4.1313               235.9773                 9.2528

                     55                     56                     57
                      A                      A                      A
 Frequencies --   1179.2147              1197.6982              1218.5954
 Red. masses --      2.9972                 1.0993                 1.1856
 Frc consts  --      2.4555                 0.9291                 1.0373
 IR Inten    --      7.3823                 0.5633                34.9869

                     58                     59                     60
                      A                      A                      A
 Frequencies --   1227.7139              1269.3132              1304.6239
 Red. masses --      2.7315                 3.7920                 5.9748
 Frc consts  --      2.4257                 3.5996                 5.9917
 IR Inten    --      2.0789               374.9839               770.6242

                     61                     62                     63
                      A                      A                      A
 Frequencies --   1319.3563              1356.5239              1370.4955
 Red. masses --      1.2566                 2.1856                 1.4006
 Frc consts  --      1.2888                 2.3696                 1.5500
 IR Inten    --     65.9802                 0.8891                19.2939

                     64                     65                     66
                      A                      A                      A
 Frequencies --   1373.7554              1380.4248              1410.1336
 Red. masses --      2.3405                 1.3342                 1.3474
 Frc consts  --      2.6024                 1.4980                 1.5785
 IR Inten    --      4.6700                 8.6103                 1.5482

                     67                     68                     69
                      A                      A                      A
 Frequencies --   1442.7470              1454.9413              1497.6376
 Red. masses --      1.2395                 1.2278                 2.2625
 Frc consts  --      1.5201                 1.5313                 2.9898
 IR Inten    --      5.2666                 8.9031                14.9342

                     70                     71                     72
                      A                      A                      A
 Frequencies --   1512.6827              1520.8596              1528.4513
 Red. masses --      1.0705                 1.0511                 1.0518
 Frc consts  --      1.4432                 1.4325                 1.4477
 IR Inten    --      0.3686                 1.8680                 1.4978

                     73                     74                     75
                      A                      A                      A
 Frequencies --   1532.4644              1539.6448              1543.6919
 Red. masses --      1.0615                 1.0486                 2.1645
 Frc consts  --      1.4687                 1.4645                 3.0389
 IR Inten    --     12.4127                 0.9293                 0.5914

                     76                     77                     78
                      A                      A                      A
 Frequencies --   1547.1902              1641.6890              1663.4051
 Red. masses --      1.0523                 5.4494                 5.4704
 Frc consts  --      1.4842                 8.6533                 8.9179
 IR Inten    --      9.1053                 3.7900                20.6998

                     79                     80                     81
                      A                      A                      A
 Frequencies --   1779.9693              1856.3026              1899.6069
 Red. masses --     13.0331                12.9911                12.6159
 Frc consts  --     24.3289                26.3751                26.8223
 IR Inten    --     75.7398               472.9572               139.6431

                     82                     83                     84
                      A                      A                      A
 Frequencies --   3045.1095              3055.0512              3065.7325
 Red. masses --      1.0647                 1.0631                 1.0362
 Frc consts  --      5.8166                 5.8461                 5.7381
 IR Inten    --     17.8989                14.6081                20.0162

                     85                     86                     87
                      A                      A                      A
 Frequencies --   3072.9003              3092.9442              3096.9083
 Red. masses --      1.0411                 1.0999                 1.1014
 Frc consts  --      5.7919                 6.1992                 6.2235
 IR Inten    --     25.2367                 4.3127                11.5735

                     88                     89                     90
                      A                      A                      A
 Frequencies --   3128.4800              3137.9388              3150.6570
 Red. masses --      1.1015                 1.0988                 1.1033
 Frc consts  --      6.3518                 6.3746                 6.4526
 IR Inten    --     38.2216                17.8609                12.7474

                     91                     92                     93
                      A                      A                      A
 Frequencies --   3170.0066              3191.8643              3204.1034
 Red. masses --      1.0996                 1.0860                 1.0900
 Frc consts  --      6.5105                 6.5190                 6.5933
 IR Inten    --     18.5919                 0.3969                12.8849

                     94                     95                     96
                      A                      A                      A
 Frequencies --   3213.7548              3228.8360              3244.9879
 Red. masses --      1.0949                 1.0938                 1.0925
 Frc consts  --      6.6627                 6.7185                 6.7778
 IR Inten    --     23.2392                 6.0429                 3.3671

 - Thermochemistry -
 -------------------
 Temperature   298.150 Kelvin.  Pressure   1.00000 Atm.
 Atom     1 has atomic number  6 and mass  12.00000

 Molecular mass:   261.10011 amu.
 Principal axes and moments of inertia in atomic units:
                           1         2         3
     Eigenvalues --  2210.409048371.056389276.63323
           X            1.00000  -0.00024  -0.00073
           Y            0.00027   0.99921   0.03980
           Z            0.00072  -0.03980   0.99921
 This molecule is an asymmetric top.
 Rotational symmetry number  1.
 Warning -- assumption of classical behavior for rotation
           may cause significant error
 Rotational temperatures (Kelvin)      0.03918     0.01035     0.00934
 Rotational constants (GHZ):           0.81647     0.21559     0.19455
 Zero-point vibrational energy     713104.2 (Joules/Mol)
                                  170.43600 (Kcal/Mol)
 Warning -- explicit consideration of  25 degrees of freedom as
           vibrations may cause significant error
 Vibrational temperatures:     26.23    50.34    59.13    91.09   105.28
          (Kelvin)            136.08   170.42   222.37   250.80   276.89
                              318.14   326.79   337.10   345.05   375.36
                              406.19   452.02   481.17   518.94   548.95
                              597.15   619.18   686.34   773.86   827.33
                              910.81   947.39   962.69   997.06  1019.13
                             1034.72  1040.61  1062.36  1121.76  1142.15
                             1152.60  1171.46  1241.78  1356.33  1360.70
                             1372.73  1383.15  1411.70  1449.11  1471.64
                             1493.48  1508.24  1529.18  1538.30  1591.71
                             1609.90  1631.59  1648.24  1674.23  1696.63
                             1723.22  1753.29  1766.41  1826.26  1877.06
                             1898.26  1951.74  1971.84  1976.53  1986.12
                             2028.87  2075.79  2093.34  2154.77  2176.41
                             2188.18  2199.10  2204.87  2215.21  2221.03
                             2226.06  2362.02  2393.27  2560.98  2670.81
                             2733.11  4381.23  4395.54  4410.91  4421.22
                             4450.06  4455.76  4501.18  4514.79  4533.09
                             4560.93  4592.38  4609.99  4623.88  4645.57
                             4668.81

 Zero-point correction=                           0.271607 (Hartree/Particle)
 Thermal correction to Energy=                    0.289555
 Thermal correction to Enthalpy=                  0.290500
 Thermal correction to Gibbs Free Energy=         0.223873
 Sum of electronic and zero-point Energies=           -897.937634
 Sum of electronic and thermal Energies=              -897.919685
 Sum of electronic and thermal Enthalpies=            -897.918741
 Sum of electronic and thermal Free Energies=         -897.985368

                     E (Thermal)             CV                S
                      KCal/Mol        Cal/Mol-Kelvin    Cal/Mol-Kelvin
 Total                  181.699             66.734            140.227
 Electronic               0.000              0.000              0.000
 Translational            0.889              2.981             42.579
 Rotational               0.889              2.981             33.506
 Vibrational            179.921             60.773             64.142
 Vibration     1          0.593              1.986              6.818
 Vibration     2          0.594              1.982              5.524
 Vibration     3          0.594              1.981              5.206
 Vibration     4          0.597              1.972              4.351
 Vibration     5          0.599              1.967              4.066
 Vibration     6          0.603              1.953              3.563
 Vibration     7          0.609              1.934              3.126
 Vibration     8          0.620              1.898              2.615
 Vibration     9          0.627              1.874              2.388
 Vibration    10          0.634              1.850              2.204
 Vibration    11          0.648              1.809              1.950
 Vibration    12          0.651              1.800              1.902
 Vibration    13          0.654              1.788              1.846
 Vibration    14          0.657              1.780              1.804
 Vibration    15          0.669              1.744              1.656
 Vibration    16          0.681              1.706              1.520
 Vibration    17          0.702              1.647              1.340
 Vibration    18          0.716              1.607              1.239
 Vibration    19          0.735              1.553              1.119
 Vibration    20          0.751              1.510              1.033
 Vibration    21          0.778              1.438              0.909
 Vibration    22          0.792              1.404              0.858
 Vibration    23          0.834              1.301              0.718
 Vibration    24          0.893              1.166              0.570
 Vibration    25          0.931              1.085              0.495

                           ! Non-Optimized Parameters !
 Normal termination of Gaussian 16 at Sun Dec 13 16:35:45 2020.

 ----------------------------------------------------------------------
 # B3LYP/6-311++G(d,p) empiricaldispersion=gd3bj scf=xqc pop=npa geom=c
 heck
 ----------------------------------------------------------------------

 --------------------------------------
 CID_14851193_JID_9740_Energie_neutraal
 --------------------------------------
 Structure from the checkpoint file:  "JID_9740.chk"
 Charge =  0 Multiplicity = 1

 SCF Done:  E(RB3LYP) =  -898.457621679     A.U. after   16 cycles
 Normal termination of Gaussian 16 at Sun Dec 13 16:43:33 2020.

 ----------------------------------------------------------------------
 # B3LYP/6-311++G(d,p) empiricaldispersion=gd3bj scf=xqc pop=npa geom=c
 heck
 ----------------------------------------------------------------------

 ------------------------------------
 CID_14851193_JID_9740_Energie_kation
 ------------------------------------
 Structure from the checkpoint file:  "JID_9740.chk"
 Charge =  1 Multiplicity = 2

 SCF Done:  E(UB3LYP) =  -898.119002762     A.U. after   33 cycles
 SCF Done:  E(UB3LYP) =  -898.119003117     a.u. after    3 cycles
 Normal termination of Gaussian 16 at Sun Dec 13 17:51:53 2020.
 Gaussian 16:  ES64L-G16RevA.03 25-Dec-2016

 ----------------------------------------------------------------------
 # B3LYP/6-311++G(d,p) empiricaldispersion=gd3bj scf=xqc pop=npa geom=c
 heck
 ----------------------------------------------------------------------

 -----------------------------------
 CID_14851193_JID_9740_Energie_anion
 -----------------------------------
 Structure from the checkpoint file:  "JID_9740.chk"
 Charge = -1 Multiplicity = 2

                         Standard orientation:
 ---------------------------------------------------------------------
 Center     Atomic      Atomic             Coordinates (Angstroms)
 Number     Number       Type             X           Y           Z
 ---------------------------------------------------------------------
      1          6           0       -3.662315   -0.377174    2.058898
      2          6           0       -2.987906    0.672764    1.171029
      3          6           0       -2.225834    0.152782   -0.090407
      4          6           0       -1.164132    1.193102   -0.437417
      5          8           0       -1.347203    2.330876   -0.793399
      6          7           0        0.086866    0.572642   -0.279536
      7          8           0       -0.060110   -0.790940    0.115940
      8          6           0       -1.412417   -1.085490    0.204905
      9          8           0       -1.752539   -2.205262    0.470527
     10          6           0        1.361496    1.176855   -0.106323
     11          8           0        1.426394    2.386251   -0.035201
     12          6           0        2.552955    0.286234   -0.045683
     13          6           0        3.674610    0.805605    0.617675
     14          6           0        4.855303    0.073138    0.675419
     15          6           0        4.932941   -1.173646    0.050275
     16          6           0        3.826962   -1.683982   -0.631267
     17          6           0        2.635974   -0.963041   -0.676452
     18          6           0       -3.124409   -0.049315   -1.340568
     19          6           0       -4.309951   -1.000936   -1.180432
     20          1           0       -4.392569   -0.981616    1.518625
     21          1           0       -4.181769    0.131957    2.877845
     22          1           0       -2.932219   -1.062164    2.497805
     23          1           0       -3.717652    1.403656    0.805651
     24          1           0       -2.279024    1.240066    1.786010
     25          1           0        3.600099    1.785590    1.076300
     26          1           0        5.716055    0.474933    1.201483
     27          1           0        5.856066   -1.744827    0.090386
     28          1           0        3.890067   -2.647140   -1.128597
     29          1           0        1.782446   -1.367237   -1.205659
     30          1           0       -3.468536    0.951189   -1.626075
     31          1           0       -2.485366   -0.400341   -2.161272
     32          1           0       -5.065819   -0.593706   -0.502979
     33          1           0       -4.789415   -1.152042   -2.153355
     34          1           0       -3.992437   -1.975605   -0.800262
 ---------------------------------------------------------------------

 SCF Done:  E(UB3LYP) =  -898.483177179     A.U. after   24 cycles

 The electronic state is 2-A.
 Alpha  occ. eigenvalues --  -19.09155 -19.01946 -18.97049 -18.93721 -14.27617
 Alpha  occ. eigenvalues --  -10.20308 -10.14700 -10.11726 -10.10390 -10.08730
 Alpha  occ. eigenvalues --  -10.08674 -10.07631 -10.07360 -10.04654 -10.04632
 Alpha  occ. eigenvalues --  -10.04183 -10.04064 -10.03997 -10.03705  -1.03303
 Alpha  occ. eigenvalues --   -0.95371  -0.91948  -0.89145  -0.74992  -0.73777
 Alpha  occ. eigenvalues --   -0.72519  -0.66802  -0.64517  -0.62387  -0.61825
 Alpha  occ. eigenvalues --   -0.55636  -0.53453  -0.51560  -0.48623  -0.48163
 Alpha  occ. eigenvalues --   -0.46966  -0.42740  -0.40500  -0.39549  -0.38186
 Alpha  occ. eigenvalues --   -0.36488  -0.36125  -0.34650  -0.34386  -0.32615
 Alpha  occ. eigenvalues --   -0.32279  -0.31600  -0.31039  -0.30678  -0.30332
 Alpha  occ. eigenvalues --   -0.29627  -0.29455  -0.28365  -0.28221  -0.27452
 Alpha  occ. eigenvalues --   -0.26505  -0.25761  -0.24901  -0.24421  -0.23053
 Alpha  occ. eigenvalues --   -0.22752  -0.22433  -0.21525  -0.18747  -0.15676
 Alpha  occ. eigenvalues --   -0.13326  -0.12956  -0.12811  -0.10860   0.03111
 Alpha virt. eigenvalues --    0.06635   0.07988   0.08162   0.08366   0.09485
 Alpha virt. eigenvalues --    0.09691   0.10087   0.11001   0.11305   0.11580
 Alpha virt. eigenvalues --    0.11812   0.12025   0.12253   0.13283   0.13392

  Beta  occ. eigenvalues --  -19.09120 -19.01924 -18.96767 -18.93209 -14.27745
  Beta  occ. eigenvalues --  -10.20268 -10.14477 -10.11390 -10.10417 -10.08682
  Beta  occ. eigenvalues --  -10.08635 -10.07629 -10.07360 -10.04718 -10.04684
  Beta  occ. eigenvalues --  -10.04130 -10.03927 -10.03739 -10.03553  -1.03235
  Beta  occ. eigenvalues --   -0.95286  -0.91486  -0.88287  -0.74777  -0.73661
  Beta  occ. eigenvalues --   -0.72286  -0.66757  -0.64275  -0.62064  -0.61607
  Beta  occ. eigenvalues --   -0.55374  -0.53383  -0.51068  -0.48527  -0.47962
  Beta  occ. eigenvalues --   -0.46688  -0.42535  -0.40370  -0.39386  -0.38070
  Beta  occ. eigenvalues --   -0.36355  -0.36031  -0.34468  -0.34121  -0.32534
  Beta  occ. eigenvalues --   -0.32114  -0.31441  -0.30658  -0.30495  -0.30126
  Beta  occ. eigenvalues --   -0.29571  -0.29257  -0.28083  -0.27768  -0.27291
  Beta  occ. eigenvalues --   -0.26450  -0.25233  -0.24257  -0.24022  -0.22731
  Beta  occ. eigenvalues --   -0.22204  -0.21681  -0.20878  -0.18681  -0.15353
  Beta  occ. eigenvalues --   -0.12697  -0.12352  -0.11595  -0.10275
  Beta virt. eigenvalues --    0.06616   0.07968   0.08237   0.08346   0.09456
  Beta virt. eigenvalues --    0.09498   0.09714   0.10064   0.11006   0.11625
  Beta virt. eigenvalues --    0.11771   0.11953   0.12117   0.13244   0.13357

 Mulliken charges and spin densities:
               1          2
     1  C   -0.501737   0.004801
     2  C   -0.457734  -0.014082
     3  C    1.479186   0.089090
     4  C   -0.699363   0.121174
     5  O   -0.270415   0.099834
     6  N   -0.148241  -0.073137
     7  O    0.287479   0.016633
     8  C   -0.638471   0.023727
     9  O   -0.268116   0.007348
    10  C   -0.726902   0.148659
    11  O   -0.310419   0.188296
    12  C    0.910156   0.056989
    13  C   -0.040990   0.144090
    14  C   -0.414546  -0.046669
    15  C   -0.235999   0.204293
    16  C   -0.271537  -0.052652
    17  C   -0.229129   0.134783
    18  C   -0.062472  -0.051865
    19  C   -0.620892   0.003808
    20  H    0.129943  -0.000160
    21  H    0.126347   0.001272
    22  H    0.173634   0.000313
    23  H    0.178605   0.002734
    24  H    0.197924   0.004715
    25  H    0.170201  -0.008256
    26  H    0.114646   0.002943
    27  H    0.104555  -0.015875
    28  H    0.127112   0.004618
    29  H    0.116206  -0.009894
    30  H    0.191416  -0.001510
    31  H    0.150174   0.010184
    32  H    0.132364   0.001011
    33  H    0.128533   0.002687
    34  H    0.178481   0.000097
 Sum of Mulliken charges =  -1.00000   1.00000

 Dipole moment (field-independent basis, Debye):
    X=             -5.8062    Y=             -3.5757    Z=              0.5602  Tot=              6.8419
 Quadrupole moment (field-independent basis, Debye-Ang):
   XX=           -149.7279   YY=           -148.8865   ZZ=           -118.4996
   XY=             -3.4688   XZ=              1.0526   YZ=              8.3518

 Summary of Natural Population Analysis:

                                       Natural Population
                Natural  -----------------------------------------------
    Atom  No    Charge         Core      Valence    Rydberg      Total
 -----------------------------------------------------------------------
      C    1   -0.28802      0.99967     2.28399    0.00436     3.28802
      C    2   -0.17615      0.99961     2.16823    0.00831     3.17615
      C    3   -0.12538      0.99948     2.11112    0.01478     3.12538
      C    4    0.37462      0.99962     1.60104    0.02472     2.62538
      O    5   -0.26174      0.99987     3.25580    0.00608     4.26174
      N    6   -0.12910      0.99958     2.61628    0.01324     3.62910
      O    7   -0.18634      0.99987     3.17770    0.00877     4.18634
      C    8    0.41678      0.99962     1.55634    0.02727     2.58322
      O    9   -0.29376      0.99986     3.28741    0.00648     4.29376
      C   10    0.37418      0.99961     1.60504    0.02117     2.62582
      O   11   -0.23443      0.99988     3.22883    0.00573     4.23443
      C   12   -0.06029      0.99948     2.05162    0.00919     3.06029
      C   13   -0.05122      0.99954     2.04270    0.00898     3.05122
      C   14   -0.12905      0.99957     2.12012    0.00936     3.12905
      C   15   -0.05677      0.99958     2.04763    0.00956     3.05677
      C   16   -0.12627      0.99958     2.11725    0.00944     3.12627
      C   17   -0.05862      0.99954     2.05107    0.00801     3.05862
      C   18   -0.17669      0.99961     2.16878    0.00830     3.17669
      C   19   -0.29037      0.99967     2.28653    0.00418     3.29037
      H   20    0.09774      0.00000     0.40137    0.00088     0.40226
      H   21    0.09448      0.00000     0.40462    0.00089     0.40552
      H   22    0.10363      0.00000     0.39546    0.00091     0.39637
      H   23    0.10092      0.00000     0.39802    0.00106     0.39908
      H   24    0.10430      0.00000     0.39466    0.00104     0.39570
      H   25    0.10461      0.00000     0.39424    0.00116     0.39539
      H   26    0.09180      0.00000     0.40716    0.00103     0.40820
      H   27    0.08751      0.00000     0.41147    0.00102     0.41249
      H   28    0.09203      0.00000     0.40692    0.00105     0.40797
      H   29    0.10053      0.00000     0.39852    0.00095     0.39947
      H   30    0.10575      0.00000     0.39300    0.00125     0.39425
      H   31    0.09898      0.00000     0.39995    0.00107     0.40102
      H   32    0.09347      0.00000     0.40560    0.00092     0.40653
      H   33    0.09570      0.00000     0.40343    0.00088     0.40430
      H   34    0.10716      0.00000     0.39184    0.00100     0.39284
 =======================================================================
   * Total *    0.00000     18.99321    49.78375    0.22304    69.00000

 Normal termination of Gaussian 16 at Sun Dec 13 18:08:47 2020.
