 Gaussian 16, Revision A.03,

 -----------------------------------------------------------
 # opt freq B3LYP/6-31G(d) empiricaldispersion=gd3bj scf=xqc
 -----------------------------------------------------------

 -------------------------------
 CID_144458336_JID_1710_neutraal
 -------------------------------
 Symbolic Z-matrix:
 Charge =  0 Multiplicity = 1

 SCF Done:  E(RB3LYP) =  -462.264097996     A.U. after   14 cycles
 SCF Done:  E(RB3LYP) =  -462.266075876     A.U. after   12 cycles
 SCF Done:  E(RB3LYP) =  -462.266236360     A.U. after   13 cycles
 SCF Done:  E(RB3LYP) =  -462.267107526     A.U. after   12 cycles
 SCF Done:  E(RB3LYP) =  -462.267146937     A.U. after   11 cycles
 SCF Done:  E(RB3LYP) =  -462.267149273     A.U. after    9 cycles
 SCF Done:  E(RB3LYP) =  -462.267149469     A.U. after    8 cycles
 Optimization completed.
    -- Stationary point found.
 Normal termination of Gaussian 16 at Tue Dec  8 20:51:42 2020.

 --------------------------------------------------------------------
 #N Geom=AllCheck Guess=TCheck SCRF=Check GenChk RB3LYP/6-31G(d) Freq
 --------------------------------------------------------------------

 Structure from the checkpoint file:  "JID_1710.chk"
 -------------------------------
 CID_144458336_JID_1710_neutraal
 -------------------------------
 Charge =  0 Multiplicity = 1

 SCF Done:  E(RB3LYP) =  -462.267149469     A.U. after    1 cycles

  Exact polarizability: 211.552  -5.959 121.347  -2.001  -1.357  44.370
 Approx polarizability: 366.088 -13.862 218.447  -5.020   3.039  69.083

                      1                      2                      3
                      A                      A                      A
 Frequencies --     62.2730               112.2001               175.3316
 Red. masses --      4.6143                 3.1752                 3.2589
 Frc consts  --      0.0105                 0.0236                 0.0590
 IR Inten    --      0.2774                 0.8535                 0.0996

                      4                      5                      6
                      A                      A                      A
 Frequencies --    186.7343               255.8431               307.4641
 Red. masses --      4.4107                 2.2704                 3.5796
 Frc consts  --      0.0906                 0.0876                 0.1994
 IR Inten    --      0.5709                 2.2741                 2.8560

                      7                      8                      9
                      A                      A                      A
 Frequencies --    336.4583               363.9393               374.6270
 Red. masses --      3.2427                 3.2622                 3.0967
 Frc consts  --      0.2163                 0.2546                 0.2561
 IR Inten    --      5.0238                13.5971                13.1537

                     10                     11                     12
                      A                      A                      A
 Frequencies --    426.0765               452.2872               480.3552
 Red. masses --      1.2243                 2.7906                 3.0907
 Frc consts  --      0.1309                 0.3363                 0.4202
 IR Inten    --    105.5314                 1.7713                 7.3143

                     13                     14                     15
                      A                      A                      A
 Frequencies --    557.2202               569.0518               610.9069
 Red. masses --      5.0378                 3.6801                 2.9966
 Frc consts  --      0.9216                 0.7021                 0.6589
 IR Inten    --     12.1183                 1.2149                 0.5985

                     16                     17                     18
                      A                      A                      A
 Frequencies --    677.1796               679.3429               731.4902
 Red. masses --      1.4975                 1.3525                 5.3796
 Frc consts  --      0.4046                 0.3678                 1.6960
 IR Inten    --      8.6243                 7.5304                 3.9196

                     19                     20                     21
                      A                      A                      A
 Frequencies --    741.8519               797.1532               805.9844
 Red. masses --      2.1123                 2.1096                 2.0184
 Frc consts  --      0.6849                 0.7898                 0.7725
 IR Inten    --      4.1624                 3.8839                 7.9833

                     22                     23                     24
                      A                      A                      A
 Frequencies --    826.9110               874.7701               904.1887
 Red. masses --      1.5730                 1.4888                 1.3561
 Frc consts  --      0.6337                 0.6712                 0.6532
 IR Inten    --     22.8461                53.3954                 1.1552

                     25                     26                     27
                      A                      A                      A
 Frequencies --    919.2031               963.4078               971.1007
 Red. masses --      1.5066                 2.0214                 1.4658
 Frc consts  --      0.7500                 1.1054                 0.8144
 IR Inten    --     50.4470                 5.8068                 0.1250

                     28                     29                     30
                      A                      A                      A
 Frequencies --    997.4639              1017.1582              1056.6529
 Red. masses --      1.7400                 1.7389                 1.1083
 Frc consts  --      1.0200                 1.0600                 0.7291
 IR Inten    --      1.9680                 3.8424                11.1310

                     31                     32                     33
                      A                      A                      A
 Frequencies --   1146.3061              1200.2052              1215.9491
 Red. masses --      1.8279                 1.6181                 1.4755
 Frc consts  --      1.4152                 1.3733                 1.2853
 IR Inten    --      2.7685               145.9719               166.6117

                     34                     35                     36
                      A                      A                      A
 Frequencies --   1252.1455              1264.8324              1303.2519
 Red. masses --      1.9093                 1.7460                 2.1298
 Frc consts  --      1.7638                 1.6457                 2.1313
 IR Inten    --      1.9655                67.8056                 4.5057

                     37                     38                     39
                      A                      A                      A
 Frequencies --   1333.0105              1385.6744              1407.0944
 Red. masses --      1.3667                 1.6773                 1.6024
 Frc consts  --      1.4308                 1.8975                 1.8693
 IR Inten    --      2.8059                 2.4757                 0.6300

                     40                     41                     42
                      A                      A                      A
 Frequencies --   1472.8116              1473.7742              1514.2911
 Red. masses --      1.4335                 1.6635                 2.0728
 Frc consts  --      1.8321                 2.1288                 2.8005
 IR Inten    --     14.5798                 2.5220                14.2956

                     43                     44                     45
                      A                      A                      A
 Frequencies --   1603.0133              1618.5399              1647.8594
 Red. masses --      5.0119                 5.6358                 3.9573
 Frc consts  --      7.5879                 8.6986                 6.3312
 IR Inten    --     14.0133                 9.8880                 0.5429

                     46                     47                     48
                      A                      A                      A
 Frequencies --   1689.9813              1713.2726              3143.6371
 Red. masses --      4.1002                 6.3981                 1.0867
 Frc consts  --      6.8995                11.0651                 6.3276
 IR Inten    --      4.1475               189.6698                 9.5543

                     49                     50                     51
                      A                      A                      A
 Frequencies --   3163.8847              3168.1468              3177.3932
 Red. masses --      1.0587                 1.0889                 1.0740
 Frc consts  --      6.2438                 6.4396                 6.3885
 IR Inten    --     10.1026                18.2078                 8.1289

                     52                     53                     54
                      A                      A                      A
 Frequencies --   3181.7466              3188.1083              3222.2439
 Red. masses --      1.0786                 1.0882                 1.0945
 Frc consts  --      6.4332                 6.5168                 6.6957
 IR Inten    --      8.1079                 6.3921                10.1513

                     55                     56                     57
                      A                      A                      A
 Frequencies --   3249.7105              3276.5910              3741.9088
 Red. masses --      1.1156                 1.1122                 1.0656
 Frc consts  --      6.9415                 7.0352                 8.7906
 IR Inten    --     14.3279                 6.4697                37.1015

 - Thermochemistry -
 -------------------
 Temperature   298.150 Kelvin.  Pressure   1.00000 Atm.
 Atom     1 has atomic number  6 and mass  12.00000

 Molecular mass:   146.07317 amu.
 Principal axes and moments of inertia in atomic units:
                           1         2         3
     Eigenvalues --   657.179772864.995373416.31881
           X            0.99999  -0.00420  -0.00096
           Y            0.00420   0.99996  -0.00834
           Z            0.00099   0.00834   0.99996
 This molecule is an asymmetric top.
 Rotational symmetry number  1.
 Warning -- assumption of classical behavior for rotation
           may cause significant error
 Rotational temperatures (Kelvin)      0.13180     0.03023     0.02535
 Rotational constants (GHZ):           2.74619     0.62993     0.52827
 Zero-point vibrational energy     448539.9 (Joules/Mol)
                                  107.20360 (Kcal/Mol)
 Warning -- explicit consideration of  15 degrees of freedom as
           vibrations may cause significant error
 Vibrational temperatures:     89.60   161.43   252.26   268.67   368.10
          (Kelvin)            442.37   484.09   523.63   539.00   613.03
                              650.74   691.12   801.72   818.74   878.96
                              974.31   977.42  1052.45  1067.36  1146.93
                             1159.63  1189.74  1258.60  1300.93  1322.53
                             1386.13  1397.20  1435.13  1463.46  1520.29
                             1649.28  1726.83  1749.48  1801.56  1819.81
                             1875.09  1917.90  1993.68  2024.49  2119.05
                             2120.43  2178.73  2306.38  2328.72  2370.90
                             2431.51  2465.02  4522.99  4552.12  4558.26
                             4571.56  4577.82  4586.98  4636.09  4675.61
                             4714.28  5383.77

 Zero-point correction=                           0.170840 (Hartree/Particle)
 Thermal correction to Energy=                    0.180785
 Thermal correction to Enthalpy=                  0.181729
 Thermal correction to Gibbs Free Energy=         0.135794
 Sum of electronic and zero-point Energies=           -462.096310
 Sum of electronic and thermal Energies=              -462.086365
 Sum of electronic and thermal Enthalpies=            -462.085420
 Sum of electronic and thermal Free Energies=         -462.131355

                     E (Thermal)             CV                S
                      KCal/Mol        Cal/Mol-Kelvin    Cal/Mol-Kelvin
 Total                  113.444             39.473             96.678
 Electronic               0.000              0.000              0.000
 Translational            0.889              2.981             40.848
 Rotational               0.889              2.981             30.243
 Vibrational            111.667             33.511             25.587
 Vibration     1          0.597              1.972              4.384
 Vibration     2          0.607              1.939              3.230
 Vibration     3          0.627              1.873              2.378
 Vibration     4          0.632              1.858              2.260
 Vibration     5          0.666              1.753              1.690
 Vibration     6          0.697              1.660              1.376
 Vibration     7          0.717              1.603              1.229
 Vibration     8          0.737              1.546              1.105
 Vibration     9          0.746              1.524              1.061
 Vibration    10          0.788              1.414              0.872
 Vibration    11          0.811              1.356              0.789
 Vibration    12          0.837              1.294              0.709
 Vibration    13          0.913              1.124              0.529
 Vibration    14          0.925              1.098              0.506
 Vibration    15          0.970              1.009              0.431

 Optimization completed.
    -- Stationary point found.
 Normal termination of Gaussian 16 at Tue Dec  8 20:55:44 2020.

 ----------------------------------------------------------------------
 # B3LYP/6-311++G(d,p) empiricaldispersion=gd3bj scf=xqc pop=npa geom=c
 heck
 ----------------------------------------------------------------------

 ---------------------------------------
 CID_144458336_JID_1710_Energie_neutraal
 ---------------------------------------
 Structure from the checkpoint file:  "JID_1710.chk"
 Charge =  0 Multiplicity = 1

 SCF Done:  E(RB3LYP) =  -462.401564035     A.U. after   15 cycles
 Normal termination of Gaussian 16 at Tue Dec  8 20:57:54 2020.

 ----------------------------------------------------------------------
 # B3LYP/6-311++G(d,p) empiricaldispersion=gd3bj scf=xqc pop=npa geom=c
 heck
 ----------------------------------------------------------------------

 -------------------------------------
 CID_144458336_JID_1710_Energie_kation
 -------------------------------------
 Structure from the checkpoint file:  "JID_1710.chk"
 Charge =  1 Multiplicity = 2

 SCF Done:  E(UB3LYP) =  -462.146659322     A.U. after   21 cycles
 Normal termination of Gaussian 16 at Tue Dec  8 21:03:08 2020.
 Gaussian 16:  ES64L-G16RevA.03 25-Dec-2016

 ----------------------------------------------------------------------
 # B3LYP/6-311++G(d,p) empiricaldispersion=gd3bj scf=xqc pop=npa geom=c
 heck
 ----------------------------------------------------------------------

 ------------------------------------
 CID_144458336_JID_1710_Energie_anion
 ------------------------------------
 Structure from the checkpoint file:  "JID_1710.chk"
 Charge = -1 Multiplicity = 2

                         Standard orientation:
 ---------------------------------------------------------------------
 Center     Atomic      Atomic             Coordinates (Angstroms)
 Number     Number       Type             X           Y           Z
 ---------------------------------------------------------------------
      1          6           0        4.167500   -0.270987   -0.328134
      2          6           0        2.872789    0.096758   -0.358868
      3          6           0        1.790027   -0.755296    0.068162
      4          6           0        0.464925   -0.438313    0.217926
      5          6           0       -0.483518   -1.530616    0.350400
      6          6           0       -1.811635   -1.354088    0.164209
      7          6           0       -2.327985   -0.038507   -0.145077
      8          6           0       -1.514768    1.047301   -0.160371
      9          6           0       -0.102850    0.933328    0.176971
     10          6           0        0.606921    2.037343    0.521952
     11          8           0       -3.671932   -0.004052   -0.386465
     12          1           0        4.478673   -1.227228    0.086217
     13          1           0        4.952023    0.376173   -0.707275
     14          1           0        2.608203    1.072210   -0.760555
     15          1           0        2.054548   -1.803046    0.213294
     16          1           0       -0.085442   -2.526455    0.526671
     17          1           0       -2.514557   -2.179336    0.206339
     18          1           0       -1.921823    2.042958   -0.325410
     19          1           0        0.151877    3.022542    0.473231
     20          1           0        1.613355    1.981568    0.915294
     21          1           0       -3.929843    0.911490   -0.579113
 ---------------------------------------------------------------------

 SCF Done:  E(UB3LYP) =  -462.427640283     A.U. after   24 cycles

 The electronic state is 2-A.
 Alpha  occ. eigenvalues --  -19.02518 -10.08177 -10.02788 -10.01803 -10.01760
 Alpha  occ. eigenvalues --  -10.01704 -10.01237 -10.01158 -10.00294 -10.00019
 Alpha  occ. eigenvalues --   -9.98833  -0.93397  -0.70005  -0.64255  -0.61760
 Alpha  occ. eigenvalues --   -0.59602  -0.53904  -0.50781  -0.45686  -0.43075
 Alpha  occ. eigenvalues --   -0.39618  -0.38804  -0.34787  -0.32919  -0.29493
 Alpha  occ. eigenvalues --   -0.28453  -0.27615  -0.27474  -0.25939  -0.25418
 Alpha  occ. eigenvalues --   -0.23690  -0.21005  -0.20471  -0.20189  -0.17879
 Alpha  occ. eigenvalues --   -0.15524  -0.12998  -0.09640  -0.04039   0.03271
 Alpha virt. eigenvalues --    0.08478   0.10013   0.10417   0.11258   0.11863
 Alpha virt. eigenvalues --    0.13226   0.13521   0.13742   0.14256   0.15259
 Alpha virt. eigenvalues --    0.15831   0.16404   0.17577   0.17856   0.18421

  Beta  occ. eigenvalues --  -19.02486 -10.08122 -10.02846 -10.01772 -10.01740
  Beta  occ. eigenvalues --  -10.01644 -10.01149 -10.01010  -9.99952  -9.99642
  Beta  occ. eigenvalues --   -9.98480  -0.93320  -0.69670  -0.63778  -0.61394
  Beta  occ. eigenvalues --   -0.59264  -0.53397  -0.50260  -0.45216  -0.42718
  Beta  occ. eigenvalues --   -0.39292  -0.38579  -0.34596  -0.32772  -0.29336
  Beta  occ. eigenvalues --   -0.28232  -0.27430  -0.27137  -0.25758  -0.25157
  Beta  occ. eigenvalues --   -0.23532  -0.20645  -0.20299  -0.19483  -0.17646
  Beta  occ. eigenvalues --   -0.14318  -0.11931  -0.08546  -0.02000
  Beta virt. eigenvalues --    0.08469   0.08861   0.09992   0.10405   0.11243
  Beta virt. eigenvalues --    0.11848   0.13262   0.13687   0.14043   0.14422
  Beta virt. eigenvalues --    0.15455   0.16263   0.16545   0.17731   0.18066

 Mulliken charges and spin densities:
               1          2
     1  C   -0.756883   0.335418
     2  C    0.173890  -0.109720
     3  C    0.002224   0.369346
     4  C    0.552306  -0.024641
     5  C   -0.082173   0.089584
     6  C   -0.165502   0.083519
     7  C   -0.328937   0.056292
     8  C   -0.448953   0.051839
     9  C    0.270444  -0.092474
    10  C   -0.990303   0.322684
    11  O   -0.259116   0.005480
    12  H    0.066153  -0.010690
    13  H    0.094802  -0.014821
    14  H    0.122378   0.002453
    15  H    0.044494  -0.007234
    16  H    0.084983  -0.008372
    17  H    0.136370  -0.010224
    18  H    0.048367  -0.007860
    19  H    0.070649  -0.017505
    20  H    0.127597  -0.013678
    21  H    0.237209   0.000601
 Sum of Mulliken charges =  -1.00000   1.00000

 Dipole moment (field-independent basis, Debye):
    X=             -3.4693    Y=              0.5622    Z=             -0.4249  Tot=              3.5401
 Quadrupole moment (field-independent basis, Debye-Ang):
   XX=           -103.4378   YY=            -75.1072   ZZ=            -78.4301
   XY=             -6.2102   XZ=              2.6540   YZ=             -3.4250

 Summary of Natural Population Analysis:

                                       Natural Population
                Natural  -----------------------------------------------
    Atom  No    Charge         Core      Valence    Rydberg      Total
 -----------------------------------------------------------------------
      C    1   -0.13308      0.99960     2.12445    0.00903     3.13308
      C    2   -0.12848      0.99957     2.11977    0.00915     3.12848
      C    3   -0.01430      0.99950     2.00507    0.00973     3.01430
      C    4   -0.03508      0.99947     2.02608    0.00953     3.03508
      C    5   -0.05144      0.99954     2.04305    0.00885     3.05144
      C    6   -0.11648      0.99952     2.10608    0.01088     3.11648
      C    7    0.15984      0.99937     1.82818    0.01261     2.84016
      C    8   -0.14223      0.99947     2.13280    0.00996     3.14223
      C    9   -0.04543      0.99951     2.03675    0.00918     3.04543
      C   10   -0.13411      0.99957     2.12631    0.00823     3.13411
      O   11   -0.34702      0.99988     3.34075    0.00639     4.34702
      H   12    0.07699      0.00000     0.42178    0.00122     0.42301
      H   13    0.07873      0.00000     0.42021    0.00106     0.42127
      H   14    0.09753      0.00000     0.40042    0.00205     0.40247
      H   15    0.07874      0.00000     0.41918    0.00207     0.42126
      H   16    0.08725      0.00000     0.41108    0.00167     0.41275
      H   17    0.09246      0.00000     0.40583    0.00170     0.40754
      H   18    0.08384      0.00000     0.41384    0.00231     0.41616
      H   19    0.07658      0.00000     0.42219    0.00124     0.42342
      H   20    0.09023      0.00000     0.40881    0.00097     0.40977
      H   21    0.22546      0.00000     0.27206    0.00247     0.27454
 =======================================================================
   * Total *   -0.00000     10.99499    27.88469    0.12032    39.00000

 Normal termination of Gaussian 16 at Tue Dec  8 21:08:45 2020.
