 Gaussian 16, Revision A.03,

 -----------------------------------------------------------
 # opt freq B3LYP/6-31G(d) empiricaldispersion=gd3bj scf=xqc
 -----------------------------------------------------------

 -------------------------------
 CID_90740574_JID_10999_neutraal
 -------------------------------
 Symbolic Z-matrix:
 Charge =  0 Multiplicity = 1

 SCF Done:  E(RB3LYP) =  -1284.04227707     A.U. after   15 cycles
 SCF Done:  E(RB3LYP) =  -1284.04972777     A.U. after   12 cycles
 SCF Done:  E(RB3LYP) =  -1284.05108390     A.U. after   13 cycles
 SCF Done:  E(RB3LYP) =  -1284.05158718     A.U. after   13 cycles
 SCF Done:  E(RB3LYP) =  -1284.05231126     A.U. after   12 cycles
 SCF Done:  E(RB3LYP) =  -1284.05242499     A.U. after   12 cycles
 SCF Done:  E(RB3LYP) =  -1284.05246698     A.U. after   11 cycles
 SCF Done:  E(RB3LYP) =  -1284.05251123     A.U. after   10 cycles
 SCF Done:  E(RB3LYP) =  -1284.05252287     A.U. after   10 cycles
 SCF Done:  E(RB3LYP) =  -1284.05252623     A.U. after   10 cycles
 SCF Done:  E(RB3LYP) =  -1284.05253501     A.U. after    9 cycles
 SCF Done:  E(RB3LYP) =  -1284.05253533     A.U. after    9 cycles
 SCF Done:  E(RB3LYP) =  -1284.05253542     A.U. after    7 cycles
 SCF Done:  E(RB3LYP) =  -1284.05253546     A.U. after    7 cycles
 SCF Done:  E(RB3LYP) =  -1284.05253546     A.U. after    6 cycles
 Optimization completed.
    -- Stationary point found.
 Normal termination of Gaussian 16 at Sun Dec 13 17:01:39 2020.

 --------------------------------------------------------------------
 #N Geom=AllCheck Guess=TCheck SCRF=Check GenChk RB3LYP/6-31G(d) Freq
 --------------------------------------------------------------------

 Structure from the checkpoint file:  "JID_10999.chk"
 -------------------------------
 CID_90740574_JID_10999_neutraal
 -------------------------------
 Charge =  0 Multiplicity = 1

 SCF Done:  E(RB3LYP) =  -1284.05253546     A.U. after    1 cycles

  Exact polarizability: 213.880 -11.690 177.108  -6.690 -12.377 161.240
 Approx polarizability: 288.473 -22.708 269.289 -26.610 -50.240 267.748

                      1                      2                      3
                      A                      A                      A
 Frequencies --     12.4418                13.6157                30.3840
 Red. masses --      4.5341                 4.4251                 4.3799
 Frc consts  --      0.0004                 0.0005                 0.0024
 IR Inten    --      0.1301                 0.6765                 0.0233

                      4                      5                      6
                      A                      A                      A
 Frequencies --     32.6919                50.7717                59.1815
 Red. masses --      4.2907                 4.1361                 3.7992
 Frc consts  --      0.0027                 0.0063                 0.0078
 IR Inten    --      0.1707                 0.4997                 0.3578

                      7                      8                      9
                      A                      A                      A
 Frequencies --     65.2147                88.2727                96.1497
 Red. masses --      4.7081                 3.5652                 3.5441
 Frc consts  --      0.0118                 0.0164                 0.0193
 IR Inten    --      1.0279                 0.9196                 0.0922

                     10                     11                     12
                      A                      A                      A
 Frequencies --    105.8242               131.0832               143.5932
 Red. masses --      2.6710                 3.0739                 7.1969
 Frc consts  --      0.0176                 0.0311                 0.0874
 IR Inten    --      0.3877                 0.1808                 0.2211

                     13                     14                     15
                      A                      A                      A
 Frequencies --    167.5573               192.9823               207.2565
 Red. masses --      2.6253                 2.2722                 2.9767
 Frc consts  --      0.0434                 0.0499                 0.0753
 IR Inten    --      0.1585                 0.2028                 0.5097

                     16                     17                     18
                      A                      A                      A
 Frequencies --    221.7376               233.8690               239.6414
 Red. masses --      1.2434                 1.4315                 1.4011
 Frc consts  --      0.0360                 0.0461                 0.0474
 IR Inten    --      0.4934                 0.7389                 1.3388

                     19                     20                     21
                      A                      A                      A
 Frequencies --    248.9370               287.9256               318.7783
 Red. masses --      1.3512                 2.9259                 2.3067
 Frc consts  --      0.0493                 0.1429                 0.1381
 IR Inten    --      0.7353                 0.2520                 6.7803

                     22                     23                     24
                      A                      A                      A
 Frequencies --    326.7679               353.7898               365.7965
 Red. masses --      3.0970                 3.1096                 3.1622
 Frc consts  --      0.1948                 0.2293                 0.2493
 IR Inten    --      0.3650                 1.5600                 4.7677

                     25                     26                     27
                      A                      A                      A
 Frequencies --    383.1234               391.6197               400.4380
 Red. masses --      3.8141                 4.1991                 3.1391
 Frc consts  --      0.3299                 0.3794                 0.2966
 IR Inten    --      5.1465                 0.4661                 1.2038

                     28                     29                     30
                      A                      A                      A
 Frequencies --    434.3322               456.4219               460.6785
 Red. masses --      3.9892                 3.2675                 2.7342
 Frc consts  --      0.4434                 0.4010                 0.3419
 IR Inten    --      5.9382                 0.5446                 1.5925

                     31                     32                     33
                      A                      A                      A
 Frequencies --    524.2006               567.8980               596.3712
 Red. masses --      4.1567                 2.7164                 3.8379
 Frc consts  --      0.6730                 0.5162                 0.8042
 IR Inten    --      5.5194                25.7873                 0.9959

                     34                     35                     36
                      A                      A                      A
 Frequencies --    603.7000               634.1994               650.0086
 Red. masses --      3.3122                 3.5773                 1.7505
 Frc consts  --      0.7112                 0.8477                 0.4358
 IR Inten    --     23.3908                21.9256                43.3917

                     37                     38                     39
                      A                      A                      A
 Frequencies --    660.0514               687.3997               717.4710
 Red. masses --      4.5688                 4.4374                 3.9647
 Frc consts  --      1.1727                 1.2354                 1.2025
 IR Inten    --     45.0354                24.4643                13.7068

                     40                     41                     42
                      A                      A                      A
 Frequencies --    773.5296               795.6199               797.9663
 Red. masses --      5.3595                 5.1211                 1.4029
 Frc consts  --      1.8894                 1.9100                 0.5263
 IR Inten    --     24.5126                14.6401                 4.7048

                     43                     44                     45
                      A                      A                      A
 Frequencies --    816.9504               846.1545               857.3344
 Red. masses --      1.4499                 2.0203                 2.1382
 Frc consts  --      0.5701                 0.8522                 0.9260
 IR Inten    --      6.9529                 2.0333                 5.0048

                     46                     47                     48
                      A                      A                      A
 Frequencies --    869.5154               888.0162               911.5574
 Red. masses --      1.7256                 2.7826                 2.2144
 Frc consts  --      0.7687                 1.2928                 1.0841
 IR Inten    --      3.9921                 7.6223                 0.5974

                     49                     50                     51
                      A                      A                      A
 Frequencies --    935.7920               944.3077               965.0731
 Red. masses --      2.6318                 1.1709                 1.8449
 Frc consts  --      1.3579                 0.6152                 1.0124
 IR Inten    --      6.2350                 2.3439                 2.9784

                     52                     53                     54
                      A                      A                      A
 Frequencies --    981.9342              1004.5619              1040.1001
 Red. masses --      1.5133                 2.9296                 1.8475
 Frc consts  --      0.8597                 1.7418                 1.1776
 IR Inten    --      0.4669                14.7810                 4.4984

                     55                     56                     57
                      A                      A                      A
 Frequencies --   1063.3839              1071.0355              1099.5577
 Red. masses --      3.8180                 1.8807                 2.6393
 Frc consts  --      2.5437                 1.2711                 1.8801
 IR Inten    --     45.7352                21.6836                 2.0901

                     58                     59                     60
                      A                      A                      A
 Frequencies --   1131.3832              1140.3479              1145.4804
 Red. masses --      2.0165                 2.2523                 2.5052
 Frc consts  --      1.5208                 1.7256                 1.9367
 IR Inten    --     34.3443                 4.1627                69.8447

                     61                     62                     63
                      A                      A                      A
 Frequencies --   1172.3522              1194.3488              1201.0211
 Red. masses --      1.6438                 2.2312                 2.1854
 Frc consts  --      1.3311                 1.8752                 1.8573
 IR Inten    --    124.9088                 2.3808                98.5154

                     64                     65                     66
                      A                      A                      A
 Frequencies --   1205.9460              1209.5132              1223.2912
 Red. masses --      2.1583                 1.7562                 2.3947
 Frc consts  --      1.8494                 1.5137                 2.1113
 IR Inten    --     79.2811                 5.8742                76.3887

                     67                     68                     69
                      A                      A                      A
 Frequencies --   1236.3731              1290.0942              1290.3005
 Red. masses --      2.0628                 1.7686                 1.3721
 Frc consts  --      1.8579                 1.7343                 1.3459
 IR Inten    --    166.0217                98.4364                16.4091

                     70                     71                     72
                      A                      A                      A
 Frequencies --   1305.4652              1333.0041              1342.7963
 Red. masses --      1.5103                 1.3799                 1.2096
 Frc consts  --      1.5165                 1.4447                 1.2851
 IR Inten    --     67.2531                 3.9720                10.9459

                     73                     74                     75
                      A                      A                      A
 Frequencies --   1347.6049              1365.5542              1370.2116
 Red. masses --      1.4082                 1.4595                 1.5818
 Frc consts  --      1.5067                 1.6035                 1.7497
 IR Inten    --      6.5594                11.4453                36.6807

                     76                     77                     78
                      A                      A                      A
 Frequencies --   1387.5611              1393.3677              1418.3940
 Red. masses --      1.4473                 1.5313                 1.2978
 Frc consts  --      1.6418                 1.7517                 1.5384
 IR Inten    --      9.0767                25.7298                 6.3940

                     79                     80                     81
                      A                      A                      A
 Frequencies --   1425.8390              1431.4944              1443.1421
 Red. masses --      3.0566                 1.2888                 1.2744
 Frc consts  --      3.6613                 1.5560                 1.5638
 IR Inten    --     32.1558                 4.1170                 4.2207

                     82                     83                     84
                      A                      A                      A
 Frequencies --   1443.6513              1450.7202              1486.2129
 Red. masses --      1.3011                 1.2273                 1.0905
 Frc consts  --      1.5976                 1.5219                 1.4191
 IR Inten    --      5.8676                 7.1627                15.4108

                     85                     86                     87
                      A                      A                      A
 Frequencies --   1514.6628              1515.8382              1519.2688
 Red. masses --      1.0574                 1.0533                 1.0521
 Frc consts  --      1.4293                 1.4259                 1.4308
 IR Inten    --      4.8458                 3.8802                 0.1178

                     88                     89                     90
                      A                      A                      A
 Frequencies --   1520.3058              1524.3306              1527.4067
 Red. masses --      1.0794                 1.0449                 1.0413
 Frc consts  --      1.4700                 1.4306                 1.4313
 IR Inten    --      4.7147                 2.7387                 5.6555

                     91                     92                     93
                      A                      A                      A
 Frequencies --   1532.7015              1535.3285              1536.2312
 Red. masses --      1.0709                 1.0595                 1.0754
 Frc consts  --      1.4822                 1.4715                 1.4953
 IR Inten    --      8.9761                 0.8997                 7.4047

                     94                     95                     96
                      A                      A                      A
 Frequencies --   1544.1596              1556.6034              1618.6200
 Red. masses --      1.0582                 7.0951                 7.0372
 Frc consts  --      1.4867                10.1290                10.8627
 IR Inten    --      6.2962                94.6658                42.3900

                     97                     98                     99
                      A                      A                      A
 Frequencies --   1806.3835              1825.6234              3005.9728
 Red. masses --      9.2092                11.0626                 1.0809
 Frc consts  --     17.7048                21.7235                 5.7543
 IR Inten    --    332.5080               248.7986                 0.2610

                    100                    101                    102
                      A                      A                      A
 Frequencies --   3018.5524              3037.9340              3041.8327
 Red. masses --      1.0828                 1.0685                 1.0393
 Frc consts  --      5.8132                 5.8103                 5.6657
 IR Inten    --     16.7814                20.0491                18.3602

                    103                    104                    105
                      A                      A                      A
 Frequencies --   3047.4793              3049.4175              3060.6433
 Red. masses --      1.0400                 1.0371                 1.0358
 Frc consts  --      5.6905                 5.6819                 5.7167
 IR Inten    --     43.5801                25.6141                12.0075

                    106                    107                    108
                      A                      A                      A
 Frequencies --   3093.1128              3093.8122              3097.1843
 Red. masses --      1.0950                 1.0583                 1.0592
 Frc consts  --      6.1724                 5.9681                 5.9861
 IR Inten    --     22.1059                14.9503                26.5071

                    109                    110                    111
                      A                      A                      A
 Frequencies --   3104.1732              3111.0458              3113.4251
 Red. masses --      1.0999                 1.0990                 1.1017
 Frc consts  --      6.2442                 6.2669                 6.2923
 IR Inten    --      1.6671                59.2938                41.1924

                    112                    113                    114
                      A                      A                      A
 Frequencies --   3126.7721              3128.0653              3131.9589
 Red. masses --      1.1020                 1.1016                 1.0995
 Frc consts  --      6.3481                 6.3506                 6.3542
 IR Inten    --     39.3761                21.2005                52.6520

                    115                    116                    117
                      A                      A                      A
 Frequencies --   3134.9790              3138.8538              3147.9328
 Red. masses --      1.1005                 1.1033                 1.1054
 Frc consts  --      6.3722                 6.4045                 6.4538
 IR Inten    --     37.6210                 9.7284                 7.8297

                    118                    119                    120
                      A                      A                      A
 Frequencies --   3159.5449              3243.4590              3697.8287
 Red. masses --      1.1088                 1.0931                 1.0641
 Frc consts  --      6.5215                 6.7753                 8.5726
 IR Inten    --     23.4926                 2.0080                78.3781

 - Thermochemistry -
 -------------------
 Temperature   298.150 Kelvin.  Pressure   1.00000 Atm.
 Atom     1 has atomic number  6 and mass  12.00000

 Molecular mass:   298.12388 amu.
 Principal axes and moments of inertia in atomic units:
                           1         2         3
     Eigenvalues --  4397.508488772.49947**********
           X            0.99993   0.00834   0.00840
           Y           -0.00878   0.99847   0.05455
           Z           -0.00793  -0.05462   0.99848
 This molecule is an asymmetric top.
 Rotational symmetry number  1.
 Warning -- assumption of classical behavior for rotation
           may cause significant error
 Rotational temperatures (Kelvin)      0.01970     0.00987     0.00828
 Rotational constants (GHZ):           0.41040     0.20573     0.17247
 Zero-point vibrational energy     927533.4 (Joules/Mol)
                                  221.68581 (Kcal/Mol)
 Warning -- explicit consideration of  34 degrees of freedom as
           vibrations may cause significant error
 Vibrational temperatures:     17.90    19.59    43.72    47.04    73.05
          (Kelvin)             85.15    93.83   127.00   138.34   152.26
                              188.60   206.60   241.08   277.66   298.20
                              319.03   336.49   344.79   358.16   414.26
                              458.65   470.15   509.02   526.30   551.23
                              563.45   576.14   624.91   656.69   662.81
                              754.21   817.08   858.05   868.59   912.47
                              935.22   949.67   989.01  1032.28  1112.94
                             1144.72  1148.10  1175.41  1217.43  1233.51
                             1251.04  1277.66  1311.53  1346.40  1358.65
                             1388.52  1412.78  1445.34  1496.47  1529.97
                             1540.98  1582.02  1627.81  1640.71  1648.09
                             1686.75  1718.40  1728.00  1735.09  1740.22
                             1760.04  1778.87  1856.16  1856.45  1878.27
                             1917.90  1931.98  1938.90  1964.73  1971.43
                             1996.39  2004.75  2040.75  2051.46  2059.60
                             2076.36  2077.09  2087.26  2138.33  2179.26
                             2180.95  2185.89  2187.38  2193.17  2197.60
                             2205.22  2209.00  2210.29  2221.70  2239.61
                             2328.83  2598.98  2626.66  4324.92  4343.02
                             4370.91  4376.52  4384.64  4387.43  4403.58
                             4450.30  4451.31  4456.16  4466.21  4476.10
                             4479.52  4498.73  4500.59  4506.19  4510.54
                             4516.11  4529.17  4545.88  4666.61  5320.35

 Zero-point correction=                           0.353279 (Hartree/Particle)
 Thermal correction to Energy=                    0.375769
 Thermal correction to Enthalpy=                  0.376713
 Thermal correction to Gibbs Free Energy=         0.297634
 Sum of electronic and zero-point Energies=          -1283.699257
 Sum of electronic and thermal Energies=             -1283.676767
 Sum of electronic and thermal Enthalpies=           -1283.675822
 Sum of electronic and thermal Free Energies=        -1283.754902

                     E (Thermal)             CV                S
                      KCal/Mol        Cal/Mol-Kelvin    Cal/Mol-Kelvin
 Total                  235.799             81.187            166.437
 Electronic               0.000              0.000              0.000
 Translational            0.889              2.981             42.974
 Rotational               0.889              2.981             34.356
 Vibrational            234.021             75.225             89.107
 Vibration     1          0.593              1.987              7.577
 Vibration     2          0.593              1.986              7.398
 Vibration     3          0.594              1.984              5.804
 Vibration     4          0.594              1.983              5.659
 Vibration     5          0.595              1.977              4.787
 Vibration     6          0.597              1.974              4.484
 Vibration     7          0.597              1.971              4.293
 Vibration     8          0.601              1.957              3.698
 Vibration     9          0.603              1.952              3.531
 Vibration    10          0.605              1.945              3.344
 Vibration    11          0.612              1.922              2.930
 Vibration    12          0.616              1.910              2.755
 Vibration    13          0.624              1.882              2.463
 Vibration    14          0.635              1.850              2.199
 Vibration    15          0.641              1.830              2.068
 Vibration    16          0.648              1.808              1.945
 Vibration    17          0.654              1.789              1.849
 Vibration    18          0.657              1.780              1.806
 Vibration    19          0.662              1.765              1.738
 Vibration    20          0.685              1.696              1.486
 Vibration    21          0.705              1.638              1.316
 Vibration    22          0.710              1.622              1.276
 Vibration    23          0.730              1.567              1.149
 Vibration    24          0.739              1.543              1.097
 Vibration    25          0.752              1.506              1.027
 Vibration    26          0.759              1.488              0.994
 Vibration    27          0.766              1.469              0.961
 Vibration    28          0.795              1.395              0.845
 Vibration    29          0.815              1.347              0.777
 Vibration    30          0.819              1.337              0.764
 Vibration    31          0.879              1.196              0.600
 Vibration    32          0.924              1.101              0.508
 Vibration    33          0.954              1.040              0.456
 Vibration    34          0.962              1.024              0.443

 Optimization completed.
    -- Stationary point found.
 Normal termination of Gaussian 16 at Sun Dec 13 17:23:12 2020.

 ----------------------------------------------------------------------
 # B3LYP/6-311++G(d,p) empiricaldispersion=gd3bj scf=xqc pop=npa geom=c
 heck
 ----------------------------------------------------------------------

 ---------------------------------------
 CID_90740574_JID_10999_Energie_neutraal
 ---------------------------------------
 Structure from the checkpoint file:  "JID_10999.chk"
 Charge =  0 Multiplicity = 1

 SCF Done:  E(RB3LYP) =  -1284.33846700     A.U. after   16 cycles
 Normal termination of Gaussian 16 at Sun Dec 13 17:32:58 2020.

 ----------------------------------------------------------------------
 # B3LYP/6-311++G(d,p) empiricaldispersion=gd3bj scf=xqc pop=npa geom=c
 heck
 ----------------------------------------------------------------------

 -------------------------------------
 CID_90740574_JID_10999_Energie_kation
 -------------------------------------
 Structure from the checkpoint file:  "JID_10999.chk"
 Charge =  1 Multiplicity = 2

 SCF Done:  E(UB3LYP) =  -1284.03892702     A.U. after   27 cycles
 Normal termination of Gaussian 16 at Sun Dec 13 17:55:04 2020.
 Gaussian 16:  ES64L-G16RevA.03 25-Dec-2016

 ----------------------------------------------------------------------
 # B3LYP/6-311++G(d,p) empiricaldispersion=gd3bj scf=xqc pop=npa geom=c
 heck
 ----------------------------------------------------------------------

 ------------------------------------
 CID_90740574_JID_10999_Energie_anion
 ------------------------------------
 Structure from the checkpoint file:  "JID_10999.chk"
 Charge = -1 Multiplicity = 2

                         Standard orientation:
 ---------------------------------------------------------------------
 Center     Atomic      Atomic             Coordinates (Angstroms)
 Number     Number       Type             X           Y           Z
 ---------------------------------------------------------------------
      1          6           0        1.664144   -1.952918   -2.109881
      2          6           0        2.646639   -1.793663   -0.947420
      3          6           0        2.789622   -0.336446   -0.450209
      4          6           0        1.442611    0.253027   -0.135073
      5          6           0        0.800852    1.293654   -0.736641
      6          6           0       -0.502756    1.564284   -0.194977
      7          6           0       -0.842378    0.713934    0.836489
      8         16           0        0.439239   -0.420710    1.139522
      9          6           0       -2.135502    0.589917    1.583517
     10          6           0       -2.951471   -0.607103    1.107539
     11          8           0       -3.463659   -1.424707    1.839645
     12          8           0       -3.026949   -0.627939   -0.237312
     13          6           0       -3.693250   -1.767054   -0.828419
     14          6           0       -2.732742   -2.938637   -0.955174
     15          6           0       -1.393605    2.622957   -0.698194
     16          8           0       -2.490401    2.923523   -0.261533
     17          8           0       -0.849976    3.283246   -1.756078
     18          6           0        3.773463   -0.194643    0.744524
     19          6           0        5.160918   -0.765813    0.423309
     20          6           0        3.896619    1.269373    1.185543
     21          1           0        0.646981   -1.672884   -1.817700
     22          1           0        1.643965   -2.990036   -2.461649
     23          1           0        1.950593   -1.316649   -2.956126
     24          1           0        2.332006   -2.427865   -0.106601
     25          1           0        3.630754   -2.158625   -1.258586
     26          1           0        3.193012    0.262315   -1.281025
     27          1           0        1.230534    1.862935   -1.551340
     28          1           0       -1.977512    0.464255    2.657311
     29          1           0       -2.719583    1.497446    1.408036
     30          1           0       -4.561763   -2.025863   -0.218413
     31          1           0       -4.026301   -1.408765   -1.804904
     32          1           0       -2.421510   -3.285020    0.034256
     33          1           0       -3.220864   -3.770921   -1.474593
     34          1           0       -1.842974   -2.648399   -1.523554
     35          1           0       -1.509200    3.956706   -2.006129
     36          1           0        3.354600   -0.769956    1.584196
     37          1           0        5.580085   -0.289758   -0.472782
     38          1           0        5.851751   -0.575384    1.252027
     39          1           0        5.140997   -1.846062    0.253744
     40          1           0        2.928443    1.692034    1.468276
     41          1           0        4.572440    1.359343    2.043015
     42          1           0        4.304623    1.884318    0.372813
 ---------------------------------------------------------------------

 SCF Done:  E(UB3LYP) =  -1284.34208580     A.U. after   33 cycles
 SCF Done:  E(UB3LYP) =  -1284.34208580     a.u. after    1 cycles

 The electronic state is 2-A.
 Alpha  occ. eigenvalues --  -88.72366 -19.04628 -19.02216 -18.99098 -18.94988
 Alpha  occ. eigenvalues --  -10.17559 -10.13603 -10.12193 -10.07854 -10.07645
 Alpha  occ. eigenvalues --  -10.07290 -10.06710 -10.06342 -10.05938 -10.05761
 Alpha  occ. eigenvalues --  -10.05690 -10.05248 -10.04061 -10.03747 -10.02532
 Alpha  occ. eigenvalues --   -7.81044  -5.77339  -5.76973  -5.76654  -0.98760
 Alpha  occ. eigenvalues --   -0.95883  -0.90199  -0.86362  -0.75018  -0.71817
 Alpha  occ. eigenvalues --   -0.67568  -0.66783  -0.63834  -0.61110  -0.59470
 Alpha  occ. eigenvalues --   -0.58787  -0.55820  -0.53760  -0.50086  -0.49184
 Alpha  occ. eigenvalues --   -0.46865  -0.44550  -0.42156  -0.39902  -0.38311
 Alpha  occ. eigenvalues --   -0.37320  -0.37130  -0.35730  -0.35437  -0.34847
 Alpha  occ. eigenvalues --   -0.34448  -0.33818  -0.32567  -0.31894  -0.30870
 Alpha  occ. eigenvalues --   -0.30617  -0.30251  -0.29683  -0.29398  -0.28986
 Alpha  occ. eigenvalues --   -0.27846  -0.27480  -0.26492  -0.25936  -0.25628
 Alpha  occ. eigenvalues --   -0.24991  -0.24265  -0.24029  -0.23426  -0.23093
 Alpha  occ. eigenvalues --   -0.22217  -0.21445  -0.21315  -0.19537  -0.19073
 Alpha  occ. eigenvalues --   -0.18296  -0.16283  -0.13115  -0.11800  -0.09532
 Alpha  occ. eigenvalues --    0.04818
 Alpha virt. eigenvalues --    0.06444   0.07004   0.08151   0.08578   0.09163
 Alpha virt. eigenvalues --    0.09364   0.10166   0.10251   0.10861   0.11258
 Alpha virt. eigenvalues --    0.11514   0.11735   0.12195   0.12398   0.12734

  Beta  occ. eigenvalues --  -88.72324 -19.04621 -19.02122 -18.99080 -18.94767
  Beta  occ. eigenvalues --  -10.17458 -10.13333 -10.12190 -10.07846 -10.07652
  Beta  occ. eigenvalues --  -10.07290 -10.06703 -10.06323 -10.05938 -10.05760
  Beta  occ. eigenvalues --  -10.05588 -10.05296 -10.03793 -10.03405 -10.02506
  Beta  occ. eigenvalues --   -7.81005  -5.77327  -5.76963  -5.76495  -0.98712
  Beta  occ. eigenvalues --   -0.95580  -0.90157  -0.86002  -0.74771  -0.71613
  Beta  occ. eigenvalues --   -0.67477  -0.66752  -0.63563  -0.60848  -0.59364
  Beta  occ. eigenvalues --   -0.58723  -0.55616  -0.53663  -0.49966  -0.48810
  Beta  occ. eigenvalues --   -0.46759  -0.44488  -0.42022  -0.39562  -0.38047
  Beta  occ. eigenvalues --   -0.37225  -0.37076  -0.35663  -0.35372  -0.34734
  Beta  occ. eigenvalues --   -0.34322  -0.33599  -0.32501  -0.31715  -0.30681
  Beta  occ. eigenvalues --   -0.30496  -0.29652  -0.29381  -0.29215  -0.28941
  Beta  occ. eigenvalues --   -0.27735  -0.27390  -0.26343  -0.25829  -0.25492
  Beta  occ. eigenvalues --   -0.24811  -0.24196  -0.24008  -0.23128  -0.23039
  Beta  occ. eigenvalues --   -0.22102  -0.21297  -0.20885  -0.19278  -0.19003
  Beta  occ. eigenvalues --   -0.17283  -0.16145  -0.12899  -0.11045  -0.07672
  Beta virt. eigenvalues --    0.06400   0.07094   0.08092   0.08501   0.09078
  Beta virt. eigenvalues --    0.09310   0.10067   0.10134   0.10771   0.10999
  Beta virt. eigenvalues --    0.11234   0.11584   0.11875   0.12250   0.12792

 Mulliken charges and spin densities:
               1          2
     1  C   -0.701732  -0.008887
     2  C   -0.228062   0.068234
     3  C   -0.101166  -0.048541
     4  C    0.579774   0.004282
     5  C   -0.311345  -0.008560
     6  C   -0.324761   0.102081
     7  C    0.583977   0.275017
     8  S   -0.388826   0.173541
     9  C   -0.757749  -0.046091
    10  C   -0.142843  -0.056712
    11  O   -0.256140   0.010136
    12  O    0.131454   0.002810
    13  C   -0.237312   0.045580
    14  C   -0.059772  -0.326115
    15  C   -0.059701   0.167154
    16  O   -0.397359   0.075132
    17  O   -0.209770   0.014530
    18  C    0.327676   0.028608
    19  C   -0.641369  -0.012288
    20  C   -0.690103  -0.044416
    21  H    0.262215  -0.116612
    22  H    0.061525   0.064196
    23  H    0.108714   0.007618
    24  H    0.156015   0.006045
    25  H    0.102426  -0.002733
    26  H    0.176911  -0.000627
    27  H    0.186338   0.002782
    28  H    0.158605   0.051321
    29  H    0.231891   0.002905
    30  H    0.139532   0.012588
    31  H    0.115508   0.034777
    32  H    0.097069   0.072443
    33  H   -0.187787   0.308300
    34  H    0.102635   0.062177
    35  H    0.254909  -0.000630
    36  H    0.121628   0.034360
    37  H    0.131875   0.001462
    38  H    0.114551   0.014965
    39  H    0.139367   0.001534
    40  H    0.178686   0.013842
    41  H    0.105106   0.013648
    42  H    0.127409   0.000145
 Sum of Mulliken charges =  -1.00000   1.00000

 Dipole moment (field-independent basis, Debye):
    X=              5.3492    Y=             -1.4879    Z=             -2.3804  Tot=              6.0411
 Quadrupole moment (field-independent basis, Debye-Ang):
   XX=           -170.5768   YY=           -162.3537   ZZ=           -147.9340
   XY=             -0.3529   XZ=              6.0732   YZ=              0.9474

 Summary of Natural Population Analysis:

                                       Natural Population
                Natural  -----------------------------------------------
    Atom  No    Charge         Core      Valence    Rydberg      Total
 -----------------------------------------------------------------------
      C    1   -0.28604      0.99967     2.28136    0.00501     3.28604
      C    2   -0.18465      0.99963     2.17832    0.00670     3.18465
      C    3   -0.11852      0.99952     2.10659    0.01241     3.11852
      C    4   -0.09867      0.99947     2.08265    0.01655     3.09867
      C    5   -0.11874      0.99943     2.11087    0.00843     3.11874
      C    6   -0.11330      0.99936     2.10128    0.01267     3.11330
      C    7    0.05690      0.99947     1.93077    0.01286     2.94310
      S    8    0.19690      4.99936     2.78410    0.01964     7.80310
      C    9   -0.26146      0.99953     2.25339    0.00855     3.26146
      C   10    0.42755      0.99970     1.54535    0.02740     2.57245
      O   11   -0.31944      0.99987     3.31405    0.00552     4.31944
      O   12   -0.27610      0.99986     3.26754    0.00870     4.27610
      C   13   -0.01899      0.99959     2.00714    0.01226     3.01899
      C   14   -0.29879      0.99966     2.29480    0.00433     3.29879
      C   15    0.43494      0.99964     1.54221    0.02321     2.56506
      O   16   -0.32013      0.99987     3.31328    0.00698     4.32013
      O   17   -0.35392      0.99988     3.34625    0.00779     4.35392
      C   18   -0.10997      0.99960     2.10063    0.00974     3.10997
      C   19   -0.28464      0.99966     2.28035    0.00464     3.28464
      C   20   -0.28431      0.99965     2.27983    0.00482     3.28431
      H   21    0.10837      0.00000     0.38966    0.00197     0.39163
      H   22    0.09304      0.00000     0.40586    0.00109     0.40696
      H   23    0.09284      0.00000     0.40612    0.00104     0.40716
      H   24    0.09749      0.00000     0.40148    0.00103     0.40251
      H   25    0.08958      0.00000     0.40931    0.00111     0.41042
      H   26    0.09683      0.00000     0.40193    0.00124     0.40317
      H   27    0.10598      0.00000     0.39299    0.00103     0.39402
      H   28    0.11089      0.00000     0.38820    0.00092     0.38911
      H   29    0.14034      0.00000     0.35867    0.00100     0.35966
      H   30    0.09221      0.00000     0.40644    0.00135     0.40779
      H   31    0.08738      0.00000     0.41158    0.00104     0.41262
      H   32    0.10672      0.00000     0.39196    0.00131     0.39328
      H   33    0.09582      0.00000     0.40290    0.00128     0.40418
      H   34    0.10309      0.00000     0.39549    0.00142     0.39691
      H   35    0.23040      0.00000     0.26660    0.00300     0.26960
      H   36    0.09586      0.00000     0.40244    0.00169     0.40414
      H   37    0.09341      0.00000     0.40572    0.00086     0.40659
      H   38    0.09560      0.00000     0.40356    0.00084     0.40440
      H   39    0.09775      0.00000     0.40152    0.00073     0.40225
      H   40    0.11319      0.00000     0.38609    0.00072     0.38681
      H   41    0.09212      0.00000     0.40683    0.00106     0.40788
      H   42    0.09247      0.00000     0.40664    0.00089     0.40753
 =======================================================================
   * Total *    0.00000     23.99242    55.76275    0.24483    80.00000

 Normal termination of Gaussian 16 at Sun Dec 13 18:23:31 2020.
