 Gaussian 16, Revision A.03,

 -----------------------------------------------------------
 # opt freq B3LYP/6-31G(d) empiricaldispersion=gd3bj scf=xqc
 -----------------------------------------------------------

 ------------------------------
 CID_154451700_JID_957_neutraal
 ------------------------------
 Symbolic Z-matrix:
 Charge =  0 Multiplicity = 1

 SCF Done:  E(RB3LYP) =  -454.887634934     A.U. after   15 cycles
 SCF Done:  E(RB3LYP) =  -454.894684623     A.U. after   12 cycles
 SCF Done:  E(RB3LYP) =  -454.895483875     A.U. after   11 cycles
 SCF Done:  E(RB3LYP) =  -454.895697184     A.U. after   11 cycles
 SCF Done:  E(RB3LYP) =  -454.895787579     A.U. after   11 cycles
 SCF Done:  E(RB3LYP) =  -454.895830143     A.U. after   10 cycles
 SCF Done:  E(RB3LYP) =  -454.895844152     A.U. after    9 cycles
 SCF Done:  E(RB3LYP) =  -454.895844902     A.U. after    8 cycles
 SCF Done:  E(RB3LYP) =  -454.895845116     A.U. after    7 cycles
 Optimization completed.
    -- Stationary point found.

 1\1\GINC-NODE100\FOpt\RB3LYP\6-31G(d)\C6H12N4\VSC10255\08-Dec-2020\0\\
 # opt freq B3LYP/6-31G(d) empiricaldispersion=gd3bj scf=xqc\\CID_15445
 1700_JID_957_neutraal\\0,1\C,1.0293470811,-0.047315703,0.0760726277\C,
 0.632914612,-0.1474974433,-1.3661542784\C,0.2854144352,-1.2730494823,-
 1.9985333767\C,-0.1000153145,-1.297116447,-3.4607772323\N,-0.143610143
 4,0.0447554475,-4.0696065363\C,0.1719059294,1.0725059283,-3.3809677227
 \N,0.6794978325,1.0677709486,-2.0804097777\N,-0.0002710327,2.365578438
 1,-3.8922830863\C,0.901054285,-2.1374328002,-4.2685682999\N,-1.4120763

 Normal termination of Gaussian 16 at Tue Dec  8 13:46:31 2020.

 --------------------------------------------------------------------
 #N Geom=AllCheck Guess=TCheck SCRF=Check GenChk RB3LYP/6-31G(d) Freq
 --------------------------------------------------------------------

 Structure from the checkpoint file:  "JID_957.chk"
 ------------------------------
 CID_154451700_JID_957_neutraal
 ------------------------------
 Charge =  0 Multiplicity = 1

 SCF Done:  E(RB3LYP) =  -454.895845116     A.U. after    1 cycles

  Exact polarizability: 111.855  -5.064  92.483  -1.706   0.504  60.716
 Approx polarizability: 171.308 -16.108 126.375  -5.932   1.587  87.066

                      1                      2                      3
                      A                      A                      A
 Frequencies --     61.6707               137.0708               166.7354
 Red. masses --      3.5482                 2.5928                 3.4450
 Frc consts  --      0.0080                 0.0287                 0.0564
 IR Inten    --      1.7044                 0.3823                 2.8198

                      4                      5                      6
                      A                      A                      A
 Frequencies --    185.6918               243.6457               279.4231
 Red. masses --      1.1148                 1.0577                 2.5735
 Frc consts  --      0.0226                 0.0370                 0.1184
 IR Inten    --      0.0932                 2.8851                 2.9772

                      7                      8                      9
                      A                      A                      A
 Frequencies --    303.2326               325.4134               353.2779
 Red. masses --      1.3259                 1.9959                 2.5187
 Frc consts  --      0.0718                 0.1245                 0.1852
 IR Inten    --     31.1613                10.1786                 8.4087

                     10                     11                     12
                      A                      A                      A
 Frequencies --    368.7589               392.5309               474.7706
 Red. masses --      1.2089                 2.7687                 1.9539
 Frc consts  --      0.0969                 0.2513                 0.2595
 IR Inten    --     36.8337                18.8377                82.2872

                     13                     14                     15
                      A                      A                      A
 Frequencies --    492.9019               511.0095               532.8554
 Red. masses --      4.1387                 3.8125                 2.5902
 Frc consts  --      0.5924                 0.5866                 0.4333
 IR Inten    --      2.3934                16.8198                34.8105

                     16                     17                     18
                      A                      A                      A
 Frequencies --    571.4138               586.3067               619.8287
 Red. masses --      2.2966                 2.8898                 3.9734
 Frc consts  --      0.4418                 0.5853                 0.8994
 IR Inten    --     46.9254                29.5419                19.7649

                     19                     20                     21
                      A                      A                      A
 Frequencies --    682.5250               812.9275               825.1609
 Red. masses --      3.4452                 1.5294                 1.4356
 Frc consts  --      0.9456                 0.5955                 0.5759
 IR Inten    --     80.0940               241.3751                42.1312

                     22                     23                     24
                      A                      A                      A
 Frequencies --    870.8250               908.9309               920.4692
 Red. masses --      4.3918                 1.8960                 2.4103
 Frc consts  --      1.9623                 0.9229                 1.2032
 IR Inten    --     10.5879               146.9825                 6.1292

                     25                     26                     27
                      A                      A                      A
 Frequencies --    975.8618               998.8842              1023.6229
 Red. masses --      2.2108                 1.7040                 2.8292
 Frc consts  --      1.2404                 1.0017                 1.7466
 IR Inten    --     23.5641                10.6628                 3.9802

                     28                     29                     30
                      A                      A                      A
 Frequencies --   1042.1552              1082.1941              1083.0680
 Red. masses --      1.5787                 1.5381                 1.5877
 Frc consts  --      1.0102                 1.0613                 1.0973
 IR Inten    --     30.9089                 4.9306                 5.4378

                     31                     32                     33
                      A                      A                      A
 Frequencies --   1153.0610              1185.8475              1231.4211
 Red. masses --      2.1462                 1.6797                 2.8369
 Frc consts  --      1.6812                 1.3916                 2.5346
 IR Inten    --     16.3367                25.9158                25.5377

                     34                     35                     36
                      A                      A                      A
 Frequencies --   1269.5303              1311.8496              1378.2167
 Red. masses --      2.3312                 1.5894                 2.4581
 Frc consts  --      2.2137                 1.6116                 2.7510
 IR Inten    --     46.1218                45.9371                18.6975

                     37                     38                     39
                      A                      A                      A
 Frequencies --   1393.7851              1424.3924              1445.1344
 Red. masses --      2.1968                 1.2865                 1.3500
 Frc consts  --      2.5144                 1.5379                 1.6612
 IR Inten    --      8.2124                 7.0192                 5.8180

                     40                     41                     42
                      A                      A                      A
 Frequencies --   1503.5532              1510.5822              1513.3283
 Red. masses --      1.3106                 1.2527                 1.0565
 Frc consts  --      1.7457                 1.6841                 1.4256
 IR Inten    --    120.0497               107.6148                 2.5523

                     43                     44                     45
                      A                      A                      A
 Frequencies --   1519.3858              1529.3596              1661.0106
 Red. masses --      1.0497                 1.3133                 1.1939
 Frc consts  --      1.4278                 1.8098                 1.9407
 IR Inten    --      0.1659                61.9694                52.6239

                     46                     47                     48
                      A                      A                      A
 Frequencies --   1696.6018              1745.8531              1784.7295
 Red. masses --      1.0913                 5.1763                 7.7193
 Frc consts  --      1.8508                 9.2958                14.4869
 IR Inten    --     27.2037               106.3331               221.3531

                     49                     50                     51
                      A                      A                      A
 Frequencies --   3031.0627              3052.1073              3080.7189
 Red. masses --      1.0426                 1.0352                 1.0977
 Frc consts  --      5.6436                 5.6815                 6.1384
 IR Inten    --     39.9294                23.6926                22.5594

                     52                     53                     54
                      A                      A                      A
 Frequencies --   3123.7142              3140.7224              3149.4333
 Red. masses --      1.1011                 1.1038                 1.0978
 Frc consts  --      6.3300                 6.4153                 6.4155
 IR Inten    --     26.7415                25.4846                11.9169

                     55                     56                     57
                      A                      A                      A
 Frequencies --   3213.0295              3442.4489              3517.1089
 Red. masses --      1.0913                 1.0498                 1.0496
 Frc consts  --      6.6380                 7.3300                 7.6496
 IR Inten    --      8.9318                 2.4276                 8.8883

                     58                     59                     60
                      A                      A                      A
 Frequencies --   3528.1150              3574.6008              3624.0232
 Red. masses --      1.0909                 1.0760                 1.0947
 Frc consts  --      8.0007                 8.1007                 8.4705
 IR Inten    --      1.6469                12.8553                13.1880

 - Thermochemistry -
 -------------------
 Temperature   298.150 Kelvin.  Pressure   1.00000 Atm.
 Atom     1 has atomic number  6 and mass  12.00000

 Molecular mass:   140.10620 amu.
 Principal axes and moments of inertia in atomic units:
                           1         2         3
     Eigenvalues --  1139.722441371.756822126.65262
           X            0.99769   0.06703   0.01146
           Y           -0.06703   0.99775  -0.00019
           Z           -0.01145  -0.00058   0.99993
 This molecule is an asymmetric top.
 Rotational symmetry number  1.
 Warning -- assumption of classical behavior for rotation
           may cause significant error
 Rotational temperatures (Kelvin)      0.07600     0.06314     0.04073
 Rotational constants (GHZ):           1.58349     1.31564     0.84863
 Zero-point vibrational energy     499847.0 (Joules/Mol)
                                  119.46630 (Kcal/Mol)
 Warning -- explicit consideration of  18 degrees of freedom as
           vibrations may cause significant error
 Vibrational temperatures:     88.73   197.21   239.90   267.17   350.55
          (Kelvin)            402.03   436.28   468.20   508.29   530.56
                              564.76   683.09   709.18   735.23   766.66
                              822.14   843.56   891.80   982.00  1169.62
                             1187.22  1252.92  1307.75  1324.35  1404.05
                             1437.17  1472.77  1499.43  1557.04  1558.29
                             1659.00  1706.17  1771.74  1826.57  1887.46
                             1982.95  2005.35  2049.38  2079.23  2163.28
                             2173.39  2177.34  2186.06  2200.41  2389.82
                             2441.03  2511.89  2567.83  4361.02  4391.30
                             4432.47  4494.33  4518.80  4531.33  4622.83
                             4952.92  5060.34  5076.17  5143.05  5214.16

 Zero-point correction=                           0.190382 (Hartree/Particle)
 Thermal correction to Energy=                    0.200795
 Thermal correction to Enthalpy=                  0.201739
 Thermal correction to Gibbs Free Energy=         0.155421
 Sum of electronic and zero-point Energies=           -454.705463
 Sum of electronic and thermal Energies=              -454.695050
 Sum of electronic and thermal Enthalpies=            -454.694106
 Sum of electronic and thermal Free Energies=         -454.740424

                     E (Thermal)             CV                S
                      KCal/Mol        Cal/Mol-Kelvin    Cal/Mol-Kelvin
 Total                  126.001             40.590             97.485
 Electronic               0.000              0.000              0.000
 Translational            0.889              2.981             40.723
 Rotational               0.889              2.981             29.587
 Vibrational            124.223             34.628             27.174
 Vibration     1          0.597              1.973              4.403
 Vibration     2          0.614              1.916              2.844
 Vibration     3          0.624              1.883              2.472
 Vibration     4          0.632              1.859              2.270
 Vibration     5          0.659              1.773              1.776
 Vibration     6          0.680              1.712              1.537
 Vibration     7          0.695              1.668              1.399
 Vibration     8          0.710              1.625              1.283
 Vibration     9          0.729              1.569              1.152
 Vibration    10          0.741              1.536              1.085
 Vibration    11          0.760              1.486              0.991
 Vibration    12          0.831              1.306              0.724
 Vibration    13          0.849              1.266              0.676
 Vibration    14          0.866              1.226              0.631
 Vibration    15          0.888              1.177              0.581
 Vibration    16          0.928              1.093              0.502
 Vibration    17          0.943              1.061              0.474
 Vibration    18          0.980              0.990              0.417

                           ! Non-Optimized Parameters !

 1\1\GINC-NODE100\Freq\RB3LYP\6-31G(d)\C6H12N4\VSC10255\08-Dec-2020\0\\
 #N Geom=AllCheck Guess=TCheck SCRF=Check GenChk RB3LYP/6-31G(d) Freq\\
 CID_154451700_JID_957_neutraal\\0,1\C,1.0293470811,-0.047315703,0.0760
 726277\C,0.632914612,-0.1474974433,-1.3661542784\C,0.2854144352,-1.273
 0494823,-1.9985333767\C,-0.1000153145,-1.297116447,-3.4607772323\N,-0.
 1436101434,0.0447554475,-4.0696065363\C,0.1719059294,1.0725059283,-3.3
 809677227\N,0.6794978325,1.0677709486,-2.0804097777\N,-0.0002710327,2.
 3655784381,-3.8922830863\C,0.901054285,-2.1374328002,-4.2685682999\N,-

 Normal termination of Gaussian 16 at Tue Dec  8 13:52:06 2020.

 ----------------------------------------------------------------------
 # B3LYP/6-311++G(d,p) empiricaldispersion=gd3bj scf=xqc pop=npa geom=c
 heck
 ----------------------------------------------------------------------

 --------------------------------------
 CID_154451700_JID_957_Energie_neutraal
 --------------------------------------
 Structure from the checkpoint file:  "JID_957.chk"
 Charge =  0 Multiplicity = 1

 SCF Done:  E(RB3LYP) =  -455.042125812     A.U. after   14 cycles
 Normal termination of Gaussian 16 at Tue Dec  8 13:58:26 2020.

 ----------------------------------------------------------------------
 # B3LYP/6-311++G(d,p) empiricaldispersion=gd3bj scf=xqc pop=npa geom=c
 heck
 ----------------------------------------------------------------------

 ------------------------------------
 CID_154451700_JID_957_Energie_kation
 ------------------------------------
 Structure from the checkpoint file:  "JID_957.chk"
 Charge =  1 Multiplicity = 2

 SCF Done:  E(UB3LYP) =  -454.755829045     A.U. after   23 cycles
 Normal termination of Gaussian 16 at Tue Dec  8 14:03:31 2020.
 Gaussian 16:  ES64L-G16RevA.03 25-Dec-2016

 -----------------------------------
 CID_154451700_JID_957_Energie_anion
 -----------------------------------
 Structure from the checkpoint file:  "JID_957.chk"
 Charge = -1 Multiplicity = 2

                         Standard orientation:
 ---------------------------------------------------------------------
 Center     Atomic      Atomic             Coordinates (Angstroms)
 Number     Number       Type             X           Y           Z
 ---------------------------------------------------------------------
      1          6           0       -2.317093   -1.903456   -0.018084
      2          6           0       -1.155063   -0.956720    0.006227
      3          6           0        0.133092   -1.308084   -0.062537
      4          6           0        1.254423   -0.293817   -0.028307
      5          7           0        0.773600    1.099630   -0.010782
      6          6           0       -0.478751    1.346067    0.019750
      7          7           0       -1.500259    0.403272    0.149296
      8          7           0       -0.960880    2.655324   -0.108786
      9          6           0        2.126639   -0.496144    1.220332
     10          7           0        2.104875   -0.533474   -1.204653
     11          1           0       -1.970823   -2.934466   -0.119793
     12          1           0       -2.990650   -1.687338   -0.859496
     13          1           0       -2.909964   -1.823635    0.902131
     14          1           0        0.410307   -2.353898   -0.138924
     15          1           0       -2.392435    0.680638   -0.242352
     16          1           0       -0.188447    3.311308   -0.059982
     17          1           0       -1.676996    2.888237    0.573397
     18          1           0        2.560010   -1.501327    1.221856
     19          1           0        2.937254    0.241901    1.231351
     20          1           0        1.526968   -0.359554    2.124802
     21          1           0        1.547231   -0.330868   -2.034654
     22          1           0        2.846707    0.168649   -1.198153
 ---------------------------------------------------------------------

 SCF Done:  E(UB3LYP) =  -455.031263946     A.U. after   31 cycles

 The electronic state is 2-A.
 Alpha  occ. eigenvalues --  -14.22970 -14.20678 -14.18609 -14.16776 -10.15922
 Alpha  occ. eigenvalues --  -10.12708 -10.10673 -10.06397 -10.05225 -10.04680
 Alpha  occ. eigenvalues --   -0.88570  -0.80450  -0.79074  -0.73352  -0.67132
 Alpha  occ. eigenvalues --   -0.62621  -0.58927  -0.51290  -0.50167  -0.44068
 Alpha  occ. eigenvalues --   -0.41712  -0.39931  -0.37213  -0.36794  -0.34709
 Alpha  occ. eigenvalues --   -0.32946  -0.30950  -0.30260  -0.29378  -0.28353
 Alpha  occ. eigenvalues --   -0.27353  -0.26352  -0.24694  -0.20298  -0.16844
 Alpha  occ. eigenvalues --   -0.15110  -0.12918  -0.10643   0.04570
 Alpha virt. eigenvalues --    0.07381   0.08038   0.08955   0.09634   0.10329
 Alpha virt. eigenvalues --    0.10824   0.11511   0.11724   0.12450   0.12927
 Alpha virt. eigenvalues --    0.13968   0.14238   0.15436   0.16401   0.16987

  Beta  occ. eigenvalues --  -14.22916 -14.20611 -14.18603 -14.16766 -10.15919
  Beta  occ. eigenvalues --  -10.12707 -10.10672 -10.06342 -10.05218 -10.04670
  Beta  occ. eigenvalues --   -0.88525  -0.80427  -0.78998  -0.73309  -0.67080
  Beta  occ. eigenvalues --   -0.62590  -0.58873  -0.51221  -0.50123  -0.43988
  Beta  occ. eigenvalues --   -0.41662  -0.39867  -0.37178  -0.36726  -0.34684
  Beta  occ. eigenvalues --   -0.32895  -0.30904  -0.30226  -0.29341  -0.28303
  Beta  occ. eigenvalues --   -0.27332  -0.26333  -0.24669  -0.20248  -0.16828
  Beta  occ. eigenvalues --   -0.15089  -0.12884  -0.10617
  Beta virt. eigenvalues --    0.07199   0.08389   0.08740   0.09180   0.10313
  Beta virt. eigenvalues --    0.10904   0.11205   0.11827   0.12117   0.12804
  Beta virt. eigenvalues --    0.13427   0.13980   0.14794   0.15600   0.16602

 Mulliken charges and spin densities:
               1          2
     1  C    3.381205  -4.118308
     2  C   -0.712045   0.738425
     3  C   -1.421686   1.365815
     4  C    1.898984  -2.257839
     5  N   -0.011993  -0.084925
     6  C   -0.586809   0.572494
     7  N   -0.318821   0.220782
     8  N   -0.569964   0.290381
     9  C   -0.233682  -0.295209
    10  N   -0.315821   0.093172
    11  H   -0.357737   0.512037
    12  H   -0.473902   0.629935
    13  H   -0.513401   0.684539
    14  H   -0.091664   0.263094
    15  H   -0.503511   0.794949
    16  H   -0.170223   0.432744
    17  H   -0.600948   0.863709
    18  H    0.105215   0.029354
    19  H    0.091400   0.043504
    20  H    0.037415   0.118922
    21  H    0.163778   0.082861
    22  H    0.204210   0.019564
 Sum of Mulliken charges =  -1.00000   1.00000

 Dipole moment (field-independent basis, Debye):
    X=              7.1458    Y=             -1.9003    Z=             -0.3261  Tot=              7.4014
 Quadrupole moment (field-independent basis, Debye-Ang):
   XX=           -116.7018   YY=           -109.5624   ZZ=            -86.4209
   XY=              4.7696   XZ=              1.4031   YZ=             -3.7141

 Summary of Natural Population Analysis:

                                       Natural Population
                Natural  -----------------------------------------------
    Atom  No    Charge         Core      Valence    Rydberg      Total
 -----------------------------------------------------------------------
      C    1   -0.29843      0.99963     2.29240    0.00640     3.29843
      C    2    0.09767      0.99946     1.89173    0.01115     2.90233
      C    3   -0.14522      0.99943     2.13370    0.01210     3.14522
      C    4    0.12566      0.99958     1.85805    0.01671     2.87434
      N    5   -0.31049      0.99963     2.79868    0.01218     3.81049
      C    6    0.31147      0.99959     1.67217    0.01677     2.68853
      N    7   -0.32466      0.99964     2.81200    0.01302     3.82466
      N    8   -0.40644      0.99972     2.89601    0.01070     3.90644
      C    9   -0.28334      0.99961     2.27762    0.00610     3.28334
      N   10   -0.42128      0.99975     2.91257    0.00896     3.92128
      H   11    0.10596      0.00000     0.39288    0.00115     0.39404
      H   12    0.10712      0.00000     0.39041    0.00247     0.39288
      H   13    0.10830      0.00000     0.38983    0.00187     0.39170
      H   14    0.10493      0.00000     0.39407    0.00100     0.39507
      H   15    0.20339      0.00000     0.28629    0.01033     0.29661
      H   16    0.18996      0.00000     0.30708    0.00296     0.31004
      H   17    0.19168      0.00000     0.29673    0.01159     0.30832
      H   18    0.09829      0.00000     0.40074    0.00097     0.40171
      H   19    0.09708      0.00000     0.40185    0.00108     0.40292
      H   20    0.10233      0.00000     0.39664    0.00103     0.39767
      H   21    0.17471      0.00000     0.32331    0.00198     0.32529
      H   22    0.17131      0.00000     0.32687    0.00182     0.32869
 =======================================================================
   * Total *    0.00000      9.99604    27.85163    0.15234    38.00000

 Normal termination of Gaussian 16 at Tue Dec  8 14:11:26 2020.
