 Gaussian 16, Revision A.03,

 -----------------------------------------------------------
 # opt freq B3LYP/6-31G(d) empiricaldispersion=gd3bj scf=xqc
 -----------------------------------------------------------

 ------------------------------
 CID_80016698_JID_7905_neutraal
 ------------------------------
 Symbolic Z-matrix:
 Charge =  0 Multiplicity = 1

 SCF Done:  E(RB3LYP) =  -1399.72604809     A.U. after   14 cycles
 SCF Done:  E(RB3LYP) =  -1399.71748151     A.U. after   13 cycles
 SCF Done:  E(RB3LYP) =  -1399.73126584     A.U. after   12 cycles
 SCF Done:  E(RB3LYP) =  -1399.73228460     A.U. after   11 cycles
 SCF Done:  E(RB3LYP) =  -1399.73264783     A.U. after   14 cycles
 SCF Done:  E(RB3LYP) =  -1399.73366365     A.U. after   12 cycles
 SCF Done:  E(RB3LYP) =  -1399.73443876     A.U. after   12 cycles
 SCF Done:  E(RB3LYP) =  -1399.73430641     A.U. after   12 cycles
 SCF Done:  E(RB3LYP) =  -1399.73510956     A.U. after   12 cycles
 SCF Done:  E(RB3LYP) =  -1399.73533139     A.U. after   12 cycles
 SCF Done:  E(RB3LYP) =  -1399.73566810     A.U. after   10 cycles
 SCF Done:  E(RB3LYP) =  -1399.73567052     A.U. after    9 cycles
 SCF Done:  E(RB3LYP) =  -1399.73567073     A.U. after    8 cycles
 SCF Done:  E(RB3LYP) =  -1399.73567090     A.U. after    8 cycles
 SCF Done:  E(RB3LYP) =  -1399.73567095     A.U. after    7 cycles
 Optimization completed.
    -- Stationary point found.
 Normal termination of Gaussian 16 at Fri Dec 11 13:20:27 2020.

 --------------------------------------------------------------------
 #N Geom=AllCheck Guess=TCheck SCRF=Check GenChk RB3LYP/6-31G(d) Freq
 --------------------------------------------------------------------

 Structure from the checkpoint file:  "JID_7905.chk"
 ------------------------------
 CID_80016698_JID_7905_neutraal
 ------------------------------
 Charge =  0 Multiplicity = 1

 SCF Done:  E(RB3LYP) =  -1399.73567095     A.U. after    1 cycles

  Exact polarizability: 179.011   8.942 188.671   6.246  -3.832 170.844
 Approx polarizability: 240.726  23.071 278.351  12.158  -3.832 283.012

                      1                      2                      3
                      A                      A                      A
 Frequencies --     13.2565                30.5825                42.5027
 Red. masses --      6.1851                 6.7013                 3.5675
 Frc consts  --      0.0006                 0.0037                 0.0038
 IR Inten    --      0.1712                 0.3144                 0.0369

                      4                      5                      6
                      A                      A                      A
 Frequencies --     53.0929                79.4608                83.1196
 Red. masses --      2.6991                 3.4352                 2.8395
 Frc consts  --      0.0045                 0.0128                 0.0116
 IR Inten    --      0.0998                 0.2759                 0.0388

                      7                      8                      9
                      A                      A                      A
 Frequencies --    101.7928               119.6308               136.3484
 Red. masses --      3.5068                 2.4380                 2.7577
 Frc consts  --      0.0214                 0.0206                 0.0302
 IR Inten    --      1.9973                 2.4979                 0.0921

                     10                     11                     12
                      A                      A                      A
 Frequencies --    165.5121               181.4625               200.4660
 Red. masses --      1.7147                 2.8369                 1.8499
 Frc consts  --      0.0277                 0.0550                 0.0438
 IR Inten    --      3.4257                 3.7681                 0.4656

                     13                     14                     15
                      A                      A                      A
 Frequencies --    210.3805               218.6980               221.2647
 Red. masses --      1.4821                 2.1922                 1.1277
 Frc consts  --      0.0386                 0.0618                 0.0325
 IR Inten    --      0.5505                 2.5195                 2.8091

                     16                     17                     18
                      A                      A                      A
 Frequencies --    231.0252               247.9403               254.5508
 Red. masses --      1.8421                 1.8326                 3.3845
 Frc consts  --      0.0579                 0.0664                 0.1292
 IR Inten    --      9.5941                 3.3152                 2.8030

                     19                     20                     21
                      A                      A                      A
 Frequencies --    284.0707               311.4562               332.0020
 Red. masses --      2.5427                 2.6777                 2.8040
 Frc consts  --      0.1209                 0.1530                 0.1821
 IR Inten    --      1.7296                 0.0094                 0.6917

                     22                     23                     24
                      A                      A                      A
 Frequencies --    355.1594               372.6945               445.8549
 Red. masses --      2.2872                 2.0549                 1.9460
 Frc consts  --      0.1700                 0.1682                 0.2279
 IR Inten    --      1.0193                 0.1669                 3.2735

                     25                     26                     27
                      A                      A                      A
 Frequencies --    470.1423               480.4776               497.2852
 Red. masses --      4.0667                 2.5016                 3.0595
 Frc consts  --      0.5296                 0.3403                 0.4458
 IR Inten    --      3.7265                 2.9554                 6.0510

                     28                     29                     30
                      A                      A                      A
 Frequencies --    536.6112               570.7777               592.8493
 Red. masses --      2.8505                 3.0624                 4.8393
 Frc consts  --      0.4836                 0.5878                 1.0021
 IR Inten    --      1.0067                 0.1107                 1.9187

                     31                     32                     33
                      A                      A                      A
 Frequencies --    598.4689               697.6660               709.4566
 Red. masses --      3.6145                 1.1833                 2.3042
 Frc consts  --      0.7627                 0.3394                 0.6833
 IR Inten    --      2.4584                53.3808                19.3143

                     34                     35                     36
                      A                      A                      A
 Frequencies --    747.3131               756.2392               760.7823
 Red. masses --      6.5795                 1.9775                 3.5825
 Frc consts  --      2.1649                 0.6663                 1.2217
 IR Inten    --      0.2614                 3.9312                 1.9389

                     37                     38                     39
                      A                      A                      A
 Frequencies --    769.9446               793.0572               818.3511
 Red. masses --      2.3862                 1.4321                 1.3002
 Frc consts  --      0.8334                 0.5307                 0.5130
 IR Inten    --      3.7038                 1.0652                15.0469

                     40                     41                     42
                      A                      A                      A
 Frequencies --    851.1761               860.0993               882.0342
 Red. masses --      1.8042                 3.9819                 2.1867
 Frc consts  --      0.7702                 1.7356                 1.0023
 IR Inten    --      3.9005                12.3769                 3.5199

                     43                     44                     45
                      A                      A                      A
 Frequencies --    897.8842               901.7450               916.9125
 Red. masses --      1.4024                 1.6910                 1.7128
 Frc consts  --      0.6661                 0.8101                 0.8484
 IR Inten    --      1.5767                12.9657                 4.7691

                     46                     47                     48
                      A                      A                      A
 Frequencies --    933.8315               953.6212               964.2174
 Red. masses --      1.8305                 1.6816                 1.6503
 Frc consts  --      0.9405                 0.9010                 0.9040
 IR Inten    --      6.7801                10.1131                 3.6829

                     49                     50                     51
                      A                      A                      A
 Frequencies --   1008.1501              1055.1328              1063.2975
 Red. masses --      2.1779                 1.5402                 1.9345
 Frc consts  --      1.3042                 1.0103                 1.2886
 IR Inten    --      5.1964                 9.7293                 9.6582

                     52                     53                     54
                      A                      A                      A
 Frequencies --   1068.9002              1075.8258              1084.2654
 Red. masses --      2.3221                 1.9017                 2.4061
 Frc consts  --      1.5632                 1.2968                 1.6666
 IR Inten    --      8.1426                25.0753                 5.3222

                     55                     56                     57
                      A                      A                      A
 Frequencies --   1098.4541              1110.7591              1133.6005
 Red. masses --      1.7204                 1.6143                 1.6762
 Frc consts  --      1.2230                 1.1735                 1.2691
 IR Inten    --      5.3425                 5.1185                 1.4516

                     58                     59                     60
                      A                      A                      A
 Frequencies --   1141.3662              1159.2070              1164.8700
 Red. masses --      1.8186                 1.5682                 1.6214
 Frc consts  --      1.3958                 1.2416                 1.2963
 IR Inten    --      1.0701                 4.6312                14.6507

                     61                     62                     63
                      A                      A                      A
 Frequencies --   1172.8431              1196.6240              1222.4951
 Red. masses --      2.2264                 1.8097                 1.3165
 Frc consts  --      1.8044                 1.5267                 1.1592
 IR Inten    --     34.4261                11.4659                17.0436

                     64                     65                     66
                      A                      A                      A
 Frequencies --   1244.7058              1264.4929              1271.8307
 Red. masses --      1.5816                 1.3024                 1.4260
 Frc consts  --      1.4437                 1.2269                 1.3591
 IR Inten    --      3.9465                 2.3101                17.7520

                     67                     68                     69
                      A                      A                      A
 Frequencies --   1299.2731              1303.5884              1321.3638
 Red. masses --      1.2447                 1.5473                 1.2642
 Frc consts  --      1.2380                 1.5492                 1.3005
 IR Inten    --     12.0239                13.3500                 4.5908

                     70                     71                     72
                      A                      A                      A
 Frequencies --   1339.1225              1355.1821              1369.9807
 Red. masses --      1.3099                 1.2631                 1.3539
 Frc consts  --      1.3839                 1.3667                 1.4972
 IR Inten    --      6.5437                 5.6350                 2.4103

                     73                     74                     75
                      A                      A                      A
 Frequencies --   1372.5801              1390.1338              1397.2637
 Red. masses --      1.3268                 2.0431                 1.3585
 Frc consts  --      1.4727                 2.3263                 1.5627
 IR Inten    --      8.9036                 0.9771                 4.7046

                     76                     77                     78
                      A                      A                      A
 Frequencies --   1417.2481              1423.5672              1426.9009
 Red. masses --      1.5921                 1.2976                 1.3546
 Frc consts  --      1.8841                 1.5494                 1.6250
 IR Inten    --      3.3850                 6.2680                 4.2181

                     79                     80                     81
                      A                      A                      A
 Frequencies --   1432.1748              1441.5117              1444.3442
 Red. masses --      1.3728                 1.2854                 1.2529
 Frc consts  --      1.6590                 1.5737                 1.5400
 IR Inten    --      5.6088                22.3257                 2.7358

                     82                     83                     84
                      A                      A                      A
 Frequencies --   1488.2550              1501.4401              1507.9644
 Red. masses --      1.1377                 1.2409                 1.1923
 Frc consts  --      1.4847                 1.6481                 1.5974
 IR Inten    --      2.7536                 7.2259                 0.7733

                     85                     86                     87
                      A                      A                      A
 Frequencies --   1511.6462              1518.4424              1520.8300
 Red. masses --      2.8298                 1.0852                 1.0548
 Frc consts  --      3.8099                 1.4741                 1.4374
 IR Inten    --      8.9275                 0.2335                 7.1342

                     88                     89                     90
                      A                      A                      A
 Frequencies --   1522.7661              1527.1475              1528.5024
 Red. masses --      1.0690                 1.0638                 1.0663
 Frc consts  --      1.4605                 1.4617                 1.4678
 IR Inten    --      0.7396                 2.2020                 3.7344

                     91                     92                     93
                      A                      A                      A
 Frequencies --   1530.0138              1533.5627              1537.8454
 Red. masses --      1.0709                 1.0531                 1.0771
 Frc consts  --      1.4771                 1.4592                 1.5008
 IR Inten    --      7.9572                 8.1696                 6.7870

                     94                     95                     96
                      A                      A                      A
 Frequencies --   1545.7361              1608.8107              2687.2030
 Red. masses --      1.0515                 5.1531                 1.0383
 Frc consts  --      1.4802                 7.8583                 4.4177
 IR Inten    --      1.3603                 2.8652                17.2353

                     97                     98                     99
                      A                      A                      A
 Frequencies --   2951.2195              2968.1430              3033.0836
 Red. masses --      1.0624                 1.0735                 1.0669
 Frc consts  --      5.4519                 5.5722                 5.7827
 IR Inten    --     75.9102                77.7677                19.3719

                    100                    101                    102
                      A                      A                      A
 Frequencies --   3037.9333              3039.4492              3046.2787
 Red. masses --      1.0645                 1.0746                 1.0625
 Frc consts  --      5.7882                 5.8489                 5.8095
 IR Inten    --     17.5909                 8.6665                26.4883

                    103                    104                    105
                      A                      A                      A
 Frequencies --   3046.5702              3049.1342              3054.4303
 Red. masses --      1.0721                 1.0593                 1.0370
 Frc consts  --      5.8626                 5.8023                 5.7000
 IR Inten    --      3.3279                68.6293                26.8008

                    106                    107                    108
                      A                      A                      A
 Frequencies --   3071.7131              3072.0826              3074.6800
 Red. masses --      1.0943                 1.0603                 1.0965
 Frc consts  --      6.0837                 5.8957                 6.1072
 IR Inten    --     21.3240                17.4133                15.8956

                    109                    110                    111
                      A                      A                      A
 Frequencies --   3086.7527              3102.3896              3111.2428
 Red. masses --      1.0762                 1.0879                 1.1017
 Frc consts  --      6.0418                 6.1694                 6.2830
 IR Inten    --     41.5042                18.0242                48.6777

                    112                    113                    114
                      A                      A                      A
 Frequencies --   3115.6248              3118.0031              3119.9626
 Red. masses --      1.1014                 1.0930                 1.1010
 Frc consts  --      6.2992                 6.2605                 6.3142
 IR Inten    --     43.9684                10.7474                36.5353

                    115                    116                    117
                      A                      A                      A
 Frequencies --   3127.6228              3128.7001              3152.1118
 Red. masses --      1.1017                 1.1056                 1.0957
 Frc consts  --      6.3496                 6.3766                 6.4141
 IR Inten    --     31.3969                14.6633                27.8735

                    118                    119                    120
                      A                      A                      A
 Frequencies --   3219.2744              3248.3125              3272.0975
 Red. masses --      1.0895                 1.0936                 1.0972
 Frc consts  --      6.6526                 6.7988                 6.9210
 IR Inten    --      9.7825                 4.9235                 1.4296

 - Thermochemistry -
 -------------------
 Temperature   298.150 Kelvin.  Pressure   1.00000 Atm.
 Atom     1 has atomic number  6 and mass  12.00000

 Molecular mass:   271.14284 amu.
 Principal axes and moments of inertia in atomic units:
                           1         2         3
     Eigenvalues --  4256.001157056.235068407.01908
           X            0.99976  -0.01855  -0.01195
           Y            0.01874   0.99970   0.01579
           Z            0.01166  -0.01601   0.99980
 This molecule is an asymmetric top.
 Rotational symmetry number  1.
 Warning -- assumption of classical behavior for rotation
           may cause significant error
 Rotational temperatures (Kelvin)      0.02035     0.01227     0.01030
 Rotational constants (GHZ):           0.42405     0.25577     0.21467
 Zero-point vibrational energy     970418.5 (Joules/Mol)
                                  231.93559 (Kcal/Mol)
 Warning -- explicit consideration of  31 degrees of freedom as
           vibrations may cause significant error
 Vibrational temperatures:     19.07    44.00    61.15    76.39   114.33
          (Kelvin)            119.59   146.46   172.12   196.17   238.13
                              261.08   288.43   302.69   314.66   318.35
                              332.39   356.73   366.24   408.71   448.12
                              477.68   511.00   536.22   641.49   676.43
                              691.30   715.48   772.06   821.22   852.98
                              861.06  1003.79  1020.75  1075.22  1088.06
                             1094.60  1107.78  1141.03  1177.42  1224.65
                             1237.49  1269.05  1291.86  1297.41  1319.23
                             1343.58  1372.05  1387.29  1450.50  1518.10
                             1529.85  1537.91  1547.87  1560.02  1580.43
                             1598.13  1631.00  1642.17  1667.84  1675.99
                             1687.46  1721.68  1758.90  1790.85  1819.32
                             1829.88  1869.36  1875.57  1901.15  1926.70
                             1949.80  1971.10  1974.84  2000.09  2010.35
                             2039.10  2048.20  2052.99  2060.58  2074.01
                             2078.09  2141.27  2160.24  2169.62  2174.92
                             2184.70  2188.14  2190.92  2197.22  2199.17
                             2201.35  2206.45  2212.62  2223.97  2314.72
                             3866.29  4246.15  4270.50  4363.93  4370.91
                             4373.09  4382.92  4383.33  4387.02  4394.64
                             4419.51  4420.04  4423.78  4441.15  4463.65
                             4476.38  4482.69  4486.11  4488.93  4499.95
                             4501.50  4535.19  4631.82  4673.60  4707.82

 Zero-point correction=                           0.369613 (Hartree/Particle)
 Thermal correction to Energy=                    0.389810
 Thermal correction to Enthalpy=                  0.390754
 Thermal correction to Gibbs Free Energy=         0.319078
 Sum of electronic and zero-point Energies=          -1399.366058
 Sum of electronic and thermal Energies=             -1399.345861
 Sum of electronic and thermal Enthalpies=           -1399.344917
 Sum of electronic and thermal Free Energies=        -1399.416593

                     E (Thermal)             CV                S
                      KCal/Mol        Cal/Mol-Kelvin    Cal/Mol-Kelvin
 Total                  244.609             75.062            150.856
 Electronic               0.000              0.000              0.000
 Translational            0.889              2.981             42.691
 Rotational               0.889              2.981             33.889
 Vibrational            242.832             69.100             74.275
 Vibration     1          0.593              1.987              7.451
 Vibration     2          0.594              1.984              5.791
 Vibration     3          0.595              1.980              5.139
 Vibration     4          0.596              1.976              4.699
 Vibration     5          0.600              1.963              3.904
 Vibration     6          0.600              1.961              3.816
 Vibration     7          0.604              1.948              3.420
 Vibration     8          0.609              1.933              3.106
 Vibration     9          0.614              1.917              2.854
 Vibration    10          0.624              1.885              2.486
 Vibration    11          0.630              1.865              2.313
 Vibration    12          0.638              1.839              2.129
 Vibration    13          0.643              1.825              2.040
 Vibration    14          0.646              1.813              1.970
 Vibration    15          0.648              1.809              1.949
 Vibration    16          0.653              1.794              1.871
 Vibration    17          0.662              1.766              1.745
 Vibration    18          0.665              1.755              1.699
 Vibration    19          0.682              1.703              1.509
 Vibration    20          0.700              1.652              1.355
 Vibration    21          0.714              1.612              1.250
 Vibration    22          0.731              1.565              1.143
 Vibration    23          0.744              1.528              1.069
 Vibration    24          0.805              1.370              0.808
 Vibration    25          0.827              1.316              0.737
 Vibration    26          0.837              1.293              0.709
 Vibration    27          0.853              1.256              0.665
 Vibration    28          0.892              1.169              0.573
 Vibration    29          0.927              1.094              0.503
 Vibration    30          0.950              1.047              0.462
 Vibration    31          0.956              1.035              0.452

 Optimization completed.
    -- Stationary point found.
 Normal termination of Gaussian 16 at Fri Dec 11 13:42:04 2020.

 ----------------------------------------------------------------------
 # B3LYP/6-311++G(d,p) empiricaldispersion=gd3bj scf=xqc pop=npa geom=c
 heck
 ----------------------------------------------------------------------

 --------------------------------------
 CID_80016698_JID_7905_Energie_neutraal
 --------------------------------------
 Structure from the checkpoint file:  "JID_7905.chk"
 Charge =  0 Multiplicity = 1

 SCF Done:  E(RB3LYP) =  -1399.95739483     A.U. after   15 cycles
 Normal termination of Gaussian 16 at Fri Dec 11 13:51:34 2020.

 ----------------------------------------------------------------------
 # B3LYP/6-311++G(d,p) empiricaldispersion=gd3bj scf=xqc pop=npa geom=c
 heck
 ----------------------------------------------------------------------

 ------------------------------------
 CID_80016698_JID_7905_Energie_kation
 ------------------------------------
 Structure from the checkpoint file:  "JID_7905.chk"
 Charge =  1 Multiplicity = 2

 SCF Done:  E(UB3LYP) =  -1399.68246053     A.U. after   26 cycles
 Normal termination of Gaussian 16 at Fri Dec 11 14:14:11 2020.
 Gaussian 16:  ES64L-G16RevA.03 25-Dec-2016

 ----------------------------------------------------------------------
 # B3LYP/6-311++G(d,p) empiricaldispersion=gd3bj scf=xqc pop=npa geom=c
 heck
 ----------------------------------------------------------------------

 -----------------------------------
 CID_80016698_JID_7905_Energie_anion
 -----------------------------------
 Structure from the checkpoint file:  "JID_7905.chk"
 Charge = -1 Multiplicity = 2

                         Standard orientation:
 ---------------------------------------------------------------------
 Center     Atomic      Atomic             Coordinates (Angstroms)
 Number     Number       Type             X           Y           Z
 ---------------------------------------------------------------------
      1          6           0        1.772237   -2.394313   -2.439737
      2          6           0        0.642302   -1.670057   -1.701321
      3          6           0        1.060217   -1.116181   -0.330683
      4          6           0        1.979556    0.116031   -0.386782
      5          6           0        1.192572    1.398402   -0.749859
      6          7           0        0.175559    1.810106    0.226500
      7          6           0        0.669772    2.805718    1.168357
      8          6           0       -1.125012    2.204962   -0.346816
      9          6           0       -1.045942    3.316544   -1.410060
     10          6           0       -1.904795    0.999643   -0.894953
     11          6           0       -2.291472   -0.023847    0.135794
     12          6           0       -2.112077   -0.021465    1.493549
     13          6           0       -2.633347   -1.185492    2.141651
     14          6           0       -3.203450   -2.068829    1.270649
     15         16           0       -3.114592   -1.486308   -0.364579
     16          6           0        2.780063    0.291430    0.911084
     17         16           0        4.135809   -0.931014    1.172347
     18          1           0        2.626388   -1.733947   -2.627137
     19          1           0        1.432260   -2.779722   -3.407603
     20          1           0        2.140037   -3.243233   -1.850888
     21          1           0        0.256841   -0.860664   -2.336453
     22          1           0       -0.198603   -2.359215   -1.557384
     23          1           0        0.175682   -0.851994    0.256430
     24          1           0        1.562426   -1.926979    0.212538
     25          1           0        2.714110   -0.016610   -1.192495
     26          1           0        1.910082    2.217398   -0.932706
     27          1           0        0.704590    1.213037   -1.710786
     28          1           0        0.969947    3.758628    0.693191
     29          1           0       -0.106199    3.027297    1.909153
     30          1           0        1.537654    2.421853    1.707287
     31          1           0       -1.704489    2.599940    0.496645
     32          1           0       -0.570521    2.961100   -2.331018
     33          1           0       -2.048671    3.672529   -1.670396
     34          1           0       -0.471969    4.173545   -1.043565
     35          1           0       -2.811464    1.384679   -1.381108
     36          1           0       -1.327246    0.521031   -1.695606
     37          1           0       -1.588861    0.771140    2.012549
     38          1           0       -2.576880   -1.354210    3.211559
     39          1           0       -3.669434   -3.021012    1.483641
     40          1           0        3.309275    1.250000    0.906448
     41          1           0        2.121958    0.280538    1.784148
     42          1           0        3.360968   -2.014001    1.388521
 ---------------------------------------------------------------------

 SCF Done:  E(UB3LYP) =  -1399.94502146     A.U. after   33 cycles
 SCF Done:  E(UB3LYP) =  -1399.94502146     a.u. after    1 cycles

 The electronic state is 2-A.
 Alpha  occ. eigenvalues --  -88.78356 -88.75224 -14.21113 -10.11450 -10.11323
 Alpha  occ. eigenvalues --  -10.10984 -10.10775 -10.10150 -10.09213 -10.09159
 Alpha  occ. eigenvalues --  -10.08665 -10.08517 -10.07998 -10.07635 -10.07262
 Alpha  occ. eigenvalues --  -10.06648 -10.06558  -7.86991  -7.83904  -5.83272
 Alpha  occ. eigenvalues --   -5.82911  -5.82592  -5.80274  -5.79935  -5.79290
 Alpha  occ. eigenvalues --   -0.83426  -0.79057  -0.73418  -0.70078  -0.68732
 Alpha  occ. eigenvalues --   -0.65172  -0.64390  -0.64033  -0.59899  -0.58631
 Alpha  occ. eigenvalues --   -0.57678  -0.54986  -0.51583  -0.49129  -0.47125
 Alpha  occ. eigenvalues --   -0.45422  -0.43710  -0.41619  -0.40619  -0.39335
 Alpha  occ. eigenvalues --   -0.37082  -0.36309  -0.36154  -0.35001  -0.33657
 Alpha  occ. eigenvalues --   -0.33408  -0.32976  -0.31491  -0.30987  -0.30690
 Alpha  occ. eigenvalues --   -0.30364  -0.29250  -0.29249  -0.28926  -0.27781
 Alpha  occ. eigenvalues --   -0.27347  -0.26897  -0.26155  -0.26012  -0.25257
 Alpha  occ. eigenvalues --   -0.24335  -0.23821  -0.23408  -0.22923  -0.22262
 Alpha  occ. eigenvalues --   -0.16409  -0.15255  -0.14269  -0.12130   0.04039
 Alpha virt. eigenvalues --    0.05729   0.06163   0.06451   0.06712   0.07482
 Alpha virt. eigenvalues --    0.07763   0.08035   0.08621   0.09198   0.09710
 Alpha virt. eigenvalues --    0.09832   0.10154   0.10515   0.10834   0.11396

  Beta  occ. eigenvalues --  -88.78354 -88.75216 -14.21110 -10.11445 -10.11313
  Beta  occ. eigenvalues --  -10.10967 -10.10766 -10.10133 -10.09205 -10.09125
  Beta  occ. eigenvalues --  -10.08654 -10.08510 -10.07990 -10.07629 -10.07252
  Beta  occ. eigenvalues --  -10.06640 -10.06518  -7.86989  -7.83895  -5.83270
  Beta  occ. eigenvalues --   -5.82910  -5.82590  -5.80252  -5.79931  -5.79284
  Beta  occ. eigenvalues --   -0.83410  -0.79045  -0.73397  -0.70056  -0.68709
  Beta  occ. eigenvalues --   -0.65142  -0.64367  -0.64004  -0.59858  -0.58588
  Beta  occ. eigenvalues --   -0.57639  -0.54933  -0.51542  -0.49089  -0.47092
  Beta  occ. eigenvalues --   -0.45389  -0.43676  -0.41585  -0.40587  -0.39304
  Beta  occ. eigenvalues --   -0.37050  -0.36282  -0.36131  -0.34971  -0.33629
  Beta  occ. eigenvalues --   -0.33374  -0.32945  -0.31461  -0.30960  -0.30662
  Beta  occ. eigenvalues --   -0.30334  -0.29226  -0.29206  -0.28897  -0.27766
  Beta  occ. eigenvalues --   -0.27319  -0.26864  -0.26134  -0.25985  -0.25234
  Beta  occ. eigenvalues --   -0.24307  -0.23793  -0.23381  -0.22901  -0.22238
  Beta  occ. eigenvalues --   -0.16402  -0.15234  -0.14253  -0.12103
  Beta virt. eigenvalues --    0.05894   0.06412   0.06512   0.06823   0.06975
  Beta virt. eigenvalues --    0.07943   0.08206   0.08484   0.08832   0.09495
  Beta virt. eigenvalues --    0.09812   0.10169   0.10432   0.10745   0.11047

 Mulliken charges and spin densities:
               1          2
     1  C   -0.167792  -0.492487
     2  C   -0.530481   0.266398
     3  C    0.134811  -0.489841
     4  C    0.827816  -0.152813
     5  C   -0.702015   0.024401
     6  N    0.244650   0.095144
     7  C    0.827696  -1.150805
     8  C   -1.796598   1.393687
     9  C    1.706571  -2.464208
    10  C   -0.055239  -0.120010
    11  C    0.052723   0.084127
    12  C    0.636776  -0.817056
    13  C   -0.736308   0.540383
    14  C    0.220558  -0.551846
    15  S   -0.045405   0.232437
    16  C   -0.171606  -0.331769
    17  S   -0.007801  -0.233771
    18  H    0.065241   0.072477
    19  H   -0.012963   0.152838
    20  H    0.049920   0.073121
    21  H    0.034430   0.057354
    22  H    0.044247   0.089809
    23  H    0.463220  -0.303818
    24  H    0.070740   0.086416
    25  H   -0.049765   0.178510
    26  H   -0.116771   0.286677
    27  H    0.219092  -0.123306
    28  H   -0.193094   0.327173
    29  H   -0.419705   0.573265
    30  H    0.050462   0.073533
    31  H   -0.197259   0.367194
    32  H   -0.166503   0.324183
    33  H   -0.464957   0.609112
    34  H   -0.245102   0.397746
    35  H    0.014645   0.228133
    36  H    0.026525   0.076719
    37  H    0.215457  -0.058230
    38  H   -0.493017   0.657418
    39  H   -0.243226   0.481516
    40  H    0.041624   0.175045
    41  H   -0.015647   0.212338
    42  H   -0.115946   0.152806
 Sum of Mulliken charges =  -1.00000   1.00000

 Dipole moment (field-independent basis, Debye):
    X=              0.5485    Y=             -4.3286    Z=             -1.7633  Tot=              4.7060
 Quadrupole moment (field-independent basis, Debye-Ang):
   XX=           -191.0093   YY=           -192.2464   ZZ=           -171.3088
   XY=              2.5871   XZ=              1.9458   YZ=              5.8275

 Summary of Natural Population Analysis:

                                       Natural Population
                Natural  -----------------------------------------------
    Atom  No    Charge         Core      Valence    Rydberg      Total
 -----------------------------------------------------------------------
      C    1   -0.28416      0.99967     2.28050    0.00399     3.28416
      C    2   -0.19057      0.99964     2.18412    0.00682     3.19057
      C    3   -0.19791      0.99959     2.18840    0.00992     3.19791
      C    4   -0.12107      0.99956     2.10914    0.01236     3.12107
      C    5   -0.08223      0.99957     2.06983    0.01283     3.08223
      N    6   -0.29663      0.99971     2.78189    0.01504     3.79663
      C    7   -0.17320      0.99962     2.16517    0.00840     3.17320
      C    8    0.00189      0.99958     1.98488    0.01365     2.99811
      C    9   -0.29498      0.99964     2.28956    0.00579     3.29498
      C   10   -0.21205      0.99954     2.20208    0.01043     3.21205
      C   11   -0.08713      0.99950     2.07323    0.01440     3.08713
      C   12   -0.13067      0.99945     2.12075    0.01047     3.13067
      C   13   -0.12349      0.99953     2.11306    0.01090     3.12349
      C   14   -0.19815      0.99954     2.18718    0.01143     3.19815
      S   15    0.19695      4.99940     2.78420    0.01945     7.80305
      C   16   -0.23955      0.99955     2.22939    0.01062     3.23955
      S   17   -0.02753      4.99966     3.01361    0.01425     8.02753
      H   18    0.09627      0.00000     0.40266    0.00107     0.40373
      H   19    0.09601      0.00000     0.40315    0.00084     0.40399
      H   20    0.09515      0.00000     0.40371    0.00114     0.40485
      H   21    0.09013      0.00000     0.40834    0.00153     0.40987
      H   22    0.09922      0.00000     0.39940    0.00138     0.40078
      H   23    0.11172      0.00000     0.38532    0.00296     0.38828
      H   24    0.09315      0.00000     0.40544    0.00141     0.40685
      H   25    0.09739      0.00000     0.40074    0.00186     0.40261
      H   26    0.09032      0.00000     0.40817    0.00151     0.40968
      H   27    0.09757      0.00000     0.40076    0.00167     0.40243
      H   28    0.08384      0.00000     0.41461    0.00155     0.41616
      H   29    0.09650      0.00000     0.40209    0.00141     0.40350
      H   30    0.09474      0.00000     0.40357    0.00169     0.40526
      H   31    0.09735      0.00000     0.40029    0.00236     0.40265
      H   32    0.09759      0.00000     0.40127    0.00114     0.40241
      H   33    0.10288      0.00000     0.39580    0.00132     0.39712
      H   34    0.10494      0.00000     0.39382    0.00124     0.39506
      H   35    0.10942      0.00000     0.38948    0.00110     0.39058
      H   36    0.10560      0.00000     0.39280    0.00159     0.39440
      H   37    0.11432      0.00000     0.38398    0.00171     0.38568
      H   38    0.10756      0.00000     0.39132    0.00112     0.39244
      H   39    0.10976      0.00000     0.38925    0.00099     0.39024
      H   40    0.10572      0.00000     0.39325    0.00103     0.39428
      H   41    0.10560      0.00000     0.39271    0.00169     0.39440
      H   42    0.05776      0.00000     0.43935    0.00289     0.44224
 =======================================================================
   * Total *   -0.00000     24.99274    48.77829    0.22897    74.00000

 Normal termination of Gaussian 16 at Fri Dec 11 14:42:53 2020.
