 Gaussian 16, Revision A.03,

 -----------------------------------------------------------
 # opt freq B3LYP/6-31G(d) empiricaldispersion=gd3bj scf=xqc
 -----------------------------------------------------------

 -------------------------------
 CID_106242838_JID_3836_neutraal
 -------------------------------
 Symbolic Z-matrix:
 Charge =  0 Multiplicity = 1

 SCF Done:  E(RB3LYP) =  -650.865561598     A.U. after   14 cycles
 SCF Done:  E(RB3LYP) =  -650.870431973     A.U. after   12 cycles
 SCF Done:  E(RB3LYP) =  -650.870724984     A.U. after   12 cycles
 SCF Done:  E(RB3LYP) =  -650.871701908     A.U. after   12 cycles
 SCF Done:  E(RB3LYP) =  -650.872486507     A.U. after   11 cycles
 SCF Done:  E(RB3LYP) =  -650.872818977     A.U. after   12 cycles
 SCF Done:  E(RB3LYP) =  -650.872954227     A.U. after   11 cycles
 SCF Done:  E(RB3LYP) =  -650.873026739     A.U. after   10 cycles
 SCF Done:  E(RB3LYP) =  -650.873085883     A.U. after   11 cycles
 SCF Done:  E(RB3LYP) =  -650.873178554     A.U. after   11 cycles
 SCF Done:  E(RB3LYP) =  -650.876862193     A.U. after    9 cycles
 SCF Done:  E(RB3LYP) =  -650.876866395     A.U. after    9 cycles
 SCF Done:  E(RB3LYP) =  -650.876873428     A.U. after    9 cycles
 SCF Done:  E(RB3LYP) =  -650.876875321     A.U. after    8 cycles
 SCF Done:  E(RB3LYP) =  -650.876875401     A.U. after    7 cycles
 SCF Done:  E(RB3LYP) =  -650.876875398     A.U. after    6 cycles
 Optimization completed.
    -- Stationary point found.
 Normal termination of Gaussian 16 at Mon Dec 14 13:22:47 2020.

 --------------------------------------------------------------------
 #N Geom=AllCheck Guess=TCheck SCRF=Check GenChk RB3LYP/6-31G(d) Freq
 --------------------------------------------------------------------

 Structure from the checkpoint file:  "JID_3836.chk"
 -------------------------------
 CID_106242838_JID_3836_neutraal
 -------------------------------
 Charge =  0 Multiplicity = 1

 SCF Done:  E(RB3LYP) =  -650.876875398     A.U. after    1 cycles

  Exact polarizability: 128.664   0.545  99.921   6.262   1.485  94.708
 Approx polarizability: 156.013   6.461 139.779  13.950   9.316 147.015

                      1                      2                      3
                      A                      A                      A
 Frequencies --     40.9504                42.4230                56.5608
 Red. masses --      4.1313                 4.4766                 5.6653
 Frc consts  --      0.0041                 0.0047                 0.0107
 IR Inten    --      0.4353                 1.0315                 0.8118

                      4                      5                      6
                      A                      A                      A
 Frequencies --     69.9490                84.6405               108.7669
 Red. masses --      3.0892                 3.6248                 2.4527
 Frc consts  --      0.0089                 0.0153                 0.0171
 IR Inten    --      1.5914                 1.7505                 6.4198

                      7                      8                      9
                      A                      A                      A
 Frequencies --    126.4316               161.9296               177.7672
 Red. masses --      2.6370                 1.8946                 1.7845
 Frc consts  --      0.0248                 0.0293                 0.0332
 IR Inten    --      4.8483                 0.8336                 1.7586

                     10                     11                     12
                      A                      A                      A
 Frequencies --    181.0772               208.7853               245.0182
 Red. masses --      2.6617                 2.8465                 1.4912
 Frc consts  --      0.0514                 0.0731                 0.0527
 IR Inten    --      0.6521                 4.5421                 5.1252

                     13                     14                     15
                      A                      A                      A
 Frequencies --    270.1074               280.9065               338.6355
 Red. masses --      1.9764                 1.2268                 2.9417
 Frc consts  --      0.0850                 0.0570                 0.1988
 IR Inten    --      5.5580                51.4568                 5.6238

                     16                     17                     18
                      A                      A                      A
 Frequencies --    353.4962               371.4175               418.4722
 Red. masses --      2.6663                 2.6493                 2.2707
 Frc consts  --      0.1963                 0.2153                 0.2343
 IR Inten    --      1.6648                10.7274                 2.7652

                     19                     20                     21
                      A                      A                      A
 Frequencies --    437.9716               476.9261               480.8934
 Red. masses --      3.5632                 2.5001                 4.1885
 Frc consts  --      0.4027                 0.3350                 0.5707
 IR Inten    --      1.6815                 2.3521                 5.3155

                     22                     23                     24
                      A                      A                      A
 Frequencies --    546.8021               604.3657               625.7790
 Red. masses --      2.6133                 1.7829                 1.6867
 Frc consts  --      0.4604                 0.3837                 0.3892
 IR Inten    --     10.7073                52.7084                36.3668

                     25                     26                     27
                      A                      A                      A
 Frequencies --    690.7616               792.1649               805.2184
 Red. masses --      3.1020                 3.2677                 2.5267
 Frc consts  --      0.8721                 1.2081                 0.9652
 IR Inten    --     50.6264                 3.0492                35.6287

                     28                     29                     30
                      A                      A                      A
 Frequencies --    890.0046               917.9066               955.5243
 Red. masses --      1.5800                 2.0499                 3.9407
 Frc consts  --      0.7374                 1.0176                 2.1199
 IR Inten    --    103.2959                88.6177                16.3870

                     31                     32                     33
                      A                      A                      A
 Frequencies --    974.4035               978.3771              1004.0781
 Red. masses --      2.2281                 1.8403                 3.1979
 Frc consts  --      1.2464                 1.0379                 1.8995
 IR Inten    --      6.7621                12.9634                15.2066

                     34                     35                     36
                      A                      A                      A
 Frequencies --   1032.8230              1056.5755              1098.6386
 Red. masses --      1.8312                 1.7547                 1.9549
 Frc consts  --      1.1509                 1.1541                 1.3902
 IR Inten    --     12.5323                11.1972                15.6638

                     37                     38                     39
                      A                      A                      A
 Frequencies --   1138.3993              1152.9215              1158.5014
 Red. masses --      2.3969                 2.9500                 2.5315
 Frc consts  --      1.8302                 2.3103                 2.0018
 IR Inten    --     33.8882                95.6657                 2.6427

                     40                     41                     42
                      A                      A                      A
 Frequencies --   1174.6767              1190.9604              1192.4423
 Red. masses --      3.6809                 1.2868                 1.3002
 Frc consts  --      2.9926                 1.0754                 1.0893
 IR Inten    --    122.2684                 9.3798                 6.5239

                     43                     44                     45
                      A                      A                      A
 Frequencies --   1220.4482              1227.7548              1241.6788
 Red. masses --      1.5715                 1.6499                 1.4070
 Frc consts  --      1.3791                 1.4653                 1.2781
 IR Inten    --     35.4575                49.6698                38.0428

                     46                     47                     48
                      A                      A                      A
 Frequencies --   1261.1950              1275.1668              1311.6861
 Red. masses --      1.7102                 1.1635                 1.3136
 Frc consts  --      1.6027                 1.1147                 1.3316
 IR Inten    --      4.2989                 3.0575                14.2053

                     49                     50                     51
                      A                      A                      A
 Frequencies --   1322.8048              1363.1111              1380.1313
 Red. masses --      1.2607                 1.4240                 1.3377
 Frc consts  --      1.2998                 1.5589                 1.5012
 IR Inten    --      6.6218                65.0457                 8.9142

                     52                     53                     54
                      A                      A                      A
 Frequencies --   1399.2146              1406.0582              1417.6959
 Red. masses --      1.3978                 1.5408                 1.3520
 Frc consts  --      1.6124                 1.7948                 1.6010
 IR Inten    --      1.2558                43.3033                29.4877

                     55                     56                     57
                      A                      A                      A
 Frequencies --   1430.6174              1454.5822              1492.0731
 Red. masses --      1.4260                 1.4689                 1.6140
 Frc consts  --      1.7195                 1.8312                 2.1171
 IR Inten    --     24.2347                 4.1126                71.3430

                     58                     59                     60
                      A                      A                      A
 Frequencies --   1496.1905              1504.1485              1509.6860
 Red. masses --      1.1147                 1.1787                 1.1206
 Frc consts  --      1.4702                 1.5712                 1.5048
 IR Inten    --      2.0435                 2.3590                 5.0857

                     61                     62                     63
                      A                      A                      A
 Frequencies --   1514.9321              1515.8427              1518.0222
 Red. masses --      1.0492                 1.0959                 1.0690
 Frc consts  --      1.4188                 1.4837                 1.4513
 IR Inten    --      6.7559                 6.3589                 5.8668

                     64                     65                     66
                      A                      A                      A
 Frequencies --   1529.6646              1533.0287              1534.5919
 Red. masses --      1.1292                 1.0682                 1.0695
 Frc consts  --      1.5568                 1.4791                 1.4839
 IR Inten    --      3.5013                 8.7453                16.6731

                     67                     68                     69
                      A                      A                      A
 Frequencies --   1555.8630              1705.8074              1786.7313
 Red. masses --      1.0840                 1.0941                 7.7801
 Frc consts  --      1.5461                 1.8757                14.6337
 IR Inten    --      2.0310                13.1790               381.6636

                     70                     71                     72
                      A                      A                      A
 Frequencies --   2953.0877              2990.9614              3012.0936
 Red. masses --      1.0689                 1.0396                 1.0348
 Frc consts  --      5.4920                 5.4793                 5.5315
 IR Inten    --     67.9752                69.5413                40.2287

                     73                     74                     75
                      A                      A                      A
 Frequencies --   3032.9134              3036.2307              3047.0090
 Red. masses --      1.0874                 1.1036                 1.0588
 Frc consts  --      5.8932                 5.9943                 5.7920
 IR Inten    --     57.5335                51.0353                40.1857

                     76                     77                     78
                      A                      A                      A
 Frequencies --   3055.4664              3064.3350              3069.9898
 Red. masses --      1.0811                 1.1048                 1.0698
 Frc consts  --      5.9468                 6.1123                 5.9406
 IR Inten    --     34.5018                56.4520                44.8134

                     79                     80                     81
                      A                      A                      A
 Frequencies --   3082.7909              3100.9567              3116.6729
 Red. masses --      1.0636                 1.1064                 1.0980
 Frc consts  --      5.9555                 6.2683                 6.2840
 IR Inten    --     16.1639                18.2382                26.4064

                     82                     83                     84
                      A                      A                      A
 Frequencies --   3135.7165              3138.1380              3142.9387
 Red. masses --      1.1042                 1.0969                 1.0993
 Frc consts  --      6.3968                 6.3646                 6.3977
 IR Inten    --     25.4194                32.2376                22.7423

                     85                     86                     87
                      A                      A                      A
 Frequencies --   3480.4407              3562.7414              3580.9364
 Red. masses --      1.0496                 1.0919                 1.0756
 Frc consts  --      7.4912                 8.1655                 8.1261
 IR Inten    --      1.8990                 3.1519                14.4600

 - Thermochemistry -
 -------------------
 Temperature   298.150 Kelvin.  Pressure   1.00000 Atm.
 Atom     1 has atomic number  6 and mass  12.00000

 Molecular mass:   190.13174 amu.
 Principal axes and moments of inertia in atomic units:
                           1         2         3
     Eigenvalues --  1385.824674486.832244821.50642
           X            0.99972  -0.02356  -0.00314
           Y            0.02327   0.99709  -0.07263
           Z            0.00484   0.07253   0.99735
 This molecule is an asymmetric top.
 Rotational symmetry number  1.
 Warning -- assumption of classical behavior for rotation
           may cause significant error
 Rotational temperatures (Kelvin)      0.06250     0.01930     0.01796
 Rotational constants (GHZ):           1.30229     0.40223     0.37431
 Zero-point vibrational energy     720311.0 (Joules/Mol)
                                  172.15846 (Kcal/Mol)
 Warning -- explicit consideration of  23 degrees of freedom as
           vibrations may cause significant error
 Vibrational temperatures:     58.92    61.04    81.38   100.64   121.78
          (Kelvin)            156.49   181.91   232.98   255.77   260.53
                              300.40   352.53   388.62   404.16   487.22
                              508.60   534.39   602.09   630.14   686.19
                              691.90   786.73   869.55   900.36   993.85
                             1139.75  1158.53  1280.52  1320.66  1374.79
                             1401.95  1407.67  1444.64  1486.00  1520.18
                             1580.70  1637.90  1658.80  1666.83  1690.10
                             1713.53  1715.66  1755.95  1766.47  1786.50
                             1814.58  1834.68  1887.22  1903.22  1961.21
                             1985.70  2013.16  2023.00  2039.75  2058.34
                             2092.82  2146.76  2152.68  2164.13  2172.10
                             2179.65  2180.96  2184.10  2200.85  2205.69
                             2207.94  2238.54  2454.28  2570.71  4248.83
                             4303.33  4333.73  4363.69  4368.46  4383.97
                             4396.13  4408.89  4417.03  4435.45  4461.59
                             4484.20  4511.60  4515.08  4521.99  5007.58
                             5125.99  5152.17

 Zero-point correction=                           0.274352 (Hartree/Particle)
 Thermal correction to Energy=                    0.289976
 Thermal correction to Enthalpy=                  0.290921
 Thermal correction to Gibbs Free Energy=         0.230533
 Sum of electronic and zero-point Energies=           -650.602523
 Sum of electronic and thermal Energies=              -650.586899
 Sum of electronic and thermal Enthalpies=            -650.585955
 Sum of electronic and thermal Free Energies=         -650.646342

                     E (Thermal)             CV                S
                      KCal/Mol        Cal/Mol-Kelvin    Cal/Mol-Kelvin
 Total                  181.963             55.398            127.096
 Electronic               0.000              0.000              0.000
 Translational            0.889              2.981             41.633
 Rotational               0.889              2.981             31.772
 Vibrational            180.186             49.437             53.691
 Vibration     1          0.594              1.981              5.213
 Vibration     2          0.595              1.980              5.143
 Vibration     3          0.596              1.975              4.574
 Vibration     4          0.598              1.968              4.155
 Vibration     5          0.601              1.960              3.780
 Vibration     6          0.606              1.942              3.291
 Vibration     7          0.611              1.927              3.000
 Vibration     8          0.622              1.889              2.527
 Vibration     9          0.628              1.870              2.352
 Vibration    10          0.630              1.865              2.317
 Vibration    11          0.642              1.827              2.054
 Vibration    12          0.660              1.771              1.766
 Vibration    13          0.674              1.728              1.596
 Vibration    14          0.681              1.709              1.528
 Vibration    15          0.719              1.598              1.219
 Vibration    16          0.730              1.568              1.151
 Vibration    17          0.743              1.531              1.074
 Vibration    18          0.781              1.430              0.897
 Vibration    19          0.798              1.387              0.833
 Vibration    20          0.833              1.301              0.718
 Vibration    21          0.837              1.292              0.708
 Vibration    22          0.902              1.147              0.551
 Vibration    23          0.963              1.023              0.442

 Optimization completed.
    -- Stationary point found.
 Normal termination of Gaussian 16 at Mon Dec 14 13:30:58 2020.

 ----------------------------------------------------------------------
 # B3LYP/6-311++G(d,p) empiricaldispersion=gd3bj scf=xqc pop=npa geom=c
 heck
 ----------------------------------------------------------------------

 ---------------------------------------
 CID_106242838_JID_3836_Energie_neutraal
 ---------------------------------------
 Structure from the checkpoint file:  "JID_3836.chk"
 Charge =  0 Multiplicity = 1

 SCF Done:  E(RB3LYP) =  -651.083825667     A.U. after   14 cycles
 Normal termination of Gaussian 16 at Mon Dec 14 13:34:40 2020.

 ----------------------------------------------------------------------
 # B3LYP/6-311++G(d,p) empiricaldispersion=gd3bj scf=xqc pop=npa geom=c
 heck
 ----------------------------------------------------------------------

 -------------------------------------
 CID_106242838_JID_3836_Energie_kation
 -------------------------------------
 Structure from the checkpoint file:  "JID_3836.chk"
 Charge =  1 Multiplicity = 2

 SCF Done:  E(UB3LYP) =  -650.768471738     A.U. after   27 cycles
 Normal termination of Gaussian 16 at Mon Dec 14 13:44:46 2020.
 Gaussian 16:  ES64L-G16RevA.03 25-Dec-2016

 ----------------------------------------------------------------------
 # B3LYP/6-311++G(d,p) empiricaldispersion=gd3bj scf=xqc pop=npa geom=c
 heck
 ----------------------------------------------------------------------

 ------------------------------------
 CID_106242838_JID_3836_Energie_anion
 ------------------------------------
 Structure from the checkpoint file:  "JID_3836.chk"
 Charge = -1 Multiplicity = 2

                         Standard orientation:
 ---------------------------------------------------------------------
 Center     Atomic      Atomic             Coordinates (Angstroms)
 Number     Number       Type             X           Y           Z
 ---------------------------------------------------------------------
      1          6           0       -4.320272    0.973988   -0.333897
      2          8           0       -3.255964    0.074211   -0.553692
      3          6           0       -2.542927   -0.222958    0.631343
      4          6           0       -1.446583   -1.242156    0.318058
      5          6           0       -0.601691   -0.854712   -0.914408
      6          6           0       -0.101550    0.594294   -0.967839
      7          7           0        0.626710    1.059707    0.217150
      8          6           0        1.973256    1.227429    0.392009
      9          8           0        2.428102    1.803510    1.373405
     10          6           0        2.903256    0.665061   -0.692230
     11          8           0        2.642506   -0.676801   -1.056742
     12          6           0        2.934840   -1.587617   -0.010799
     13          7           0       -0.700490   -1.473120    1.564424
     14          1           0       -4.807657    1.142575   -1.297498
     15          1           0       -3.961373    1.938762    0.060385
     16          1           0       -5.056873    0.565141    0.375468
     17          1           0       -2.101908    0.699956    1.052221
     18          1           0       -3.208857   -0.633581    1.404460
     19          1           0       -1.951383   -2.185752    0.077108
     20          1           0        0.255531   -1.531559   -0.981481
     21          1           0       -1.206804   -1.007186   -1.815951
     22          1           0        0.540352    0.713254   -1.843487
     23          1           0       -0.957234    1.262532   -1.104315
     24          1           0        0.088500    1.524763    0.939066
     25          1           0        2.802241    1.255704   -1.609944
     26          1           0        3.924206    0.788304   -0.308224
     27          1           0        3.979230   -1.492629    0.320691
     28          1           0        2.276963   -1.437690    0.857404
     29          1           0        2.772783   -2.591037   -0.411684
     30          1           0       -0.149771   -2.324725    1.476298
     31          1           0       -0.028608   -0.720277    1.701258
 ---------------------------------------------------------------------

 SCF Done:  E(UB3LYP) =  -651.071448490     A.U. after   31 cycles

 The electronic state is 2-A.
 Alpha  occ. eigenvalues --  -19.04847 -19.03263 -19.00178 -14.24791 -14.19727
 Alpha  occ. eigenvalues --  -10.18422 -10.13936 -10.12428 -10.11828 -10.11492
 Alpha  occ. eigenvalues --  -10.11378 -10.10464 -10.06758  -0.96525  -0.94644
 Alpha  occ. eigenvalues --   -0.94586  -0.83375  -0.79348  -0.67818  -0.65656
 Alpha  occ. eigenvalues --   -0.63684  -0.58149  -0.57328  -0.54858  -0.49682
 Alpha  occ. eigenvalues --   -0.47783  -0.42409  -0.41292  -0.41106  -0.40535
 Alpha  occ. eigenvalues --   -0.39723  -0.38086  -0.37808  -0.35478  -0.34526
 Alpha  occ. eigenvalues --   -0.33987  -0.33150  -0.32183  -0.31883  -0.30348
 Alpha  occ. eigenvalues --   -0.29349  -0.28724  -0.27869  -0.25228  -0.24901
 Alpha  occ. eigenvalues --   -0.24547  -0.22827  -0.19859  -0.17095  -0.17033
 Alpha  occ. eigenvalues --   -0.16089  -0.14803   0.04200
 Alpha virt. eigenvalues --    0.05851   0.06843   0.07747   0.08316   0.08572
 Alpha virt. eigenvalues --    0.08859   0.09866   0.10077   0.10549   0.11085
 Alpha virt. eigenvalues --    0.11528   0.12199   0.12876   0.13190   0.13730

  Beta  occ. eigenvalues --  -19.04843 -19.03251 -19.00175 -14.24775 -14.19706
  Beta  occ. eigenvalues --  -10.18423 -10.13915 -10.12385 -10.11807 -10.11444
  Beta  occ. eigenvalues --  -10.11359 -10.10454 -10.06749  -0.96515  -0.94626
  Beta  occ. eigenvalues --   -0.94577  -0.83351  -0.79311  -0.67783  -0.65611
  Beta  occ. eigenvalues --   -0.63640  -0.58089  -0.57255  -0.54792  -0.49641
  Beta  occ. eigenvalues --   -0.47742  -0.42368  -0.41250  -0.41070  -0.40493
  Beta  occ. eigenvalues --   -0.39673  -0.38056  -0.37778  -0.35435  -0.34491
  Beta  occ. eigenvalues --   -0.33957  -0.33118  -0.32151  -0.31855  -0.30311
  Beta  occ. eigenvalues --   -0.29317  -0.28696  -0.27842  -0.25194  -0.24862
  Beta  occ. eigenvalues --   -0.24521  -0.22770  -0.19843  -0.17072  -0.17008
  Beta  occ. eigenvalues --   -0.16076  -0.14781
  Beta virt. eigenvalues --    0.06409   0.06984   0.07460   0.08171   0.08819
  Beta virt. eigenvalues --    0.08934   0.09377   0.10260   0.10555   0.10923
  Beta virt. eigenvalues --    0.11371   0.11989   0.12276   0.13236   0.13368

 Mulliken charges and spin densities:
               1          2
     1  C    1.119335  -1.356920
     2  O   -0.171295   0.079045
     3  C   -0.158602  -0.103795
     4  C   -0.085858  -0.400866
     5  C   -0.572756   0.032308
     6  C    0.491051  -0.728582
     7  N   -0.199034   0.005765
     8  C   -0.359050   0.415289
     9  O   -0.311028   0.014381
    10  C    0.465342  -0.897805
    11  O   -0.150281   0.075876
    12  C    0.597939  -0.915673
    13  N   -0.127372  -0.071559
    14  H   -0.324618   0.469502
    15  H   -0.455053   0.585796
    16  H   -0.269346   0.397087
    17  H    0.224097  -0.121139
    18  H   -0.023798   0.199850
    19  H   -0.187019   0.376984
    20  H    0.295725  -0.116324
    21  H   -0.091285   0.270419
    22  H   -0.031981   0.221852
    23  H   -0.179391   0.409312
    24  H    0.045369   0.312710
    25  H   -0.181919   0.362063
    26  H    0.098509   0.087724
    27  H   -0.136900   0.253097
    28  H    0.039016   0.125238
    29  H   -0.504480   0.684208
    30  H   -0.017080   0.262652
    31  H    0.161761   0.071506
 Sum of Mulliken charges =  -1.00000   1.00000

 Dipole moment (field-independent basis, Debye):
    X=              2.3933    Y=             -0.3040    Z=             -0.5675  Tot=              2.4783
 Quadrupole moment (field-independent basis, Debye-Ang):
   XX=           -159.3921   YY=           -129.2036   ZZ=           -118.4112
   XY=              7.8354   XZ=             -3.6854   YZ=             -0.5782

 Summary of Natural Population Analysis:

                                       Natural Population
                Natural  -----------------------------------------------
    Atom  No    Charge         Core      Valence    Rydberg      Total
 -----------------------------------------------------------------------
      C    1   -0.09663      0.99962     2.08752    0.00948     3.09663
      O    2   -0.30041      0.99988     3.29114    0.00939     4.30041
      C    3   -0.00813      0.99956     1.99597    0.01260     3.00813
      C    4   -0.02258      0.99960     2.00979    0.01319     3.02258
      C    5   -0.20230      0.99959     2.19364    0.00906     3.20230
      C    6   -0.09280      0.99959     2.08118    0.01203     3.09280
      N    7   -0.32437      0.99967     2.81357    0.01113     3.82437
      C    8    0.32689      0.99967     1.65174    0.02170     2.67311
      O    9   -0.32228      0.99988     3.31636    0.00605     4.32228
      C   10   -0.05070      0.99955     2.03894    0.01221     3.05070
      O   11   -0.29624      0.99989     3.28545    0.01089     4.29624
      C   12   -0.10233      0.99961     2.09206    0.01066     3.10233
      N   13   -0.42420      0.99976     2.91425    0.01018     3.92420
      H   14    0.09140      0.00000     0.40718    0.00141     0.40860
      H   15    0.07974      0.00000     0.41799    0.00227     0.42026
      H   16    0.07842      0.00000     0.41984    0.00174     0.42158
      H   17    0.07212      0.00000     0.42604    0.00185     0.42788
      H   18    0.08766      0.00000     0.41081    0.00153     0.41234
      H   19    0.09393      0.00000     0.40431    0.00175     0.40607
      H   20    0.10333      0.00000     0.39469    0.00198     0.39667
      H   21    0.10697      0.00000     0.39137    0.00166     0.39303
      H   22    0.10190      0.00000     0.39651    0.00160     0.39810
      H   23    0.10312      0.00000     0.39519    0.00168     0.39688
      H   24    0.19545      0.00000     0.30210    0.00244     0.30455
      H   25    0.10030      0.00000     0.39819    0.00151     0.39970
      H   26    0.09299      0.00000     0.40567    0.00133     0.40701
      H   27    0.08133      0.00000     0.41740    0.00127     0.41867
      H   28    0.08043      0.00000     0.41780    0.00178     0.41957
      H   29    0.09497      0.00000     0.40321    0.00182     0.40503
      H   30    0.17675      0.00000     0.32119    0.00206     0.32325
      H   31    0.17525      0.00000     0.32223    0.00252     0.32475
 =======================================================================
   * Total *    0.00000     12.99588    38.82333    0.18079    52.00000

 Normal termination of Gaussian 16 at Mon Dec 14 13:56:33 2020.
