 Gaussian 16, Revision A.03,

 -----------------------------------------------------------
 # opt freq B3LYP/6-31G(d) empiricaldispersion=gd3bj scf=xqc
 -----------------------------------------------------------

 -----------------------------
 CID_66698418_JID_495_neutraal
 -----------------------------
 Symbolic Z-matrix:
 Charge =  0 Multiplicity = 1

 SCF Done:  E(RB3LYP) =  -407.943931159     A.U. after   13 cycles
 SCF Done:  E(RB3LYP) =  -407.946059963     A.U. after   10 cycles
 SCF Done:  E(RB3LYP) =  -407.946281298     A.U. after   10 cycles
 SCF Done:  E(RB3LYP) =  -407.946416752     A.U. after   10 cycles
 SCF Done:  E(RB3LYP) =  -407.946492009     A.U. after   10 cycles
 SCF Done:  E(RB3LYP) =  -407.946537583     A.U. after    9 cycles
 SCF Done:  E(RB3LYP) =  -407.946633144     A.U. after   10 cycles
 SCF Done:  E(RB3LYP) =  -407.946724555     A.U. after    9 cycles
 SCF Done:  E(RB3LYP) =  -407.946781670     A.U. after   10 cycles
 SCF Done:  E(RB3LYP) =  -407.946800900     A.U. after    9 cycles
 SCF Done:  E(RB3LYP) =  -407.947121313     A.U. after   10 cycles
 SCF Done:  E(RB3LYP) =  -407.947157067     A.U. after    9 cycles
 SCF Done:  E(RB3LYP) =  -407.947140312     A.U. after    9 cycles
 SCF Done:  E(RB3LYP) =  -407.947159152     A.U. after    9 cycles
 SCF Done:  E(RB3LYP) =  -407.947159539     A.U. after    8 cycles
 SCF Done:  E(RB3LYP) =  -407.947159793     A.U. after    7 cycles
 Optimization completed on the basis of negligible forces.
    -- Stationary point found.

 1\1\GINC-NODE371\FOpt\RB3LYP\6-31G(d)\C9H17N1\VSC10255\08-Dec-2020\0\\
 # opt freq B3LYP/6-31G(d) empiricaldispersion=gd3bj scf=xqc\\CID_66698
 418_JID_495_neutraal\\0,1\C,1.7137089037,0.4869480442,-0.1388351847\C,
 0.2968521783,0.7977558009,0.3496566981\C,0.3020421119,1.5081474784,1.7
 39383433\C,-0.3748504821,2.8678685455,1.4903635178\N,-0.1327515937,3.0
 965831453,0.0692262161\C,-0.4169518183,1.8157395727,-0.5672840593\C,-0
 .7481327916,4.2728735786,-0.5256265707\C,-2.2642617344,4.3741475301,-0
 .4444766105\C,-2.9176470405,5.0299580145,0.7470996195\C,-2.9135600471,

 Normal termination of Gaussian 16 at Tue Dec  8 11:06:24 2020.

 --------------------------------------------------------------------
 #N Geom=AllCheck Guess=TCheck SCRF=Check GenChk RB3LYP/6-31G(d) Freq
 --------------------------------------------------------------------

 Structure from the checkpoint file:  "JID_495.chk"
 -----------------------------
 CID_66698418_JID_495_neutraal
 -----------------------------
 Charge =  0 Multiplicity = 1

 SCF Done:  E(RB3LYP) =  -407.947159793     A.U. after    1 cycles

  Exact polarizability: 115.273  -0.255  92.075   1.468   0.320  84.099
 Approx polarizability: 134.256  -0.033 132.863   2.455   0.613 128.671

                      1                      2                      3
                      A                      A                      A
 Frequencies --     40.6144                72.5386                90.0235
 Red. masses --      2.5443                 2.4162                 3.1499
 Frc consts  --      0.0025                 0.0075                 0.0150
 IR Inten    --      0.0474                 0.2097                 0.0841

                      4                      5                      6
                      A                      A                      A
 Frequencies --    111.1116               195.7052               269.0479
 Red. masses --      2.5679                 2.5535                 1.1675
 Frc consts  --      0.0187                 0.0576                 0.0498
 IR Inten    --      0.4545                 0.4193                 0.1712

                      7                      8                      9
                      A                      A                      A
 Frequencies --    286.1889               304.7329               359.4643
 Red. masses --      2.5883                 2.2918                 2.2078
 Frc consts  --      0.1249                 0.1254                 0.1681
 IR Inten    --      1.3503                 1.5348                 0.8156

                     10                     11                     12
                      A                      A                      A
 Frequencies --    395.0848               404.5237               447.9879
 Red. masses --      1.8656                 1.9610                 2.5814
 Frc consts  --      0.1716                 0.1891                 0.3052
 IR Inten    --      2.8226                 0.8281                 6.8267

                     13                     14                     15
                      A                      A                      A
 Frequencies --    645.2296               670.3278               781.8137
 Red. masses --      2.9148                 3.1257                 1.2297
 Frc consts  --      0.7150                 0.8275                 0.4429
 IR Inten    --      0.4086                 1.1232                 0.9692

                     16                     17                     18
                      A                      A                      A
 Frequencies --    811.4733               818.6476               838.2783
 Red. masses --      1.4091                 3.0892                 1.5814
 Frc consts  --      0.5467                 1.2198                 0.6547
 IR Inten    --      2.9576                 0.6300                 3.2529

                     19                     20                     21
                      A                      A                      A
 Frequencies --    847.0336               894.9625               909.5536
 Red. masses --      1.8111                 2.1304                 1.8808
 Frc consts  --      0.7656                 1.0054                 0.9168
 IR Inten    --     13.4747                 5.3578                 2.9333

                     22                     23                     24
                      A                      A                      A
 Frequencies --    940.4396               957.3180               968.7349
 Red. masses --      2.2082                 2.4306                 1.4515
 Frc consts  --      1.1507                 1.3124                 0.8025
 IR Inten    --      0.9608                18.8447                 1.3649

                     25                     26                     27
                      A                      A                      A
 Frequencies --    999.1744              1017.9802              1026.7258
 Red. masses --      2.3620                 1.6206                 1.8304
 Frc consts  --      1.3893                 0.9895                 1.1369
 IR Inten    --      3.1131                 3.0059                 7.0721

                     28                     29                     30
                      A                      A                      A
 Frequencies --   1051.4555              1066.0356              1083.0099
 Red. masses --      1.7051                 1.4360                 1.3758
 Frc consts  --      1.1107                 0.9615                 0.9507
 IR Inten    --      2.5291                 7.2559                 2.2737

                     31                     32                     33
                      A                      A                      A
 Frequencies --   1127.9542              1148.3483              1151.7651
 Red. masses --      1.6975                 1.2139                 1.5146
 Frc consts  --      1.2725                 0.9432                 1.1838
 IR Inten    --      9.2336                 2.3219                 2.1727

                     34                     35                     36
                      A                      A                      A
 Frequencies --   1159.1423              1188.5579              1211.2511
 Red. masses --      1.9437                 1.7774                 1.4086
 Frc consts  --      1.5387                 1.4794                 1.2176
 IR Inten    --     28.2814                32.5442                 0.7232

                     37                     38                     39
                      A                      A                      A
 Frequencies --   1212.3353              1235.1366              1244.9987
 Red. masses --      2.0568                 1.5098                 1.8811
 Frc consts  --      1.7811                 1.3570                 1.7179
 IR Inten    --      5.3704                 0.4376                 6.3006

                     40                     41                     42
                      A                      A                      A
 Frequencies --   1255.4253              1298.8250              1318.4267
 Red. masses --      1.4224                 1.7468                 1.3583
 Frc consts  --      1.3208                 1.7362                 1.3911
 IR Inten    --      5.1582                13.1363                 5.5672

                     43                     44                     45
                      A                      A                      A
 Frequencies --   1335.1924              1345.2739              1369.0692
 Red. masses --      1.3382                 1.2999                 1.3606
 Frc consts  --      1.4056                 1.3860                 1.5026
 IR Inten    --      1.4143                 6.1202                21.0452

                     46                     47                     48
                      A                      A                      A
 Frequencies --   1385.5105              1402.7996              1411.5957
 Red. masses --      1.3516                 1.5223                 1.4696
 Frc consts  --      1.5286                 1.7650                 1.7253
 IR Inten    --      1.0638                19.6388                10.3182

                     49                     50                     51
                      A                      A                      A
 Frequencies --   1435.6618              1439.1061              1494.4295
 Red. masses --      1.2728                 1.4735                 1.0872
 Frc consts  --      1.5457                 1.7980                 1.4306
 IR Inten    --      8.4993                14.1728                 2.4280

                     52                     53                     54
                      A                      A                      A
 Frequencies --   1502.9181              1523.6410              1527.4384
 Red. masses --      1.0914                 1.0818                 1.0468
 Frc consts  --      1.4525                 1.4797                 1.4390
 IR Inten    --      2.1918                 3.1761                 5.2159

                     55                     56                     57
                      A                      A                      A
 Frequencies --   1533.1938              1536.5623              1541.0270
 Red. masses --      1.0586                 1.3430                 1.0822
 Frc consts  --      1.4662                 1.8683                 1.5142
 IR Inten    --      0.6507                 1.4880                 1.2632

                     58                     59                     60
                      A                      A                      A
 Frequencies --   1556.1599              2925.2311              2957.8268
 Red. masses --      1.1067                 1.0729                 1.0723
 Frc consts  --      1.5790                 5.4094                 5.5275
 IR Inten    --      4.8487                68.0900                73.4607

                     61                     62                     63
                      A                      A                      A
 Frequencies --   3018.4845              3040.5766              3059.1705
 Red. masses --      1.0610                 1.0351                 1.1025
 Frc consts  --      5.6955                 5.6383                 6.0791
 IR Inten    --     44.1763                27.7409                17.9529

                     64                     65                     66
                      A                      A                      A
 Frequencies --   3060.9701              3065.1475              3070.3192
 Red. masses --      1.0814                 1.0775                 1.0879
 Frc consts  --      5.9695                 5.9647                 6.0423
 IR Inten    --     25.4357                36.4329                59.0534

                     67                     68                     69
                      A                      A                      A
 Frequencies --   3077.3593              3105.3935              3112.2674
 Red. masses --      1.0778                 1.1025                 1.1052
 Frc consts  --      6.0137                 6.2639                 6.3075
 IR Inten    --     28.9298                46.0671                17.1177

                     70                     71                     72
                      A                      A                      A
 Frequencies --   3118.2636              3138.4329              3142.3525
 Red. masses --      1.1026                 1.0509                 1.0584
 Frc consts  --      6.3166                 6.0987                 6.1578
 IR Inten    --     61.0992                25.1180                17.9795

                     73                     74                     75
                      A                      A                      A
 Frequencies --   3157.1767              3212.0947              3226.6112
 Red. masses --      1.0892                 1.1188                 1.1154
 Frc consts  --      6.3968                 6.8009                 6.8421
 IR Inten    --     13.6708                 0.4045                28.7858

 - Thermochemistry -
 -------------------
 Temperature   298.150 Kelvin.  Pressure   1.00000 Atm.
 Atom     1 has atomic number  6 and mass  12.00000

 Molecular mass:   139.13610 amu.
 Principal axes and moments of inertia in atomic units:
                           1         2         3
     Eigenvalues --   523.355622678.911312901.42533
           X            0.99999   0.00344  -0.00076
           Y           -0.00344   0.99999   0.00380
           Z            0.00078  -0.00379   0.99999
 This molecule is an asymmetric top.
 Rotational symmetry number  1.
 Warning -- assumption of classical behavior for rotation
           may cause significant error
 Rotational temperatures (Kelvin)      0.16550     0.03233     0.02985
 Rotational constants (GHZ):           3.44840     0.67368     0.62202
 Zero-point vibrational energy     656059.8 (Joules/Mol)
                                  156.80207 (Kcal/Mol)
 Warning -- explicit consideration of  12 degrees of freedom as
           vibrations may cause significant error
 Vibrational temperatures:     58.44   104.37   129.52   159.86   281.58
          (Kelvin)            387.10   411.76   438.44   517.19   568.44
                              582.02   644.55   928.34   964.45  1124.86
                             1167.53  1177.85  1206.10  1218.69  1287.65
                             1308.64  1353.08  1377.37  1393.79  1437.59
                             1464.65  1477.23  1512.81  1533.79  1558.21
                             1622.87  1652.22  1657.13  1667.75  1710.07
                             1742.72  1744.28  1777.09  1791.28  1806.28
                             1868.72  1896.92  1921.04  1935.55  1969.79
                             1993.44  2018.32  2030.97  2065.60  2070.55
                             2150.15  2162.36  2192.18  2197.64  2205.92
                             2210.77  2217.19  2238.97  4208.76  4255.65
                             4342.93  4374.71  4401.46  4404.05  4410.06
                             4417.50  4427.63  4467.97  4477.86  4486.49
                             4515.50  4521.14  4542.47  4621.49  4642.37

 Zero-point correction=                           0.249880 (Hartree/Particle)
 Thermal correction to Energy=                    0.260289
 Thermal correction to Enthalpy=                  0.261233
 Thermal correction to Gibbs Free Energy=         0.213376
 Sum of electronic and zero-point Energies=           -407.697280
 Sum of electronic and thermal Energies=              -407.686871
 Sum of electronic and thermal Enthalpies=            -407.685927
 Sum of electronic and thermal Free Energies=         -407.733784

                     E (Thermal)             CV                S
                      KCal/Mol        Cal/Mol-Kelvin    Cal/Mol-Kelvin
 Total                  163.334             39.653            100.724
 Electronic               0.000              0.000              0.000
 Translational            0.889              2.981             40.703
 Rotational               0.889              2.981             29.788
 Vibrational            161.556             33.691             30.234
 Vibration     1          0.594              1.981              5.229
 Vibration     2          0.599              1.967              4.083
 Vibration     3          0.602              1.956              3.660
 Vibration     4          0.607              1.940              3.249
 Vibration     5          0.636              1.846              2.173
 Vibration     6          0.673              1.730              1.602
 Vibration     7          0.684              1.699              1.496
 Vibration     8          0.696              1.665              1.391
 Vibration     9          0.734              1.556              1.124
 Vibration    10          0.762              1.481              0.981
 Vibration    11          0.770              1.460              0.946
 Vibration    12          0.807              1.365              0.802

 Optimization completed.
    -- Stationary point found.

 1\1\GINC-NODE371\Freq\RB3LYP\6-31G(d)\C9H17N1\VSC10255\08-Dec-2020\0\\
 #N Geom=AllCheck Guess=TCheck SCRF=Check GenChk RB3LYP/6-31G(d) Freq\\
 CID_66698418_JID_495_neutraal\\0,1\C,1.7137089037,0.4869480442,-0.1388
 351847\C,0.2968521783,0.7977558009,0.3496566981\C,0.3020421119,1.50814
 74784,1.739383433\C,-0.3748504821,2.8678685455,1.4903635178\N,-0.13275
 15937,3.0965831453,0.0692262161\C,-0.4169518183,1.8157395727,-0.567284
 0593\C,-0.7481327916,4.2728735786,-0.5256265707\C,-2.2642617344,4.3741
 475301,-0.4444766105\C,-2.9176470405,5.0299580145,0.7470996195\C,-2.91

 Normal termination of Gaussian 16 at Tue Dec  8 11:11:52 2020.

 ----------------------------------------------------------------------
 # B3LYP/6-311++G(d,p) empiricaldispersion=gd3bj scf=xqc pop=npa geom=c
 heck
 ----------------------------------------------------------------------

 -------------------------------------
 CID_66698418_JID_495_Energie_neutraal
 -------------------------------------
 Structure from the checkpoint file:  "JID_495.chk"
 Charge =  0 Multiplicity = 1

 SCF Done:  E(RB3LYP) =  -408.058244509     A.U. after   12 cycles
 Normal termination of Gaussian 16 at Tue Dec  8 11:13:45 2020.

 ----------------------------------------------------------------------
 # B3LYP/6-311++G(d,p) empiricaldispersion=gd3bj scf=xqc pop=npa geom=c
 heck
 ----------------------------------------------------------------------

 -----------------------------------
 CID_66698418_JID_495_Energie_kation
 -----------------------------------
 Structure from the checkpoint file:  "JID_495.chk"
 Charge =  1 Multiplicity = 2

 SCF Done:  E(UB3LYP) =  -407.773285149     A.U. after   18 cycles
 Normal termination of Gaussian 16 at Tue Dec  8 11:17:27 2020.
 Gaussian 16:  ES64L-G16RevA.03 25-Dec-2016

 ----------------------------------
 CID_66698418_JID_495_Energie_anion
 ----------------------------------
 Structure from the checkpoint file:  "JID_495.chk"
 Charge = -1 Multiplicity = 2

                         Standard orientation:
 ---------------------------------------------------------------------
 Center     Atomic      Atomic             Coordinates (Angstroms)
 Number     Number       Type             X           Y           Z
 ---------------------------------------------------------------------
      1          6           0       -3.415726   -0.733124    0.233530
      2          6           0       -2.332136   -0.042201   -0.597835
      3          6           0       -1.929502    1.340852    0.003057
      4          6           0       -0.431312    1.208298    0.330002
      5          7           0       -0.264392   -0.230001    0.514357
      6          6           0       -1.005985   -0.834523   -0.586128
      7          6           0        1.088864   -0.715841    0.735403
      8          6           0        2.115101   -0.416262   -0.347454
      9          6           0        2.911291    0.864769   -0.303939
     10          6           0        3.581088   -0.450076    0.007662
     11          1           0       -3.709502   -1.692944   -0.208000
     12          1           0       -4.314197   -0.109568    0.312086
     13          1           0       -3.043639   -0.922511    1.247030
     14          1           0       -2.688771    0.073444   -1.627438
     15          1           0       -2.122525    2.167929   -0.686930
     16          1           0       -2.504943    1.533061    0.914600
     17          1           0       -0.131047    1.748422    1.235763
     18          1           0        0.178447    1.596291   -0.505946
     19          1           0       -1.148328   -1.907259   -0.408470
     20          1           0       -0.489355   -0.721824   -1.559371
     21          1           0        1.449053   -0.290403    1.683334
     22          1           0        1.024622   -1.802225    0.884720
     23          1           0        1.859290   -0.787053   -1.338043
     24          1           0        3.151867    1.360491   -1.240404
     25          1           0        2.724057    1.546309    0.522525
     26          1           0        3.844284   -0.654245    1.043220
     27          1           0        4.281328   -0.859251   -0.714969
 ---------------------------------------------------------------------

 SCF Done:  E(UB3LYP) =  -408.038784254     A.U. after   31 cycles

 The electronic state is 2-A.
 Alpha  occ. eigenvalues --  -14.19248 -10.08975 -10.07972 -10.07868 -10.07112
 Alpha  occ. eigenvalues --  -10.06932 -10.06716 -10.06524 -10.05605 -10.04997
 Alpha  occ. eigenvalues --   -0.82763  -0.75587  -0.68671  -0.62786  -0.59470
 Alpha  occ. eigenvalues --   -0.55227  -0.49963  -0.48712  -0.46138  -0.44927
 Alpha  occ. eigenvalues --   -0.40307  -0.37915  -0.37601  -0.35000  -0.33616
 Alpha  occ. eigenvalues --   -0.31512  -0.31295  -0.28479  -0.27463  -0.26534
 Alpha  occ. eigenvalues --   -0.25699  -0.25366  -0.24960  -0.21988  -0.21769
 Alpha  occ. eigenvalues --   -0.21461  -0.19520  -0.18395  -0.10694   0.04867
 Alpha virt. eigenvalues --    0.06817   0.07576   0.07881   0.08868   0.09321
 Alpha virt. eigenvalues --    0.09446   0.10425   0.10716   0.11683   0.11987
 Alpha virt. eigenvalues --    0.12183   0.13094   0.13316   0.14530   0.15375

  Beta  occ. eigenvalues --  -14.19242 -10.08964 -10.07958 -10.07847 -10.07100
  Beta  occ. eigenvalues --  -10.06912 -10.06694 -10.06511 -10.05587 -10.04971
  Beta  occ. eigenvalues --   -0.82744  -0.75564  -0.68639  -0.62754  -0.59433
  Beta  occ. eigenvalues --   -0.55177  -0.49897  -0.48663  -0.46090  -0.44874
  Beta  occ. eigenvalues --   -0.40262  -0.37883  -0.37539  -0.34961  -0.33586
  Beta  occ. eigenvalues --   -0.31484  -0.31257  -0.28452  -0.27430  -0.26504
  Beta  occ. eigenvalues --   -0.25664  -0.25341  -0.24924  -0.21955  -0.21731
  Beta  occ. eigenvalues --   -0.21426  -0.19490  -0.18367  -0.10658
  Beta virt. eigenvalues --    0.07070   0.07722   0.08321   0.08489   0.09523
  Beta virt. eigenvalues --    0.09845   0.09957   0.10981   0.11202   0.12213
  Beta virt. eigenvalues --    0.12468   0.12585   0.13400   0.13614   0.14910

 Mulliken charges and spin densities:
               1          2
     1  C    1.542073  -2.214863
     2  C   -2.826515   3.170237
     3  C    1.209163  -1.804807
     4  C   -0.387020   0.129838
     5  N    0.097141   0.128597
     6  C    1.190895  -1.660489
     7  C    1.101272  -1.752719
     8  C   -1.689843   2.148021
     9  C    0.600254  -1.012202
    10  C    1.058093  -1.563733
    11  H   -0.174564   0.292462
    12  H   -0.409577   0.547085
    13  H    0.066906   0.087084
    14  H   -0.587299   0.790536
    15  H   -0.249071   0.386143
    16  H   -0.087910   0.232847
    17  H   -0.178744   0.329512
    18  H    0.094156   0.046008
    19  H   -0.249225   0.426348
    20  H   -0.016997   0.095437
    21  H   -0.178713   0.352546
    22  H    0.141045  -0.003514
    23  H   -0.398444   0.628504
    24  H   -0.280491   0.429114
    25  H   -0.058247   0.202126
    26  H   -0.060702   0.170650
    27  H   -0.267638   0.419229
 Sum of Mulliken charges =  -1.00000   1.00000

 Dipole moment (field-independent basis, Debye):
    X=              1.2176    Y=             -0.4524    Z=              2.7064  Tot=              3.0020
 Quadrupole moment (field-independent basis, Debye-Ang):
   XX=           -141.4278   YY=           -100.2441   ZZ=           -100.5382
   XY=             -1.5755   XZ=              1.9622   YZ=             -0.8586

 Summary of Natural Population Analysis:

                                       Natural Population
                Natural  -----------------------------------------------
    Atom  No    Charge         Core      Valence    Rydberg      Total
 -----------------------------------------------------------------------
      C    1   -0.28259      0.99965     2.27645    0.00649     3.28259
      C    2   -0.11570      0.99961     2.10486    0.01122     3.11570
      C    3   -0.18927      0.99962     2.18103    0.00862     3.18927
      C    4   -0.08389      0.99962     2.07351    0.01076     3.08389
      N    5   -0.28206      0.99972     2.76930    0.01303     3.78206
      C    6   -0.08160      0.99960     2.07043    0.01157     3.08160
      C    7   -0.07791      0.99959     2.06687    0.01144     3.07791
      C    8   -0.12738      0.99959     2.11750    0.01029     3.12738
      C    9   -0.19824      0.99962     2.18873    0.00990     3.19824
      C   10   -0.19924      0.99962     2.19174    0.00788     3.19924
      H   11    0.09700      0.00000     0.40192    0.00109     0.40300
      H   12    0.09758      0.00000     0.40125    0.00117     0.40242
      H   13    0.09855      0.00000     0.39978    0.00167     0.40145
      H   14    0.09708      0.00000     0.40111    0.00181     0.40292
      H   15    0.10031      0.00000     0.39849    0.00121     0.39969
      H   16    0.09603      0.00000     0.40263    0.00134     0.40397
      H   17    0.09403      0.00000     0.40463    0.00133     0.40597
      H   18    0.08275      0.00000     0.41536    0.00189     0.41725
      H   19    0.09530      0.00000     0.40319    0.00151     0.40470
      H   20    0.08205      0.00000     0.41573    0.00223     0.41795
      H   21    0.09214      0.00000     0.40634    0.00152     0.40786
      H   22    0.09518      0.00000     0.40361    0.00122     0.40482
      H   23    0.10523      0.00000     0.39310    0.00167     0.39477
      H   24    0.10412      0.00000     0.39443    0.00144     0.39588
      H   25    0.09984      0.00000     0.39889    0.00128     0.40016
      H   26    0.09784      0.00000     0.40110    0.00107     0.40216
      H   27    0.10286      0.00000     0.39590    0.00124     0.39714
 =======================================================================
   * Total *    0.00000      9.99625    28.87787    0.12588    39.00000

 Normal termination of Gaussian 16 at Tue Dec  8 11:23:09 2020.
