 Gaussian 16, Revision A.03,

 -----------------------------------------------------------
 # opt freq B3LYP/6-31G(d) empiricaldispersion=gd3bj scf=xqc
 -----------------------------------------------------------

 ------------------------------
 CID_68248727_JID_3406_neutraal
 ------------------------------
 Symbolic Z-matrix:
 Charge =  0 Multiplicity = 1

 SCF Done:  E(RB3LYP) =  -560.631609952     A.U. after   15 cycles
 SCF Done:  E(RB3LYP) =  -560.635681951     A.U. after   12 cycles
 SCF Done:  E(RB3LYP) =  -560.635537708     A.U. after   11 cycles
 SCF Done:  E(RB3LYP) =  -560.635908448     A.U. after   12 cycles
 SCF Done:  E(RB3LYP) =  -560.636480368     A.U. after   10 cycles
 SCF Done:  E(RB3LYP) =  -560.636525315     A.U. after   11 cycles
 SCF Done:  E(RB3LYP) =  -560.636633350     A.U. after   11 cycles
 SCF Done:  E(RB3LYP) =  -560.636707756     A.U. after   10 cycles
 SCF Done:  E(RB3LYP) =  -560.636811550     A.U. after   11 cycles
 SCF Done:  E(RB3LYP) =  -560.636847191     A.U. after   11 cycles
 SCF Done:  E(RB3LYP) =  -560.636854459     A.U. after    9 cycles
 SCF Done:  E(RB3LYP) =  -560.636856364     A.U. after    8 cycles
 SCF Done:  E(RB3LYP) =  -560.636856701     A.U. after    7 cycles
 Optimization completed.
    -- Stationary point found.
 Normal termination of Gaussian 16 at Wed Dec  9 23:12:14 2020.

 --------------------------------------------------------------------
 #N Geom=AllCheck Guess=TCheck SCRF=Check GenChk RB3LYP/6-31G(d) Freq
 --------------------------------------------------------------------

 Structure from the checkpoint file:  "JID_3406.chk"
 ------------------------------
 CID_68248727_JID_3406_neutraal
 ------------------------------
 Charge =  0 Multiplicity = 1

 SCF Done:  E(RB3LYP) =  -560.636856701     A.U. after    1 cycles

  Exact polarizability: 139.467  -2.011 112.471  -3.341   3.182 106.442
 Approx polarizability: 175.082  -4.620 164.018 -10.705  13.518 166.678

                      1                      2                      3
                      A                      A                      A
 Frequencies --     39.8196                63.0884                76.5717
 Red. masses --      5.0597                 2.9712                 3.3747
 Frc consts  --      0.0047                 0.0070                 0.0117
 IR Inten    --      1.7843                 0.1183                 1.1319

                      4                      5                      6
                      A                      A                      A
 Frequencies --    102.5242               167.8093               194.7528
 Red. masses --      2.3696                 3.4749                 2.9157
 Frc consts  --      0.0147                 0.0577                 0.0652
 IR Inten    --      0.0525                 0.2590                 0.8526

                      7                      8                      9
                      A                      A                      A
 Frequencies --    211.7078               247.5619               263.8314
 Red. masses --      2.4329                 1.5458                 1.7027
 Frc consts  --      0.0642                 0.0558                 0.0698
 IR Inten    --      1.2428                 0.5376                 1.9560

                     10                     11                     12
                      A                      A                      A
 Frequencies --    276.8925               318.4294               332.1165
 Red. masses --      2.5757                 1.8561                 2.1328
 Frc consts  --      0.1164                 0.1109                 0.1386
 IR Inten    --      1.0619                 0.2178                 1.8334

                     13                     14                     15
                      A                      A                      A
 Frequencies --    378.8874               408.2644               434.0034
 Red. masses --      4.2942                 1.7598                 3.4550
 Frc consts  --      0.3632                 0.1728                 0.3834
 IR Inten    --      7.3702                 3.7456                 4.9458

                     16                     17                     18
                      A                      A                      A
 Frequencies --    450.8457               497.0630               534.1983
 Red. masses --      2.7650                 2.9195                 2.3392
 Frc consts  --      0.3311                 0.4250                 0.3933
 IR Inten    --      0.5714                 2.4148                 5.9724

                     19                     20                     21
                      A                      A                      A
 Frequencies --    595.4867               679.7637               745.2044
 Red. masses --      2.7349                 3.7071                 3.6373
 Frc consts  --      0.5714                 1.0092                 1.1901
 IR Inten    --      1.5299                 3.7833                 3.2068

                     22                     23                     24
                      A                      A                      A
 Frequencies --    784.8638               796.8061               825.3454
 Red. masses --      1.4857                 1.2180                 1.5817
 Frc consts  --      0.5392                 0.4556                 0.6348
 IR Inten    --      3.1834                 0.3632                 0.2779

                     25                     26                     27
                      A                      A                      A
 Frequencies --    831.2616               859.1953               872.2050
 Red. masses --      1.9764                 2.1640                 1.4131
 Frc consts  --      0.8046                 0.9412                 0.6334
 IR Inten    --      2.3759                 0.7223                 9.2535

                     28                     29                     30
                      A                      A                      A
 Frequencies --    911.7969               933.4012               946.1633
 Red. masses --      2.2386                 1.8194                 3.2297
 Frc consts  --      1.0965                 0.9340                 1.7035
 IR Inten    --      1.1115                 0.7957                 6.7111

                     31                     32                     33
                      A                      A                      A
 Frequencies --    964.5278               968.7258               980.5922
 Red. masses --      1.5293                 2.6799                 1.3260
 Frc consts  --      0.8383                 1.4818                 0.7512
 IR Inten    --      7.4827                 7.5094                 2.8479

                     34                     35                     36
                      A                      A                      A
 Frequencies --   1031.6739              1040.3794              1054.0694
 Red. masses --      1.8298                 2.4981                 2.0473
 Frc consts  --      1.1475                 1.5931                 1.3402
 IR Inten    --     16.3338                19.7246                 2.9321

                     37                     38                     39
                      A                      A                      A
 Frequencies --   1065.1878              1087.9604              1091.8008
 Red. masses --      1.2964                 1.6206                 1.4249
 Frc consts  --      0.8666                 1.1302                 1.0008
 IR Inten    --      8.4602                 0.1911                 4.1629

                     40                     41                     42
                      A                      A                      A
 Frequencies --   1100.0253              1138.0527              1157.7179
 Red. masses --      1.9222                 1.9144                 2.0874
 Frc consts  --      1.3704                 1.4608                 1.6484
 IR Inten    --      1.7564                 4.8917                24.3583

                     43                     44                     45
                      A                      A                      A
 Frequencies --   1168.1455              1195.0954              1204.1463
 Red. masses --      1.7864                 1.2657                 1.3196
 Frc consts  --      1.4363                 1.0651                 1.1273
 IR Inten    --     35.8754                 3.0761                 0.4368

                     46                     47                     48
                      A                      A                      A
 Frequencies --   1244.6359              1284.1486              1294.5010
 Red. masses --      1.8553                 2.3945                 1.5885
 Frc consts  --      1.6934                 2.3265                 1.5683
 IR Inten    --     93.1434                 8.6332                21.9421

                     49                     50                     51
                      A                      A                      A
 Frequencies --   1302.2916              1313.2128              1325.6115
 Red. masses --      1.3431                 2.0513                 1.2211
 Frc consts  --      1.3420                 2.0842                 1.2643
 IR Inten    --      2.0794                47.6473                22.9097

                     52                     53                     54
                      A                      A                      A
 Frequencies --   1368.9061              1372.8191              1393.3172
 Red. masses --      1.5415                 1.3197                 1.6276
 Frc consts  --      1.7019                 1.4654                 1.8617
 IR Inten    --      7.8158                 1.0483                 7.2967

                     55                     56                     57
                      A                      A                      A
 Frequencies --   1398.2927              1403.2103              1404.5713
 Red. masses --      1.3531                 1.4496                 1.5153
 Frc consts  --      1.5588                 1.6817                 1.7613
 IR Inten    --      2.1861                 1.0403                10.0307

                     58                     59                     60
                      A                      A                      A
 Frequencies --   1424.9560              1439.6556              1475.5550
 Red. masses --      1.3991                 1.2484                 2.7321
 Frc consts  --      1.6737                 1.5245                 3.5047
 IR Inten    --      8.4391                 3.5893               173.6061

                     61                     62                     63
                      A                      A                      A
 Frequencies --   1494.5974              1507.3688              1512.3652
 Red. masses --      1.0912                 1.0924                 1.0776
 Frc consts  --      1.4361                 1.4624                 1.4521
 IR Inten    --      3.2265                 1.2821                 2.5463

                     64                     65                     66
                      A                      A                      A
 Frequencies --   1514.0980              1515.6915              1519.9563
 Red. masses --      1.0962                 1.0925                 1.1027
 Frc consts  --      1.4807                 1.4788                 1.5010
 IR Inten    --      4.3208                10.1747                 3.5639

                     67                     68                     69
                      A                      A                      A
 Frequencies --   1531.5739              1533.4825              1535.0881
 Red. masses --      1.0799                 1.1135                 1.2511
 Frc consts  --      1.4925                 1.5428                 1.7371
 IR Inten    --     10.1124                10.7952                 2.1140

                     70                     71                     72
                      A                      A                      A
 Frequencies --   1539.4718              1736.3447              2996.4772
 Red. masses --      1.0695                11.1414                 1.0746
 Frc consts  --      1.4935                19.7907                 5.6847
 IR Inten    --      4.3088               262.7305                30.0250

                     73                     74                     75
                      A                      A                      A
 Frequencies --   3006.9407              3025.3704              3041.0719
 Red. masses --      1.0735                 1.0681                 1.0617
 Frc consts  --      5.7188                 5.7601                 5.7849
 IR Inten    --     50.5495                35.9296                25.8525

                     76                     77                     78
                      A                      A                      A
 Frequencies --   3045.4191              3047.8093              3050.7260
 Red. masses --      1.0607                 1.0465                 1.0505
 Frc consts  --      5.7963                 5.7276                 5.7604
 IR Inten    --     27.3869                10.4648                39.6985

                     79                     80                     81
                      A                      A                      A
 Frequencies --   3080.3637              3081.2701              3088.7074
 Red. masses --      1.1012                 1.0939                 1.1042
 Frc consts  --      6.1566                 6.1192                 6.2068
 IR Inten    --      9.3061                55.0730                27.2357

                     82                     83                     84
                      A                      A                      A
 Frequencies --   3094.7968              3114.8894              3123.4633
 Red. masses --      1.1045                 1.1017                 1.1021
 Frc consts  --      6.2330                 6.2979                 6.3347
 IR Inten    --     76.4503                43.5910                37.0434

                     85                     86                     87
                      A                      A                      A
 Frequencies --   3136.7918              3151.1141              3170.9355
 Red. masses --      1.0541                 1.0563                 1.0904
 Frc consts  --      6.1106                 6.1799                 6.4597
 IR Inten    --     16.5780                16.3268                 3.9188

                     88                     89                     90
                      A                      A                      A
 Frequencies --   3192.1535              3214.7955              3235.3457
 Red. masses --      1.0885                 1.1175                 1.1163
 Frc consts  --      6.5351                 6.8048                 6.8844
 IR Inten    --     10.7322                 4.7728                14.6909

 - Thermochemistry -
 -------------------
 Temperature   298.150 Kelvin.  Pressure   1.00000 Atm.
 Atom     1 has atomic number  6 and mass  12.00000

 Molecular mass:   181.14666 amu.
 Principal axes and moments of inertia in atomic units:
                           1         2         3
     Eigenvalues --  1389.325233183.216503547.41187
           X            0.99994   0.01081   0.00048
           Y           -0.01077   0.99831  -0.05703
           Z           -0.00110   0.05702   0.99837
 This molecule is an asymmetric top.
 Rotational symmetry number  1.
 Warning -- assumption of classical behavior for rotation
           may cause significant error
 Rotational temperatures (Kelvin)      0.06234     0.02721     0.02442
 Rotational constants (GHZ):           1.29901     0.56696     0.50875
 Zero-point vibrational energy     761495.6 (Joules/Mol)
                                  182.00182 (Kcal/Mol)
 Warning -- explicit consideration of  19 degrees of freedom as
           vibrations may cause significant error
 Vibrational temperatures:     57.29    90.77   110.17   147.51   241.44
          (Kelvin)            280.21   304.60   356.19   379.59   398.39
                              458.15   477.84   545.13   587.40   624.43
                              648.67   715.16   768.59   856.77   978.03
                             1072.18  1129.24  1146.43  1187.49  1196.00
                             1236.19  1254.91  1311.87  1342.96  1361.32
                             1387.74  1393.78  1410.85  1484.35  1496.87
                             1516.57  1532.57  1565.33  1570.86  1582.69
                             1637.40  1665.70  1680.70  1719.48  1732.50
                             1790.75  1847.60  1862.50  1873.71  1889.42
                             1907.26  1969.55  1975.18  2004.67  2011.83
                             2018.91  2020.86  2050.19  2071.34  2122.99
                             2150.39  2168.77  2175.96  2178.45  2180.74
                             2186.88  2203.59  2206.34  2208.65  2214.96
                             2498.21  4311.26  4326.32  4352.83  4375.42
                             4381.68  4385.12  4389.31  4431.96  4433.26
                             4443.96  4452.72  4481.63  4493.97  4513.14
                             4533.75  4562.27  4592.80  4625.37  4654.94

 Zero-point correction=                           0.290038 (Hartree/Particle)
 Thermal correction to Energy=                    0.303103
 Thermal correction to Enthalpy=                  0.304047
 Thermal correction to Gibbs Free Energy=         0.250507
 Sum of electronic and zero-point Energies=           -560.346818
 Sum of electronic and thermal Energies=              -560.333753
 Sum of electronic and thermal Enthalpies=            -560.332809
 Sum of electronic and thermal Free Energies=         -560.386350

                     E (Thermal)             CV                S
                      KCal/Mol        Cal/Mol-Kelvin    Cal/Mol-Kelvin
 Total                  190.200             50.768            112.686
 Electronic               0.000              0.000              0.000
 Translational            0.889              2.981             41.489
 Rotational               0.889              2.981             31.129
 Vibrational            188.423             44.806             40.068
 Vibration     1          0.594              1.981              5.268
 Vibration     2          0.597              1.972              4.358
 Vibration     3          0.599              1.965              3.977
 Vibration     4          0.605              1.947              3.406
 Vibration     5          0.625              1.882              2.460
 Vibration     6          0.635              1.847              2.182
 Vibration     7          0.643              1.823              2.029
 Vibration     8          0.661              1.767              1.748
 Vibration     9          0.670              1.739              1.636
 Vibration    10          0.678              1.716              1.553
 Vibration    11          0.705              1.638              1.318
 Vibration    12          0.714              1.611              1.250
 Vibration    13          0.749              1.515              1.044
 Vibration    14          0.773              1.452              0.933
 Vibration    15          0.795              1.396              0.846
 Vibration    16          0.810              1.359              0.793
 Vibration    17          0.853              1.257              0.666
 Vibration    18          0.889              1.174              0.578
 Vibration    19          0.953              1.041              0.457

                           ! Non-Optimized Parameters !
 Normal termination of Gaussian 16 at Wed Dec  9 23:22:39 2020.

 ----------------------------------------------------------------------
 # B3LYP/6-311++G(d,p) empiricaldispersion=gd3bj scf=xqc pop=npa geom=c
 heck
 ----------------------------------------------------------------------

 --------------------------------------
 CID_68248727_JID_3406_Energie_neutraal
 --------------------------------------
 Structure from the checkpoint file:  "JID_3406.chk"
 Charge =  0 Multiplicity = 1

 SCF Done:  E(RB3LYP) =  -560.791334419     A.U. after   14 cycles
 Normal termination of Gaussian 16 at Wed Dec  9 23:27:23 2020.

 ----------------------------------------------------------------------
 # B3LYP/6-311++G(d,p) empiricaldispersion=gd3bj scf=xqc pop=npa geom=c
 heck
 ----------------------------------------------------------------------

 ------------------------------------
 CID_68248727_JID_3406_Energie_kation
 ------------------------------------
 Structure from the checkpoint file:  "JID_3406.chk"
 Charge =  1 Multiplicity = 2

 SCF Done:  E(UB3LYP) =  -560.481428625     A.U. after   25 cycles
 Normal termination of Gaussian 16 at Wed Dec  9 23:39:29 2020.
 Gaussian 16:  ES64L-G16RevA.03 25-Dec-2016

 ----------------------------------------------------------------------
 # B3LYP/6-311++G(d,p) empiricaldispersion=gd3bj scf=xqc pop=npa geom=c
 heck
 ----------------------------------------------------------------------

 -----------------------------------
 CID_68248727_JID_3406_Energie_anion
 -----------------------------------
 Structure from the checkpoint file:  "JID_3406.chk"
 Charge = -1 Multiplicity = 2

                         Standard orientation:
 ---------------------------------------------------------------------
 Center     Atomic      Atomic             Coordinates (Angstroms)
 Number     Number       Type             X           Y           Z
 ---------------------------------------------------------------------
      1          6           0        1.299911    2.061758   -1.185689
      2          6           0        2.277899    0.905589   -0.963422
      3          6           0        1.838057   -0.114008    0.082108
      4          6           0        2.927780   -0.937796    0.721177
      5          6           0        2.199981    0.100838    1.535461
      6          6           0        0.596933   -0.897631   -0.316981
      7          8           0        0.703010   -1.798959   -1.146429
      8          7           0       -0.612511   -0.581899    0.255558
      9          6           0       -1.774956   -1.415711   -0.055380
     10          6           0       -2.894325   -0.592240   -0.697368
     11          6           0       -3.268231    0.596517    0.195904
     12          6           0       -2.024144    1.432695    0.516442
     13          6           0       -0.899897    0.569532    1.106461
     14          1           0        0.328768    1.695544   -1.535404
     15          1           0        1.683231    2.756334   -1.941057
     16          1           0        1.134148    2.630334   -0.263036
     17          1           0        2.432197    0.367816   -1.906937
     18          1           0        3.255633    1.304521   -0.663625
     19          1           0        2.717560   -1.984460    0.917900
     20          1           0        3.950825   -0.737622    0.413904
     21          1           0        2.718915    1.020126    1.798281
     22          1           0        1.515870   -0.254699    2.300930
     23          1           0       -2.139764   -1.862397    0.882794
     24          1           0       -1.431197   -2.214704   -0.710735
     25          1           0       -3.764625   -1.235740   -0.874281
     26          1           0       -2.550998   -0.231292   -1.675693
     27          1           0       -4.033623    1.218505   -0.282821
     28          1           0       -3.705189    0.220834    1.132895
     29          1           0       -1.657998    1.910349   -0.400762
     30          1           0       -2.264601    2.234649    1.225371
     31          1           0        0.003666    1.160557    1.229966
     32          1           0       -1.203365    0.209046    2.102561
 ---------------------------------------------------------------------

 SCF Done:  E(UB3LYP) =  -560.776793285     A.U. after   31 cycles

 The electronic state is 2-A.
 Alpha  occ. eigenvalues --  -18.98042 -14.23967 -10.16725 -10.10077 -10.09663
 Alpha  occ. eigenvalues --  -10.09320 -10.07772 -10.07683 -10.07680 -10.06920
 Alpha  occ. eigenvalues --  -10.06549 -10.06490 -10.06245  -0.93393  -0.83642
 Alpha  occ. eigenvalues --   -0.77426  -0.69908  -0.66712  -0.66137  -0.58847
 Alpha  occ. eigenvalues --   -0.54973  -0.53715  -0.50916  -0.50544  -0.47354
 Alpha  occ. eigenvalues --   -0.43618  -0.40963  -0.38525  -0.37153  -0.36268
 Alpha  occ. eigenvalues --   -0.35142  -0.34466  -0.33710  -0.32749  -0.31962
 Alpha  occ. eigenvalues --   -0.30349  -0.29104  -0.28624  -0.28024  -0.26848
 Alpha  occ. eigenvalues --   -0.26114  -0.25359  -0.25161  -0.23584  -0.22640
 Alpha  occ. eigenvalues --   -0.22469  -0.20288  -0.19033  -0.14992  -0.13941
 Alpha  occ. eigenvalues --    0.04526
 Alpha virt. eigenvalues --    0.06530   0.07177   0.07773   0.08544   0.09133
 Alpha virt. eigenvalues --    0.09217   0.10318   0.10541   0.10799   0.11285
 Alpha virt. eigenvalues --    0.11829   0.12006   0.12596   0.12864   0.13639

  Beta  occ. eigenvalues --  -18.98027 -14.23975 -10.16708 -10.10055 -10.09650
  Beta  occ. eigenvalues --  -10.09321 -10.07741 -10.07673 -10.07671 -10.06907
  Beta  occ. eigenvalues --  -10.06524 -10.06462 -10.06220  -0.93367  -0.83633
  Beta  occ. eigenvalues --   -0.77413  -0.69870  -0.66682  -0.66103  -0.58800
  Beta  occ. eigenvalues --   -0.54928  -0.53667  -0.50868  -0.50490  -0.47305
  Beta  occ. eigenvalues --   -0.43570  -0.40925  -0.38485  -0.37121  -0.36241
  Beta  occ. eigenvalues --   -0.35101  -0.34438  -0.33679  -0.32723  -0.31908
  Beta  occ. eigenvalues --   -0.30321  -0.29066  -0.28589  -0.27967  -0.26820
  Beta  occ. eigenvalues --   -0.26085  -0.25323  -0.25127  -0.23539  -0.22592
  Beta  occ. eigenvalues --   -0.22428  -0.20262  -0.19018  -0.14969  -0.13918
  Beta virt. eigenvalues --    0.06843   0.07376   0.07740   0.08548   0.09081
  Beta virt. eigenvalues --    0.09493   0.09749   0.10704   0.10905   0.10984
  Beta virt. eigenvalues --    0.11707   0.12200   0.12438   0.12785   0.13272

 Mulliken charges and spin densities:
               1          2
     1  C    0.465812  -1.110221
     2  C   -1.198849   0.906633
     3  C    0.161424   0.815446
     4  C   -0.249405   0.021535
     5  C    0.983378  -1.413934
     6  C    0.079680  -0.886467
     7  O   -0.310156   0.012878
     8  N   -0.007644   0.159534
     9  C    0.065886  -0.300992
    10  C    0.134680  -0.365431
    11  C    0.563779  -0.941865
    12  C    0.044341  -0.267693
    13  C    0.074710  -0.492683
    14  H    0.163697  -0.010908
    15  H   -0.250967   0.407390
    16  H   -0.219661   0.382931
    17  H    0.160283   0.028064
    18  H   -0.075687   0.212038
    19  H    0.083648   0.095412
    20  H    0.074827   0.067331
    21  H   -0.363875   0.525549
    22  H   -0.035054   0.212369
    23  H   -0.190401   0.355833
    24  H    0.239615  -0.046940
    25  H   -0.155468   0.315091
    26  H    0.087597   0.056939
    27  H   -0.612848   0.785597
    28  H    0.002221   0.135171
    29  H    0.151559  -0.041773
    30  H   -0.713286   0.893536
    31  H    0.252241  -0.093787
    32  H   -0.406075   0.583417
 Sum of Mulliken charges =  -1.00000   1.00000

 Dipole moment (field-independent basis, Debye):
    X=              2.8693    Y=             -3.3057    Z=             -2.5743  Tot=              5.0782
 Quadrupole moment (field-independent basis, Debye-Ang):
   XX=           -145.1558   YY=           -129.5734   ZZ=           -122.4429
   XY=              2.1974   XZ=              3.4821   YZ=             -7.2113

 Summary of Natural Population Analysis:

                                       Natural Population
                Natural  -----------------------------------------------
    Atom  No    Charge         Core      Valence    Rydberg      Total
 -----------------------------------------------------------------------
      C    1   -0.28659      0.99966     2.28176    0.00517     3.28659
      C    2   -0.18182      0.99959     2.17308    0.00914     3.18182
      C    3   -0.08124      0.99950     2.06786    0.01388     3.08124
      C    4   -0.18318      0.99959     2.17462    0.00897     3.18318
      C    5   -0.19743      0.99959     2.18798    0.00986     3.19743
      C    6    0.35413      0.99956     1.62279    0.02352     2.64587
      O    7   -0.33091      0.99988     3.32622    0.00480     4.33091
      N    8   -0.25370      0.99964     2.74320    0.01086     3.75370
      C    9   -0.08768      0.99960     2.07769    0.01039     3.08768
      C   10   -0.19366      0.99963     2.18577    0.00827     3.19366
      C   11   -0.19006      0.99963     2.18201    0.00842     3.19006
      C   12   -0.19369      0.99962     2.18498    0.00909     3.19369
      C   13   -0.08466      0.99959     2.07343    0.01164     3.08466
      H   14    0.09704      0.00000     0.40143    0.00153     0.40296
      H   15    0.09897      0.00000     0.40017    0.00086     0.40103
      H   16    0.09932      0.00000     0.39922    0.00146     0.40068
      H   17    0.10173      0.00000     0.39719    0.00108     0.39827
      H   18    0.09613      0.00000     0.40263    0.00124     0.40387
      H   19    0.10557      0.00000     0.39362    0.00081     0.39443
      H   20    0.09956      0.00000     0.39957    0.00087     0.40044
      H   21    0.10564      0.00000     0.39263    0.00173     0.39436
      H   22    0.10674      0.00000     0.39195    0.00132     0.39326
      H   23    0.09061      0.00000     0.40816    0.00123     0.40939
      H   24    0.11583      0.00000     0.38300    0.00117     0.38417
      H   25    0.09984      0.00000     0.39921    0.00095     0.40016
      H   26    0.09550      0.00000     0.40311    0.00139     0.40450
      H   27    0.10087      0.00000     0.39763    0.00150     0.39913
      H   28    0.09535      0.00000     0.40256    0.00209     0.40465
      H   29    0.09455      0.00000     0.40372    0.00173     0.40545
      H   30    0.10512      0.00000     0.39262    0.00226     0.39488
      H   31    0.10951      0.00000     0.38828    0.00221     0.39049
      H   32    0.09261      0.00000     0.40536    0.00203     0.40739
 =======================================================================
   * Total *    0.00000     12.99508    36.84345    0.16146    50.00000

 Normal termination of Gaussian 16 at Wed Dec  9 23:54:23 2020.
