 Gaussian 16, Revision A.03,

 -----------------------------------------------------------
 # opt freq B3LYP/6-31G(d) empiricaldispersion=gd3bj scf=xqc
 -----------------------------------------------------------

 -------------------------------
 CID_130942858_JID_3189_neutraal
 -------------------------------
 Symbolic Z-matrix:
 Charge =  0 Multiplicity = 1

 SCF Done:  E(RB3LYP) =  -628.546212905     A.U. after   14 cycles
 SCF Done:  E(RB3LYP) =  -628.550244138     A.U. after   13 cycles
 SCF Done:  E(RB3LYP) =  -628.550929768     A.U. after   15 cycles
 SCF Done:  E(RB3LYP) =  -628.555926955     A.U. after   12 cycles
 SCF Done:  E(RB3LYP) =  -628.554454932     A.U. after   12 cycles
 SCF Done:  E(RB3LYP) =  -628.558394174     A.U. after   12 cycles
 SCF Done:  E(RB3LYP) =  -628.558962654     A.U. after   12 cycles
 SCF Done:  E(RB3LYP) =  -628.559167524     A.U. after   11 cycles
 SCF Done:  E(RB3LYP) =  -628.559212208     A.U. after   10 cycles
 SCF Done:  E(RB3LYP) =  -628.559231558     A.U. after    8 cycles
 SCF Done:  E(RB3LYP) =  -628.559237739     A.U. after    8 cycles
 SCF Done:  E(RB3LYP) =  -628.559239612     A.U. after    8 cycles
 SCF Done:  E(RB3LYP) =  -628.559240017     A.U. after    8 cycles
 SCF Done:  E(RB3LYP) =  -628.559240156     A.U. after    7 cycles
 Optimization completed.
    -- Stationary point found.
 Normal termination of Gaussian 16 at Wed Dec  9 22:30:23 2020.

 --------------------------------------------------------------------
 #N Geom=AllCheck Guess=TCheck SCRF=Check GenChk RB3LYP/6-31G(d) Freq
 --------------------------------------------------------------------

 Structure from the checkpoint file:  "JID_3189.chk"
 -------------------------------
 CID_130942858_JID_3189_neutraal
 -------------------------------
 Charge =  0 Multiplicity = 1

 SCF Done:  E(RB3LYP) =  -628.559240156     A.U. after    1 cycles

  Exact polarizability: 132.453   1.267  93.850  -4.543  -6.509  91.583
 Approx polarizability: 165.351   1.294 144.980 -11.289 -21.966 142.786

                      1                      2                      3
                      A                      A                      A
 Frequencies --     76.5971                87.0749               117.6918
 Red. masses --      6.0774                 3.4836                 3.1405
 Frc consts  --      0.0210                 0.0156                 0.0256
 IR Inten    --      1.6069                 1.3615                 2.4501

                      4                      5                      6
                      A                      A                      A
 Frequencies --    163.4213               190.5597               212.4750
 Red. masses --      2.9709                 4.0036                 3.8580
 Frc consts  --      0.0467                 0.0857                 0.1026
 IR Inten    --      0.7950                11.1828                 2.3741

                      7                      8                      9
                      A                      A                      A
 Frequencies --    236.2734               287.8138               350.2915
 Red. masses --      3.0350                 2.8486                 3.2683
 Frc consts  --      0.0998                 0.1390                 0.2363
 IR Inten    --      2.5228                 2.3849                 1.9192

                     10                     11                     12
                      A                      A                      A
 Frequencies --    402.1349               424.3309               450.3304
 Red. masses --      2.6795                 3.3082                 3.0817
 Frc consts  --      0.2553                 0.3510                 0.3682
 IR Inten    --     16.9460                18.1795                21.1021

                     13                     14                     15
                      A                      A                      A
 Frequencies --    475.3443               490.4775               517.8066
 Red. masses --      1.2715                 1.1634                 4.4432
 Frc consts  --      0.1693                 0.1649                 0.7019
 IR Inten    --     27.1583               112.7042                 2.1585

                     16                     17                     18
                      A                      A                      A
 Frequencies --    578.4561               613.6860               638.0256
 Red. masses --      4.6723                 3.1269                 2.6845
 Frc consts  --      0.9211                 0.6938                 0.6439
 IR Inten    --     18.6225                10.2711                67.2499

                     19                     20                     21
                      A                      A                      A
 Frequencies --    702.5716               722.9560               765.0545
 Red. masses --      2.3355                 3.7037                 4.0414
 Frc consts  --      0.6792                 1.1405                 1.3937
 IR Inten    --      0.1908                31.2636                32.6593

                     22                     23                     24
                      A                      A                      A
 Frequencies --    773.5843               788.5677               816.6518
 Red. masses --      1.5535                 1.7889                 2.7245
 Frc consts  --      0.5477                 0.6554                 1.0706
 IR Inten    --    127.9581                48.7306                54.7506

                     25                     26                     27
                      A                      A                      A
 Frequencies --    842.1367               876.6591               896.5134
 Red. masses --      2.2794                 2.1906                 2.0480
 Frc consts  --      0.9524                 0.9919                 0.9698
 IR Inten    --    102.1417                 8.0817                18.6914

                     28                     29                     30
                      A                      A                      A
 Frequencies --    925.5536               933.8234               971.1166
 Red. masses --      3.5555                 2.6839                 2.5736
 Frc consts  --      1.7945                 1.3789                 1.4300
 IR Inten    --     28.0292                 9.4237                 8.5442

                     31                     32                     33
                      A                      A                      A
 Frequencies --    982.0997              1005.2120              1038.9989
 Red. masses --      2.1754                 2.4672                 2.6371
 Frc consts  --      1.2362                 1.4688                 1.6773
 IR Inten    --     11.7201                10.9722                14.6704

                     34                     35                     36
                      A                      A                      A
 Frequencies --   1051.1422              1061.1325              1074.4069
 Red. masses --      2.8154                 2.2032                 2.9217
 Frc consts  --      1.8328                 1.4616                 1.9871
 IR Inten    --     49.6166                11.1647                31.3331

                     37                     38                     39
                      A                      A                      A
 Frequencies --   1080.9469              1137.7792              1138.3835
 Red. masses --      2.0704                 2.5136                 2.0800
 Frc consts  --      1.4253                 1.9172                 1.5881
 IR Inten    --      6.8448                 7.4401                 0.3297

                     40                     41                     42
                      A                      A                      A
 Frequencies --   1174.4414              1219.8532              1226.8076
 Red. masses --      1.2943                 1.3758                 1.6938
 Frc consts  --      1.0518                 1.2062                 1.5020
 IR Inten    --      0.0663                 8.0153                24.1942

                     43                     44                     45
                      A                      A                      A
 Frequencies --   1241.9393              1256.6564              1305.8170
 Red. masses --      1.9437                 1.2833                 1.3095
 Frc consts  --      1.7664                 1.1941                 1.3156
 IR Inten    --     13.1233                 2.0787                 1.6883

                     46                     47                     48
                      A                      A                      A
 Frequencies --   1309.7793              1333.7545              1340.6242
 Red. masses --      1.2772                 1.2916                 1.3847
 Frc consts  --      1.2909                 1.3537                 1.4663
 IR Inten    --      3.4076                 1.9029                 0.7687

                     49                     50                     51
                      A                      A                      A
 Frequencies --   1346.3511              1356.6427              1373.2012
 Red. masses --      1.4461                 1.3383                 1.3961
 Frc consts  --      1.5444                 1.4513                 1.5511
 IR Inten    --      0.3444                 5.8702                 5.5117

                     52                     53                     54
                      A                      A                      A
 Frequencies --   1380.0594              1390.3762              1403.0414
 Red. masses --      1.3741                 1.2844                 1.3291
 Frc consts  --      1.5419                 1.4629                 1.5416
 IR Inten    --      8.0197                 1.9085                 6.9256

                     55                     56                     57
                      A                      A                      A
 Frequencies --   1421.9902              1453.0716              1518.4838
 Red. masses --      1.3057                 2.0990                 1.0850
 Frc consts  --      1.5556                 2.6111                 1.4740
 IR Inten    --      6.6085               274.1942                 0.7728

                     58                     59                     60
                      A                      A                      A
 Frequencies --   1524.4968              1533.1490              1543.0452
 Red. masses --      1.0826                 1.0966                 1.0943
 Frc consts  --      1.4824                 1.5186                 1.5351
 IR Inten    --      1.2454                 6.7084                 6.3084

                     61                     62                     63
                      A                      A                      A
 Frequencies --   1583.4075              1688.2202              1754.8894
 Red. masses --      1.1801                 1.2935                 3.8064
 Frc consts  --      1.7432                 2.1721                 6.9066
 IR Inten    --     66.9095                66.2452               337.2099

                     64                     65                     66
                      A                      A                      A
 Frequencies --   3047.0902              3049.0534              3079.1025
 Red. masses --      1.0849                 1.0649                 1.0619
 Frc consts  --      5.9351                 5.8330                 5.9319
 IR Inten    --     26.6300                30.6339                26.5008

                     67                     68                     69
                      A                      A                      A
 Frequencies --   3080.9714              3087.0591              3092.6504
 Red. masses --      1.0669                 1.0631                 1.0913
 Frc consts  --      5.9670                 5.9691                 6.1498
 IR Inten    --      5.4551                26.7324                42.9607

                     70                     71                     72
                      A                      A                      A
 Frequencies --   3114.5607              3123.9121              3124.4501
 Red. masses --      1.0983                 1.0980                 1.0947
 Frc consts  --      6.2769                 6.3134                 6.2965
 IR Inten    --     17.6379                21.0257                 4.6825

                     73                     74                     75
                      A                      A                      A
 Frequencies --   3125.5916              3137.3111              3369.6720
 Red. masses --      1.0991                 1.1047                 1.0641
 Frc consts  --      6.3264                 6.4065                 7.1189
 IR Inten    --     43.3923                52.7295               166.2868

                     76                     77                     78
                      A                      A                      A
 Frequencies --   3469.7430              3473.8240              3615.3826
 Red. masses --      1.0696                 1.0627                 1.0925
 Frc consts  --      7.5872                 7.5555                 8.4132
 IR Inten    --    112.6482               119.9345                71.3080

 - Thermochemistry -
 -------------------
 Temperature   298.150 Kelvin.  Pressure   1.00000 Atm.
 Atom     1 has atomic number  6 and mass  12.00000

 Molecular mass:   185.11643 amu.
 Principal axes and moments of inertia in atomic units:
                           1         2         3
     Eigenvalues --   972.848153865.785203900.27814
           X            0.99993   0.01141  -0.00380
           Y           -0.01040   0.97929   0.20218
           Z            0.00602  -0.20212   0.97934
 This molecule is an asymmetric top.
 Rotational symmetry number  1.
 Warning -- assumption of classical behavior for rotation
           may cause significant error
 Rotational temperatures (Kelvin)      0.08903     0.02241     0.02221
 Rotational constants (GHZ):           1.85511     0.46685     0.46272
 Zero-point vibrational energy     643402.8 (Joules/Mol)
                                  153.77697 (Kcal/Mol)
 Warning -- explicit consideration of  17 degrees of freedom as
           vibrations may cause significant error
 Vibrational temperatures:    110.21   125.28   169.33   235.13   274.17
          (Kelvin)            305.70   339.94   414.10   503.99   578.58
                              610.52   647.93   683.91   705.69   745.01
                              832.27   882.96   917.98  1010.84  1040.17
                             1100.74  1113.02  1134.57  1174.98  1211.65
                             1261.32  1289.88  1331.67  1343.56  1397.22
                             1413.02  1446.28  1494.89  1512.36  1526.73
                             1545.83  1555.24  1637.01  1637.88  1689.76
                             1755.10  1765.10  1786.87  1808.05  1878.78
                             1884.48  1918.98  1928.86  1937.10  1951.91
                             1975.73  1985.60  2000.44  2018.66  2045.93
                             2090.65  2184.76  2193.41  2205.86  2220.10
                             2278.17  2428.97  2524.89  4384.08  4386.91
                             4430.14  4432.83  4441.59  4449.63  4481.16
                             4494.61  4495.39  4497.03  4513.89  4848.21
                             4992.19  4998.06  5201.73

 Zero-point correction=                           0.245059 (Hartree/Particle)
 Thermal correction to Energy=                    0.256514
 Thermal correction to Enthalpy=                  0.257458
 Thermal correction to Gibbs Free Energy=         0.208002
 Sum of electronic and zero-point Energies=           -628.314181
 Sum of electronic and thermal Energies=              -628.302726
 Sum of electronic and thermal Enthalpies=            -628.301782
 Sum of electronic and thermal Free Energies=         -628.351238

                     E (Thermal)             CV                S
                      KCal/Mol        Cal/Mol-Kelvin    Cal/Mol-Kelvin
 Total                  160.965             46.381            104.090
 Electronic               0.000              0.000              0.000
 Translational            0.889              2.981             41.554
 Rotational               0.889              2.981             31.062
 Vibrational            159.188             40.419             31.474
 Vibration     1          0.599              1.965              3.976
 Vibration     2          0.601              1.958              3.725
 Vibration     3          0.608              1.935              3.138
 Vibration     4          0.623              1.887              2.510
 Vibration     5          0.634              1.853              2.222
 Vibration     6          0.644              1.822              2.022
 Vibration     7          0.655              1.785              1.831
 Vibration     8          0.685              1.696              1.487
 Vibration     9          0.727              1.575              1.165
 Vibration    10          0.768              1.466              0.955
 Vibration    11          0.786              1.417              0.877
 Vibration    12          0.809              1.360              0.795
 Vibration    13          0.832              1.305              0.723
 Vibration    14          0.846              1.271              0.682
 Vibration    15          0.873              1.211              0.615
 Vibration    16          0.935              1.078              0.488
 Vibration    17          0.973              1.003              0.427

 Optimization completed.
    -- Stationary point found.
 Normal termination of Gaussian 16 at Wed Dec  9 22:38:45 2020.

 ----------------------------------------------------------------------
 # B3LYP/6-311++G(d,p) empiricaldispersion=gd3bj scf=xqc pop=npa geom=c
 heck
 ----------------------------------------------------------------------

 ---------------------------------------
 CID_130942858_JID_3189_Energie_neutraal
 ---------------------------------------
 Structure from the checkpoint file:  "JID_3189.chk"
 Charge =  0 Multiplicity = 1

 SCF Done:  E(RB3LYP) =  -628.754303836     A.U. after   14 cycles
 Normal termination of Gaussian 16 at Wed Dec  9 22:42:24 2020.

 ----------------------------------------------------------------------
 # B3LYP/6-311++G(d,p) empiricaldispersion=gd3bj scf=xqc pop=npa geom=c
 heck
 ----------------------------------------------------------------------

 -------------------------------------
 CID_130942858_JID_3189_Energie_kation
 -------------------------------------
 Structure from the checkpoint file:  "JID_3189.chk"
 Charge =  1 Multiplicity = 2

 SCF Done:  E(UB3LYP) =  -628.451276045     A.U. after   25 cycles
 Normal termination of Gaussian 16 at Wed Dec  9 22:51:42 2020.
 Gaussian 16:  ES64L-G16RevA.03 25-Dec-2016

 ----------------------------------------------------------------------
 # B3LYP/6-311++G(d,p) empiricaldispersion=gd3bj scf=xqc pop=npa geom=c
 heck
 ----------------------------------------------------------------------

 ------------------------------------
 CID_130942858_JID_3189_Energie_anion
 ------------------------------------
 Structure from the checkpoint file:  "JID_3189.chk"
 Charge = -1 Multiplicity = 2

                         Standard orientation:
 ---------------------------------------------------------------------
 Center     Atomic      Atomic             Coordinates (Angstroms)
 Number     Number       Type             X           Y           Z
 ---------------------------------------------------------------------
      1          6           0        2.017236   -0.986411   -1.244653
      2          6           0        0.503035   -0.785460   -1.408493
      3          6           0        0.004823    0.524868   -0.746748
      4          6           0        0.821300    0.773603    0.556417
      5          6           0        2.119420    1.598013    0.340758
      6          6           0        3.244042    0.535351    0.408782
      7          6           0        2.447451   -0.762227    0.233734
      8          8           0        1.288875   -0.499951    1.055680
      9          7           0       -1.436265    0.521155   -0.554667
     10          6           0       -2.014233   -0.243871    0.299778
     11          7           0       -1.495982   -1.238052    1.107770
     12          7           0       -3.408424   -0.091983    0.464583
     13          8           0       -3.965713    0.798257   -0.490608
     14          1           0        2.559594   -0.288824   -1.895170
     15          1           0        2.292055   -1.993885   -1.574407
     16          1           0        0.224055   -0.788514   -2.466631
     17          1           0       -0.018316   -1.628488   -0.946900
     18          1           0        0.213251    1.358301   -1.427858
     19          1           0        0.174956    1.202622    1.324588
     20          1           0        2.237328    2.358526    1.116800
     21          1           0        2.102381    2.115310   -0.622831
     22          1           0        3.727602    0.545418    1.389996
     23          1           0        4.013877    0.670114   -0.356346
     24          1           0        2.934001   -1.642176    0.659120
     25          1           0       -1.998938   -1.372415    1.976999
     26          1           0       -0.482947   -1.240758    1.215223
     27          1           0       -3.879926   -0.987660    0.336737
     28          1           0       -3.158019    1.044947   -1.011145
 ---------------------------------------------------------------------

 SCF Done:  E(UB3LYP) =  -628.742342959     A.U. after   31 cycles

 The electronic state is 2-A.
 Alpha  occ. eigenvalues --  -19.04765 -19.02921 -14.27520 -14.22653 -14.19013
 Alpha  occ. eigenvalues --  -10.17702 -10.12237 -10.11910 -10.10381 -10.07177
 Alpha  occ. eigenvalues --  -10.06711 -10.06606 -10.06604  -0.98198  -0.94858
 Alpha  occ. eigenvalues --   -0.86302  -0.78331  -0.72708  -0.69712  -0.66831
 Alpha  occ. eigenvalues --   -0.66168  -0.56415  -0.53194  -0.49947  -0.49168
 Alpha  occ. eigenvalues --   -0.45534  -0.44445  -0.42757  -0.41772  -0.40549
 Alpha  occ. eigenvalues --   -0.38215  -0.36353  -0.35240  -0.33612  -0.32479
 Alpha  occ. eigenvalues --   -0.31257  -0.29550  -0.28448  -0.26726  -0.26472
 Alpha  occ. eigenvalues --   -0.26347  -0.25261  -0.24120  -0.23697  -0.23093
 Alpha  occ. eigenvalues --   -0.21336  -0.18249  -0.16269  -0.14842  -0.13567
 Alpha  occ. eigenvalues --    0.04336
 Alpha virt. eigenvalues --    0.06414   0.07429   0.07670   0.08858   0.08999
 Alpha virt. eigenvalues --    0.09921   0.10261   0.10542   0.11618   0.11889
 Alpha virt. eigenvalues --    0.12897   0.13216   0.13235   0.14208   0.15411

  Beta  occ. eigenvalues --  -19.04761 -19.02910 -14.27504 -14.22614 -14.19011
  Beta  occ. eigenvalues --  -10.17701 -10.12229 -10.11892 -10.10377 -10.07158
  Beta  occ. eigenvalues --  -10.06697 -10.06577 -10.06574  -0.98186  -0.94829
  Beta  occ. eigenvalues --   -0.86276  -0.78298  -0.72675  -0.69667  -0.66789
  Beta  occ. eigenvalues --   -0.66132  -0.56374  -0.53139  -0.49911  -0.49116
  Beta  occ. eigenvalues --   -0.45482  -0.44394  -0.42709  -0.41706  -0.40523
  Beta  occ. eigenvalues --   -0.38179  -0.36320  -0.35203  -0.33580  -0.32446
  Beta  occ. eigenvalues --   -0.31218  -0.29511  -0.28425  -0.26697  -0.26438
  Beta  occ. eigenvalues --   -0.26312  -0.25220  -0.24092  -0.23666  -0.23053
  Beta  occ. eigenvalues --   -0.21300  -0.18227  -0.16252  -0.14818  -0.13551
  Beta virt. eigenvalues --    0.06712   0.07380   0.08124   0.08425   0.09441
  Beta virt. eigenvalues --    0.09624   0.10273   0.10832   0.10911   0.12041
  Beta virt. eigenvalues --    0.12376   0.13294   0.13422   0.13613   0.14507

 Mulliken charges and spin densities:
               1          2
     1  C    2.095826  -2.580063
     2  C   -1.087200   0.667433
     3  C    1.223317  -1.628875
     4  C   -0.428478   0.627054
     5  C   -0.134238  -0.487069
     6  C    2.030004  -2.617922
     7  C   -2.027334   2.264945
     8  O   -0.114976  -0.075870
     9  N   -0.225250   0.075769
    10  C    0.265691  -0.311885
    11  N   -0.453489   0.030123
    12  N   -0.213550   0.024387
    13  O   -0.202657  -0.002638
    14  H   -0.258045   0.424590
    15  H   -0.287864   0.461789
    16  H   -0.025330   0.191636
    17  H   -0.058693   0.244826
    18  H    0.140721   0.084512
    19  H    0.011662   0.288971
    20  H   -0.220782   0.370740
    21  H   -0.021280   0.144490
    22  H   -0.170845   0.340986
    23  H   -0.452416   0.606323
    24  H   -0.952287   1.207846
    25  H   -0.197964   0.468425
    26  H    0.359372  -0.011333
    27  H    0.074753   0.197476
    28  H    0.331332  -0.006666
 Sum of Mulliken charges =  -1.00000   1.00000

 Dipole moment (field-independent basis, Debye):
    X=             -3.8509    Y=              1.4349    Z=             -1.0245  Tot=              4.2353
 Quadrupole moment (field-independent basis, Debye-Ang):
   XX=           -157.3581   YY=           -116.5752   ZZ=           -114.5846
   XY=              6.5197   XZ=              1.9314   YZ=             -0.5271

 Summary of Natural Population Analysis:

                                       Natural Population
                Natural  -----------------------------------------------
    Atom  No    Charge         Core      Valence    Rydberg      Total
 -----------------------------------------------------------------------
      C    1   -0.20539      0.99961     2.19681    0.00897     3.20539
      C    2   -0.19408      0.99960     2.18456    0.00991     3.19408
      C    3   -0.02069      0.99955     2.00814    0.01299     3.02069
      C    4    0.05457      0.99955     1.93049    0.01539     2.94543
      C    5   -0.20300      0.99962     2.19440    0.00898     3.20300
      C    6   -0.19744      0.99961     2.18936    0.00846     3.19744
      C    7    0.06426      0.99957     1.92053    0.01564     2.93574
      O    8   -0.31648      0.99990     3.30723    0.00935     4.31648
      N    9   -0.32331      0.99962     2.81222    0.01148     3.82331
      C   10    0.29913      0.99961     1.68562    0.01565     2.70087
      N   11   -0.41914      0.99970     2.90930    0.01014     3.91914
      N   12   -0.17284      0.99966     2.65855    0.01462     3.67284
      O   13   -0.29928      0.99991     3.29084    0.00853     4.29928
      H   14    0.09710      0.00000     0.40115    0.00175     0.40290
      H   15    0.10690      0.00000     0.39129    0.00181     0.39310
      H   16    0.10272      0.00000     0.39619    0.00109     0.39728
      H   17    0.10119      0.00000     0.39681    0.00200     0.39881
      H   18    0.09438      0.00000     0.40391    0.00171     0.40562
      H   19    0.09942      0.00000     0.39911    0.00147     0.40058
      H   20    0.10548      0.00000     0.39335    0.00117     0.39452
      H   21    0.09984      0.00000     0.39869    0.00147     0.40016
      H   22    0.10258      0.00000     0.39545    0.00196     0.39742
      H   23    0.10333      0.00000     0.39471    0.00195     0.39667
      H   24    0.09884      0.00000     0.39858    0.00258     0.40116
      H   25    0.19261      0.00000     0.30419    0.00320     0.30739
      H   26    0.21118      0.00000     0.28593    0.00289     0.28882
      H   27    0.17662      0.00000     0.32081    0.00257     0.32338
      H   28    0.24148      0.00000     0.25478    0.00374     0.25852
 =======================================================================
   * Total *    0.00000     12.99550    36.82302    0.18147    50.00000

 Normal termination of Gaussian 16 at Wed Dec  9 23:03:01 2020.
