 Gaussian 16, Revision A.03,

 -----------------------------------------------------------
 # opt freq B3LYP/6-31G(d) empiricaldispersion=gd3bj scf=xqc
 -----------------------------------------------------------

 ---------------------------
 CID_16325_JID_6111_neutraal
 ---------------------------
 Symbolic Z-matrix:
 Charge =  0 Multiplicity = 1

 SCF Done:  E(RB3LYP) =  -723.230312518     A.U. after   16 cycles
 SCF Done:  E(RB3LYP) =  -723.244105350     A.U. after   16 cycles
 SCF Done:  E(RB3LYP) =  -723.253449710     A.U. after   16 cycles
 SCF Done:  E(RB3LYP) =  -723.260550050     A.U. after   14 cycles
 SCF Done:  E(RB3LYP) =  -723.262304678     A.U. after   15 cycles
 SCF Done:  E(RB3LYP) =  -723.262985238     A.U. after   13 cycles
 SCF Done:  E(RB3LYP) =  -723.263176644     A.U. after   13 cycles
 SCF Done:  E(RB3LYP) =  -723.263322392     A.U. after   12 cycles
 SCF Done:  E(RB3LYP) =  -723.263338588     A.U. after   11 cycles
 SCF Done:  E(RB3LYP) =  -723.263341589     A.U. after   11 cycles
 SCF Done:  E(RB3LYP) =  -723.263342038     A.U. after    9 cycles
 SCF Done:  E(RB3LYP) =  -723.263342246     A.U. after    8 cycles
 SCF Done:  E(RB3LYP) =  -723.263342264     A.U. after    7 cycles
 Optimization completed.
    -- Stationary point found.
 Normal termination of Gaussian 16 at Thu Dec 10 21:10:00 2020.

 --------------------------------------------------------------------
 #N Geom=AllCheck Guess=TCheck SCRF=Check GenChk RB3LYP/6-31G(d) Freq
 --------------------------------------------------------------------

 Structure from the checkpoint file:  "JID_6111.chk"
 ---------------------------
 CID_16325_JID_6111_neutraal
 ---------------------------
 Charge =  0 Multiplicity = 1

 SCF Done:  E(RB3LYP) =  -723.263342264     A.U. after    1 cycles

  Exact polarizability: 342.946 -10.132 147.191   0.000   0.000  48.541
 Approx polarizability: 522.383 -28.037 269.710  -0.000   0.001  76.718

                      1                      2                      3
                      A                      A                      A
 Frequencies --     32.1231                47.9089                82.2910
 Red. masses --      4.1415                 6.7146                 5.5152
 Frc consts  --      0.0025                 0.0091                 0.0220
 IR Inten    --      0.3596                 0.6066                 0.6000

                      4                      5                      6
                      A                      A                      A
 Frequencies --    121.3357               217.5855               224.9543
 Red. masses --      6.3131                 5.5222                 6.8187
 Frc consts  --      0.0548                 0.1540                 0.2033
 IR Inten    --      0.0095                 2.6601                 1.3757

                      7                      8                      9
                      A                      A                      A
 Frequencies --    232.4062               281.1950               308.4393
 Red. masses --      6.1473                 5.6527                 6.5212
 Frc consts  --      0.1956                 0.2633                 0.3655
 IR Inten    --      0.0855                 0.5391                 0.9834

                     10                     11                     12
                      A                      A                      A
 Frequencies --    364.2459               396.5271               408.3467
 Red. masses --      5.5582                 1.1306                 6.1527
 Frc consts  --      0.4345                 0.1047                 0.6045
 IR Inten    --      6.9405               111.6866                 7.9602

                     13                     14                     15
                      A                      A                      A
 Frequencies --    419.2142               470.6057               477.0758
 Red. masses --      3.0598                 3.0445                 6.0337
 Frc consts  --      0.3168                 0.3973                 0.8091
 IR Inten    --      0.1265                 0.1545                27.7112

                     16                     17                     18
                      A                      A                      A
 Frequencies --    502.6633               531.7659               541.0457
 Red. masses --      8.5444                 6.5151                 3.3675
 Frc consts  --      1.2720                 1.0855                 0.5808
 IR Inten    --      7.0043                21.1492                 4.4781

                     19                     20                     21
                      A                      A                      A
 Frequencies --    613.1298               634.0345               652.8083
 Red. masses --      5.6745                 6.5351                 3.5845
 Frc consts  --      1.2569                 1.5478                 0.9000
 IR Inten    --      4.0085                 1.0780                 5.3782

                     22                     23                     24
                      A                      A                      A
 Frequencies --    660.4534               700.1020               713.0029
 Red. masses --      6.4367                 2.2417                 3.0142
 Frc consts  --      1.6542                 0.6474                 0.9028
 IR Inten    --      0.1585                11.7925                18.3037

                     25                     26                     27
                      A                      A                      A
 Frequencies --    760.2795               782.8518               793.2723
 Red. masses --      7.4413                 1.6088                 1.8106
 Frc consts  --      2.5342                 0.5809                 0.6713
 IR Inten    --      1.8558                 0.6907                43.3713

                     28                     29                     30
                      A                      A                      A
 Frequencies --    832.9837               841.3398               857.2251
 Red. masses --      5.6981                 1.2229                 1.2750
 Frc consts  --      2.3295                 0.5100                 0.5520
 IR Inten    --     10.2646               118.1702                 0.8769

                     31                     32                     33
                      A                      A                      A
 Frequencies --    860.5496               939.4188               943.9276
 Red. masses --      1.2282                 1.4178                 5.4297
 Frc consts  --      0.5359                 0.7372                 2.8504
 IR Inten    --      2.1159                 4.4763                 7.9827

                     34                     35                     36
                      A                      A                      A
 Frequencies --    944.8477               977.4815               998.5439
 Red. masses --      1.2901                 1.3339                 3.2598
 Frc consts  --      0.6786                 0.7509                 1.9150
 IR Inten    --      4.5500                 0.0178                21.1238

                     37                     38                     39
                      A                      A                      A
 Frequencies --   1001.6864              1020.0529              1052.0818
 Red. masses --      1.2661                 5.9539                 2.0796
 Frc consts  --      0.7485                 3.6500                 1.3562
 IR Inten    --      0.6683                 0.5362                 3.7255

                     40                     41                     42
                      A                      A                      A
 Frequencies --   1111.4719              1157.1254              1191.1216
 Red. masses --      1.4895                 1.3439                 1.2710
 Frc consts  --      1.0842                 1.0602                 1.0624
 IR Inten    --      6.2741               146.2976                 0.2129

                     43                     44                     45
                      A                      A                      A
 Frequencies --   1192.6474              1195.0545              1236.1956
 Red. masses --      1.1265                 1.4107                 2.8319
 Frc consts  --      0.9441                 1.1870                 2.5498
 IR Inten    --      1.4928               135.2357                92.5896

                     46                     47                     48
                      A                      A                      A
 Frequencies --   1255.2463              1263.7434              1308.6476
 Red. masses --      1.6518                 2.4006                 4.0753
 Frc consts  --      1.5334                 2.2589                 4.1120
 IR Inten    --     13.0601                12.1814               118.7897

                     49                     50                     51
                      A                      A                      A
 Frequencies --   1350.3923              1370.8924              1371.5196
 Red. masses --      1.6310                 4.6279                 2.9961
 Frc consts  --      1.7523                 5.1244                 3.3205
 IR Inten    --     89.2939                78.5310               269.1919

                     52                     53                     54
                      A                      A                      A
 Frequencies --   1386.5628              1455.9372              1493.2081
 Red. masses --      5.2033                 4.3533                 2.1842
 Frc consts  --      5.8940                 5.4369                 2.8693
 IR Inten    --     22.6615               167.3680                49.2174

                     55                     56                     57
                      A                      A                      A
 Frequencies --   1507.5685              1532.6817              1547.1224
 Red. masses --      2.5162                 2.4696                 4.0393
 Frc consts  --      3.3694                 3.4180                 5.6965
 IR Inten    --     30.4386                38.9275               118.8499

                     58                     59                     60
                      A                      A                      A
 Frequencies --   1568.1727              1642.3486              1651.8824
 Red. masses --      3.0536                 4.8582                 3.3931
 Frc consts  --      4.4243                 7.7207                 5.4551
 IR Inten    --     55.1503                33.5480               106.2523

                     61                     62                     63
                      A                      A                      A
 Frequencies --   1660.3575              1694.7353              3118.5225
 Red. masses --      5.2289                 5.1651                 1.0683
 Frc consts  --      8.4930                 8.7405                 6.1213
 IR Inten    --     10.7609               387.0391               234.7350

                     64                     65                     66
                      A                      A                      A
 Frequencies --   3184.3822              3187.0013              3196.0924
 Red. masses --      1.0894                 1.0855                 1.0889
 Frc consts  --      6.5087                 6.4960                 6.5535
 IR Inten    --     20.5052                 2.6740                 9.2676

                     67                     68                     69
                      A                      A                      A
 Frequencies --   3205.9510              3215.4625              3218.8632
 Red. masses --      1.0924                 1.0972                 1.0931
 Frc consts  --      6.6154                 6.6835                 6.6729
 IR Inten    --     23.3388                31.5052                 5.2991

                     70                     71                     72
                      A                      A                      A
 Frequencies --   3236.3498              3236.8371              3748.8656
 Red. masses --      1.0916                 1.0919                 1.0659
 Frc consts  --      6.7365                 6.7402                 8.8263
 IR Inten    --      2.4915                 2.9033                96.0405

 - Thermochemistry -
 -------------------
 Temperature   298.150 Kelvin.  Pressure   1.00000 Atm.
 Atom     1 has atomic number  6 and mass  12.00000

 Molecular mass:   214.07423 amu.
 Principal axes and moments of inertia in atomic units:
                           1         2         3
     Eigenvalues --   921.352068090.247899011.59995
           X            0.99999  -0.00386   0.00000
           Y            0.00386   0.99999   0.00000
           Z           -0.00000  -0.00000   1.00000
 This molecule is an asymmetric top.
 Rotational symmetry number  1.
 Warning -- assumption of classical behavior for rotation
           may cause significant error
 Rotational temperatures (Kelvin)      0.09401     0.01071     0.00961
 Rotational constants (GHZ):           1.95880     0.22308     0.20027
 Zero-point vibrational energy     525954.7 (Joules/Mol)
                                  125.70620 (Kcal/Mol)
 Warning -- explicit consideration of  19 degrees of freedom as
           vibrations may cause significant error
 Vibrational temperatures:     46.22    68.93   118.40   174.58   313.06
          (Kelvin)            323.66   334.38   404.58   443.78   524.07
                              570.51   587.52   603.16   677.10   686.41
                              723.22   765.09   778.44   882.16   912.23
                              939.25   950.25  1007.29  1025.85  1093.87
                             1126.35  1141.34  1198.48  1210.50  1233.36
                             1238.14  1351.61  1358.10  1359.43  1406.38
                             1436.68  1441.20  1467.63  1513.71  1599.16
                             1664.85  1713.76  1715.95  1719.42  1778.61
                             1806.02  1818.24  1882.85  1942.91  1972.41
                             1973.31  1994.95  2094.77  2148.39  2169.05
                             2205.19  2225.96  2256.25  2362.97  2376.69
                             2388.88  2438.35  4486.86  4581.62  4585.38
                             4598.46  4612.65  4626.33  4631.23  4656.39
                             4657.09  5393.78

 Zero-point correction=                           0.200326 (Hartree/Particle)
 Thermal correction to Energy=                    0.212944
 Thermal correction to Enthalpy=                  0.213888
 Thermal correction to Gibbs Free Energy=         0.160326
 Sum of electronic and zero-point Energies=           -723.063017
 Sum of electronic and thermal Energies=              -723.050398
 Sum of electronic and thermal Enthalpies=            -723.049454
 Sum of electronic and thermal Free Energies=         -723.103016

                     E (Thermal)             CV                S
                      KCal/Mol        Cal/Mol-Kelvin    Cal/Mol-Kelvin
 Total                  133.624             50.512            112.731
 Electronic               0.000              0.000              0.000
 Translational            0.889              2.981             41.987
 Rotational               0.889              2.981             32.574
 Vibrational            131.847             44.551             38.170
 Vibration     1          0.594              1.983              5.694
 Vibration     2          0.595              1.978              4.902
 Vibration     3          0.600              1.961              3.835
 Vibration     4          0.609              1.931              3.079
 Vibration     5          0.646              1.814              1.979
 Vibration     6          0.650              1.803              1.919
 Vibration     7          0.653              1.791              1.860
 Vibration     8          0.681              1.708              1.526
 Vibration     9          0.698              1.658              1.371
 Vibration    10          0.738              1.546              1.104
 Vibration    11          0.763              1.478              0.976
 Vibration    12          0.773              1.452              0.932
 Vibration    13          0.782              1.428              0.895
 Vibration    14          0.828              1.315              0.736
 Vibration    15          0.834              1.301              0.718
 Vibration    16          0.858              1.244              0.651
 Vibration    17          0.887              1.180              0.583
 Vibration    18          0.896              1.159              0.563
 Vibration    19          0.972              1.004              0.428

 Optimization completed.
    -- Stationary point found.
 Normal termination of Gaussian 16 at Thu Dec 10 21:16:44 2020.

 ----------------------------------------------------------------------
 # B3LYP/6-311++G(d,p) empiricaldispersion=gd3bj scf=xqc pop=npa geom=c
 heck
 ----------------------------------------------------------------------

 -----------------------------------
 CID_16325_JID_6111_Energie_neutraal
 -----------------------------------
 Structure from the checkpoint file:  "JID_6111.chk"
 Charge =  0 Multiplicity = 1

 SCF Done:  E(RB3LYP) =  -723.469753598     A.U. after   16 cycles
 Normal termination of Gaussian 16 at Thu Dec 10 21:19:41 2020.

 ----------------------------------------------------------------------
 # B3LYP/6-311++G(d,p) empiricaldispersion=gd3bj scf=xqc pop=npa geom=c
 heck
 ----------------------------------------------------------------------

 ---------------------------------
 CID_16325_JID_6111_Energie_kation
 ---------------------------------
 Structure from the checkpoint file:  "JID_6111.chk"
 Charge =  1 Multiplicity = 2

 SCF Done:  E(UB3LYP) =  -723.188318732     A.U. after   25 cycles
 Normal termination of Gaussian 16 at Thu Dec 10 21:26:20 2020.
 Gaussian 16:  ES64L-G16RevA.03 25-Dec-2016

 ----------------------------------------------------------------------
 # B3LYP/6-311++G(d,p) empiricaldispersion=gd3bj scf=xqc pop=npa geom=c
 heck
 ----------------------------------------------------------------------

 --------------------------------
 CID_16325_JID_6111_Energie_anion
 --------------------------------
 Structure from the checkpoint file:  "JID_6111.chk"
 Charge = -1 Multiplicity = 2

                         Standard orientation:
 ---------------------------------------------------------------------
 Center     Atomic      Atomic             Coordinates (Angstroms)
 Number     Number       Type             X           Y           Z
 ---------------------------------------------------------------------
      1          6           0       -5.069429   -0.269551    0.000001
      2          6           0       -4.532795    1.018614    0.000042
      3          6           0       -3.151400    1.197193    0.000043
      4          6           0       -2.298353    0.086003   -0.000000
      5          6           0       -2.837741   -1.210935   -0.000041
      6          6           0       -4.216796   -1.379892   -0.000035
      7          7           0       -0.914750    0.364508    0.000016
      8          7           0       -0.144734   -0.650601   -0.000003
      9          6           0        1.216263   -0.391249   -0.000011
     10          6           0        1.812389    0.910669   -0.000053
     11          6           0        3.202843    1.031623   -0.000025
     12          6           0        4.002239   -0.108931    0.000019
     13          6           0        3.433030   -1.398589    0.000025
     14          6           0        2.058087   -1.520318    0.000029
     15          8           0        5.348746    0.079330    0.000006
     16          8           0        1.068965    2.022598   -0.000031
     17          1           0       -6.146290   -0.411294    0.000006
     18          1           0       -5.189076    1.883944    0.000075
     19          1           0       -2.713692    2.190926    0.000070
     20          1           0       -2.162295   -2.058242   -0.000070
     21          1           0       -4.634872   -2.382730   -0.000063
     22          1           0        3.654727    2.016517   -0.000033
     23          1           0        4.071161   -2.278587    0.000055
     24          1           0        1.580359   -2.494678    0.000054
     25          1           0        5.789379   -0.784814    0.000053
     26          1           0        0.115274    1.718368   -0.000010
 ---------------------------------------------------------------------

 SCF Done:  E(UB3LYP) =  -723.510704716     A.U. after   20 cycles

 The electronic state is 2-A.
 Alpha  occ. eigenvalues --  -19.04496 -18.99693 -14.17299 -14.16854 -10.10727
 Alpha  occ. eigenvalues --  -10.10078 -10.05931 -10.05544 -10.04863 -10.04810
 Alpha  occ. eigenvalues --  -10.04567 -10.04215 -10.04047 -10.03805 -10.03607
 Alpha  occ. eigenvalues --  -10.03137  -0.95733  -0.92230  -0.85828  -0.73093
 Alpha  occ. eigenvalues --   -0.71638  -0.65598  -0.62127  -0.61791  -0.59869
 Alpha  occ. eigenvalues --   -0.54182  -0.50041  -0.48313  -0.47143  -0.44924
 Alpha  occ. eigenvalues --   -0.43387  -0.40089  -0.37917  -0.36141  -0.33642
 Alpha  occ. eigenvalues --   -0.32582  -0.31592  -0.30784  -0.30737  -0.30093
 Alpha  occ. eigenvalues --   -0.29624  -0.28550  -0.26732  -0.25822  -0.25772
 Alpha  occ. eigenvalues --   -0.24163  -0.22705  -0.22271  -0.21798  -0.21259
 Alpha  occ. eigenvalues --   -0.19248  -0.13761  -0.13047  -0.10941  -0.08017
 Alpha  occ. eigenvalues --   -0.07497   0.01467
 Alpha virt. eigenvalues --    0.07061   0.08265   0.09630   0.10067   0.10737
 Alpha virt. eigenvalues --    0.11173   0.11394   0.11823   0.12652   0.13030
 Alpha virt. eigenvalues --    0.13774   0.15255   0.15326   0.15880   0.16506

  Beta  occ. eigenvalues --  -19.04426 -18.99601 -14.16822 -14.16122 -10.10495
  Beta  occ. eigenvalues --  -10.09915 -10.05929 -10.05670 -10.04934 -10.04844
  Beta  occ. eigenvalues --  -10.04654 -10.04018 -10.03858 -10.03712 -10.03688
  Beta  occ. eigenvalues --  -10.02983  -0.95561  -0.92008  -0.84687  -0.72834
  Beta  occ. eigenvalues --   -0.71445  -0.65062  -0.61978  -0.61630  -0.59656
  Beta  occ. eigenvalues --   -0.53506  -0.49783  -0.48158  -0.47025  -0.44636
  Beta  occ. eigenvalues --   -0.43272  -0.39913  -0.37837  -0.35882  -0.33502
  Beta  occ. eigenvalues --   -0.32449  -0.31451  -0.30703  -0.29999  -0.29978
  Beta  occ. eigenvalues --   -0.29584  -0.27170  -0.26573  -0.25562  -0.24892
  Beta  occ. eigenvalues --   -0.23922  -0.22054  -0.21662  -0.21216  -0.20973
  Beta  occ. eigenvalues --   -0.18433  -0.12758  -0.12445  -0.10452  -0.06839
  Beta  occ. eigenvalues --   -0.06767
  Beta virt. eigenvalues --    0.07066   0.07989   0.08249   0.09614   0.10066
  Beta virt. eigenvalues --    0.10737   0.11392   0.11450   0.12394   0.12640
  Beta virt. eigenvalues --    0.13765   0.13990   0.15276   0.15905   0.16346

 Mulliken charges and spin densities:
               1          2
     1  C   -0.376640   0.147047
     2  C   -0.239317  -0.025639
     3  C   -0.141594   0.059410
     4  C   -0.302344  -0.065374
     5  C    0.243514   0.192851
     6  C   -0.233351  -0.047806
     7  N   -0.082752   0.192648
     8  N   -0.116133   0.368984
     9  C   -0.608631  -0.125493
    10  C    0.215145   0.150271
    11  C   -0.160477  -0.067044
    12  C   -0.306357   0.153260
    13  C    0.073425  -0.074152
    14  C   -0.078162   0.137804
    15  O   -0.257618   0.014170
    16  O   -0.348639   0.026480
    17  H    0.092599  -0.011483
    18  H    0.135964   0.001111
    19  H    0.082765  -0.005389
    20  H    0.161409  -0.013137
    21  H    0.134822   0.003578
    22  H    0.152403   0.003061
    23  H    0.096134   0.004037
    24  H    0.127881  -0.011032
    25  H    0.243798  -0.000506
    26  H    0.492155  -0.007656
 Sum of Mulliken charges =  -1.00000   1.00000

 Dipole moment (field-independent basis, Debye):
    X=              1.7388    Y=             -1.8644    Z=              0.0001  Tot=              2.5494
 Quadrupole moment (field-independent basis, Debye-Ang):
   XX=           -136.4953   YY=           -101.5272   ZZ=           -104.1308
   XY=            -10.9810   XZ=              0.0005   YZ=              0.0001

 Summary of Natural Population Analysis:

                                       Natural Population
                Natural  -----------------------------------------------
    Atom  No    Charge         Core      Valence    Rydberg      Total
 -----------------------------------------------------------------------
      C    1   -0.08235      0.99958     2.07298    0.00979     3.08235
      C    2   -0.12138      0.99958     2.11257    0.00924     3.12138
      C    3   -0.08274      0.99953     2.07425    0.00897     3.08274
      C    4    0.06783      0.99948     1.91927    0.01341     2.93217
      C    5   -0.07568      0.99952     2.06727    0.00889     3.07568
      C    6   -0.12369      0.99958     2.11498    0.00913     3.12369
      N    7   -0.10896      0.99968     2.58845    0.02083     3.60896
      N    8   -0.00860      0.99968     2.48899    0.01993     3.50860
      C    9   -0.01212      0.99947     1.99996    0.01269     3.01212
      C   10    0.20889      0.99941     1.77860    0.01309     2.79111
      C   11   -0.18590      0.99950     2.17686    0.00953     3.18590
      C   12    0.20383      0.99942     1.78478    0.01197     2.79617
      C   13   -0.19470      0.99953     2.18599    0.00917     3.19470
      C   14   -0.03524      0.99955     2.02576    0.00993     3.03524
      O   15   -0.33823      0.99988     3.33224    0.00611     4.33823
      O   16   -0.34795      0.99987     3.33979    0.00829     4.34795
      H   17    0.08818      0.00000     0.41075    0.00107     0.41182
      H   18    0.09136      0.00000     0.40759    0.00105     0.40864
      H   19    0.09705      0.00000     0.40148    0.00147     0.40295
      H   20    0.10756      0.00000     0.39019    0.00225     0.39244
      H   21    0.09106      0.00000     0.40794    0.00101     0.40894
      H   22    0.10333      0.00000     0.39496    0.00171     0.39667
      H   23    0.08982      0.00000     0.40898    0.00120     0.41018
      H   24    0.09746      0.00000     0.40057    0.00197     0.40254
      H   25    0.22670      0.00000     0.27090    0.00240     0.27330
      H   26    0.24447      0.00000     0.24795    0.00758     0.25553
 =======================================================================
   * Total *    0.00000     15.99326    39.80405    0.20269    56.00000

 Normal termination of Gaussian 16 at Thu Dec 10 21:31:14 2020.
