 Gaussian 16, Revision A.03,

 -----------------------------------------------------------
 # opt freq B3LYP/6-31G(d) empiricaldispersion=gd3bj scf=xqc
 -----------------------------------------------------------

 ------------------------------
 CID_53264507_JID_8691_neutraal
 ------------------------------
 Symbolic Z-matrix:
 Charge =  0 Multiplicity = 1

 SCF Done:  E(RB3LYP) =  -821.803180175     A.U. after   16 cycles
 SCF Done:  E(RB3LYP) =  -821.811623870     A.U. after   13 cycles
 SCF Done:  E(RB3LYP) =  -821.812213214     A.U. after   12 cycles
 SCF Done:  E(RB3LYP) =  -821.812422156     A.U. after   12 cycles
 SCF Done:  E(RB3LYP) =  -821.812901377     A.U. after   11 cycles
 SCF Done:  E(RB3LYP) =  -821.813172355     A.U. after   12 cycles
 SCF Done:  E(RB3LYP) =  -821.813517990     A.U. after   12 cycles
 SCF Done:  E(RB3LYP) =  -821.813641418     A.U. after   11 cycles
 SCF Done:  E(RB3LYP) =  -821.813981847     A.U. after   12 cycles
 SCF Done:  E(RB3LYP) =  -821.779872508     A.U. after   14 cycles
 SCF Done:  E(RB3LYP) =  -821.818360515     A.U. after   10 cycles
 SCF Done:  E(RB3LYP) =  -821.818377796     A.U. after   10 cycles
 SCF Done:  E(RB3LYP) =  -821.818395593     A.U. after   10 cycles
 SCF Done:  E(RB3LYP) =  -821.818401645     A.U. after   10 cycles
 SCF Done:  E(RB3LYP) =  -821.818401938     A.U. after    8 cycles
 SCF Done:  E(RB3LYP) =  -821.818401977     A.U. after    7 cycles
 Optimization completed.
    -- Stationary point found.
 Normal termination of Gaussian 16 at Fri Dec 11 21:40:04 2020.

 --------------------------------------------------------------------
 #N Geom=AllCheck Guess=TCheck SCRF=Check GenChk RB3LYP/6-31G(d) Freq
 --------------------------------------------------------------------

 Structure from the checkpoint file:  "JID_8691.chk"
 ------------------------------
 CID_53264507_JID_8691_neutraal
 ------------------------------
 Charge =  0 Multiplicity = 1

 SCF Done:  E(RB3LYP) =  -821.818401977     A.U. after    1 cycles

  Exact polarizability: 244.333   3.825 169.680  -9.060  -2.337  81.300
 Approx polarizability: 365.186  16.354 296.390 -26.100  -7.299 125.816

                      1                      2                      3
                      A                      A                      A
 Frequencies --     38.4004                46.4370                69.2646
 Red. masses --      2.7919                 4.6435                 5.2868
 Frc consts  --      0.0024                 0.0059                 0.0149
 IR Inten    --      0.0181                 2.3210                 1.5515

                      4                      5                      6
                      A                      A                      A
 Frequencies --     99.5245               115.7018               155.5024
 Red. masses --      4.4864                 4.0073                 3.5636
 Frc consts  --      0.0262                 0.0316                 0.0508
 IR Inten    --      1.1712                 1.4521                 0.4811

                      7                      8                      9
                      A                      A                      A
 Frequencies --    163.3907               224.5107               231.3103
 Red. masses --      3.0297                 4.4575                 1.3350
 Frc consts  --      0.0477                 0.1324                 0.0421
 IR Inten    --      0.5953                 1.7560                 0.2351

                     10                     11                     12
                      A                      A                      A
 Frequencies --    273.3899               294.3327               307.8865
 Red. masses --      5.1923                 3.0810                 5.1675
 Frc consts  --      0.2287                 0.1573                 0.2886
 IR Inten    --      6.8662                 3.5005                 4.4132

                     13                     14                     15
                      A                      A                      A
 Frequencies --    345.1914               372.2521               410.6292
 Red. masses --      2.9861                 4.2630                 4.2897
 Frc consts  --      0.2096                 0.3480                 0.4262
 IR Inten    --      0.5257                 1.9973                 1.2518

                     16                     17                     18
                      A                      A                      A
 Frequencies --    429.0545               448.4431               485.9329
 Red. masses --      5.1756                 3.7272                 4.2025
 Frc consts  --      0.5614                 0.4416                 0.5847
 IR Inten    --      1.3417                 2.5403                 0.5454

                     19                     20                     21
                      A                      A                      A
 Frequencies --    508.3557               546.1620               565.3209
 Red. masses --      4.6577                 4.2574                 4.8106
 Frc consts  --      0.7092                 0.7482                 0.9058
 IR Inten    --      3.1390                 7.4026                 2.9322

                     22                     23                     24
                      A                      A                      A
 Frequencies --    614.7472               619.1566               636.8090
 Red. masses --      4.2580                 3.7484                 4.8778
 Frc consts  --      0.9481                 0.8466                 1.1654
 IR Inten    --      4.9795                 3.5046                 7.6440

                     25                     26                     27
                      A                      A                      A
 Frequencies --    682.1551               697.8848               739.9760
 Red. masses --      6.5000                 5.9571                 4.3581
 Frc consts  --      1.7821                 1.7094                 1.4060
 IR Inten    --      0.1681                 2.2496                 4.1514

                     28                     29                     30
                      A                      A                      A
 Frequencies --    759.1415               791.4110               803.1783
 Red. masses --      6.9616                 4.6319                 1.3372
 Frc consts  --      2.3638                 1.7093                 0.5082
 IR Inten    --     12.6706                27.2981                 0.7184

                     31                     32                     33
                      A                      A                      A
 Frequencies --    803.6780               854.9507               861.7384
 Red. masses --      3.3623                 3.8926                 1.6415
 Frc consts  --      1.2795                 1.6764                 0.7182
 IR Inten    --      4.8565                 0.5571                27.1207

                     34                     35                     36
                      A                      A                      A
 Frequencies --    915.2068               918.6744               957.5802
 Red. masses --      1.4952                 3.0447                 3.0893
 Frc consts  --      0.7379                 1.5140                 1.6690
 IR Inten    --      4.4326                12.8474                 9.5334

                     37                     38                     39
                      A                      A                      A
 Frequencies --    972.1586               988.4258               999.4918
 Red. masses --      1.4469                 1.3136                 2.8832
 Frc consts  --      0.8057                 0.7561                 1.6970
 IR Inten    --      3.6553                 0.4896                28.6574

                     40                     41                     42
                      A                      A                      A
 Frequencies --   1003.2157              1057.6517              1087.5826
 Red. masses --      2.7646                 2.5422                 1.9010
 Frc consts  --      1.6394                 1.6755                 1.3248
 IR Inten    --     32.7295                45.8551                12.6149

                     43                     44                     45
                      A                      A                      A
 Frequencies --   1102.4940              1107.3440              1123.1507
 Red. masses --      1.7559                 2.2212                 3.2173
 Frc consts  --      1.2575                 1.6047                 2.3912
 IR Inten    --      7.4608                 0.7327                 7.7213

                     46                     47                     48
                      A                      A                      A
 Frequencies --   1162.0213              1166.0474              1202.2682
 Red. masses --      1.7102                 4.3000                 2.6490
 Frc consts  --      1.3606                 3.4447                 2.2559
 IR Inten    --     41.4915                43.6356                89.5718

                     49                     50                     51
                      A                      A                      A
 Frequencies --   1223.7354              1254.2348              1273.5405
 Red. masses --      3.7493                 2.3329                 1.1920
 Frc consts  --      3.3081                 2.1622                 1.1391
 IR Inten    --     16.0216               105.8435                 0.4405

                     52                     53                     54
                      A                      A                      A
 Frequencies --   1281.5464              1291.2276              1314.1237
 Red. masses --      1.8238                 1.4227                 1.5483
 Frc consts  --      1.7648                 1.3975                 1.5754
 IR Inten    --      0.2334                 3.3859                 7.8910

                     55                     56                     57
                      A                      A                      A
 Frequencies --   1348.8288              1368.3247              1374.8573
 Red. masses --      1.3063                 1.8645                 3.1378
 Frc consts  --      1.4003                 2.0568                 3.4945
 IR Inten    --     86.9908                14.9777               159.5643

                     58                     59                     60
                      A                      A                      A
 Frequencies --   1405.3677              1407.7776              1435.2731
 Red. masses --      1.8877                 2.1539                 1.4545
 Frc consts  --      2.1967                 2.5151                 1.7654
 IR Inten    --    197.4137                34.6379                 5.6331

                     61                     62                     63
                      A                      A                      A
 Frequencies --   1437.5376              1455.2756              1469.4449
 Red. masses --      1.3017                 3.2705                 2.3379
 Frc consts  --      1.5848                 4.0809                 2.9743
 IR Inten    --      4.7310                 3.4837                89.9326

                     64                     65                     66
                      A                      A                      A
 Frequencies --   1483.0035              1517.2520              1519.6232
 Red. masses --      3.0771                 1.0745                 1.1144
 Frc consts  --      3.9873                 1.4573                 1.5162
 IR Inten    --     61.1198                 1.5042                24.9912

                     67                     68                     69
                      A                      A                      A
 Frequencies --   1525.9354              1526.4634              1538.1912
 Red. masses --      1.1850                 1.0424                 1.0931
 Frc consts  --      1.6257                 1.4311                 1.5238
 IR Inten    --     10.0314                 6.3451                 2.7408

                     70                     71                     72
                      A                      A                      A
 Frequencies --   1556.8882              1611.4122              1647.4816
 Red. masses --      3.1958                 7.7009                 7.6927
 Frc consts  --      4.5640                11.7817                12.3018
 IR Inten    --     71.8255                60.9758               137.6708

                     73                     74                     75
                      A                      A                      A
 Frequencies --   1680.9773              1810.7525              3043.8430
 Red. masses --      6.2381                12.6545                 1.0619
 Frc consts  --     10.3854                24.4463                 5.7968
 IR Inten    --      2.1070               368.4630                32.7769

                     76                     77                     78
                      A                      A                      A
 Frequencies --   3050.8571              3056.0483              3065.3644
 Red. masses --      1.0346                 1.0682                 1.0643
 Frc consts  --      5.6739                 5.8781                 5.8924
 IR Inten    --     34.4448                22.2826                29.3732

                     79                     80                     81
                      A                      A                      A
 Frequencies --   3083.0091              3121.5259              3125.0645
 Red. masses --      1.1016                 1.1028                 1.1036
 Frc consts  --      6.1694                 6.3309                 6.3499
 IR Inten    --      8.3974                46.5976                33.0690

                     82                     83                     84
                      A                      A                      A
 Frequencies --   3132.8062              3140.8934              3182.5157
 Red. masses --      1.1031                 1.0983                 1.0889
 Frc consts  --      6.3785                 6.3836                 6.4982
 IR Inten    --      8.7066                32.3668                15.7353

                     85                     86                     87
                      A                      A                      A
 Frequencies --   3210.4806              3220.4436              3222.6911
 Red. masses --      1.0905                 1.0903                 1.0931
 Frc consts  --      6.6221                 6.6623                 6.6886
 IR Inten    --      2.1853                 7.3313                 5.7437

 - Thermochemistry -
 -------------------
 Temperature   298.150 Kelvin.  Pressure   1.00000 Atm.
 Atom     1 has atomic number  6 and mass  12.00000

 Molecular mass:   243.08954 amu.
 Principal axes and moments of inertia in atomic units:
                           1         2         3
     Eigenvalues --  2030.602806895.065428578.82160
           X            0.99997   0.00142   0.00742
           Y           -0.00144   0.99999   0.00341
           Z           -0.00741  -0.00342   0.99997
 This molecule is an asymmetric top.
 Rotational symmetry number  1.
 Warning -- assumption of classical behavior for rotation
           may cause significant error
 Rotational temperatures (Kelvin)      0.04265     0.01256     0.01010
 Rotational constants (GHZ):           0.88877     0.26174     0.21037
 Zero-point vibrational energy     653004.1 (Joules/Mol)
                                  156.07171 (Kcal/Mol)
 Warning -- explicit consideration of  23 degrees of freedom as
           vibrations may cause significant error
 Vibrational temperatures:     55.25    66.81    99.66   143.19   166.47
          (Kelvin)            223.73   235.08   323.02   332.80   393.35
                              423.48   442.98   496.65   535.59   590.80
                              617.31   645.21   699.15   731.41   785.81
                              813.37   884.48   890.83   916.23   981.47
                             1004.10  1064.66  1092.24  1138.66  1155.59
                             1156.31  1230.08  1239.85  1316.78  1321.77
                             1377.74  1398.72  1422.12  1438.05  1443.40
                             1521.72  1564.79  1586.24  1593.22  1615.96
                             1671.89  1677.68  1729.80  1760.68  1804.56
                             1832.34  1843.86  1857.79  1890.73  1940.66
                             1968.71  1978.11  2022.01  2025.48  2065.04
                             2068.30  2093.82  2114.20  2133.71  2182.99
                             2186.40  2195.48  2196.24  2213.11  2240.01
                             2318.46  2370.36  2418.55  2605.27  4379.41
                             4389.50  4396.97  4410.38  4435.76  4491.18
                             4496.27  4507.41  4519.05  4578.93  4619.17
                             4633.50  4636.73

 Zero-point correction=                           0.248716 (Hartree/Particle)
 Thermal correction to Energy=                    0.263332
 Thermal correction to Enthalpy=                  0.264276
 Thermal correction to Gibbs Free Energy=         0.206236
 Sum of electronic and zero-point Energies=           -821.569686
 Sum of electronic and thermal Energies=              -821.555070
 Sum of electronic and thermal Enthalpies=            -821.554126
 Sum of electronic and thermal Free Energies=         -821.612166

                     E (Thermal)             CV                S
                      KCal/Mol        Cal/Mol-Kelvin    Cal/Mol-Kelvin
 Total                  165.243             57.072            122.156
 Electronic               0.000              0.000              0.000
 Translational            0.889              2.981             42.366
 Rotational               0.889              2.981             33.151
 Vibrational            163.466             51.110             46.639
 Vibration     1          0.594              1.982              5.340
 Vibration     2          0.595              1.979              4.964
 Vibration     3          0.598              1.969              4.174
 Vibration     4          0.604              1.949              3.464
 Vibration     5          0.608              1.936              3.171
 Vibration     6          0.620              1.897              2.604
 Vibration     7          0.623              1.887              2.510
 Vibration     8          0.649              1.804              1.922
 Vibration     9          0.653              1.793              1.869
 Vibration    10          0.676              1.722              1.575
 Vibration    11          0.689              1.684              1.449
 Vibration    12          0.698              1.659              1.374
 Vibration    13          0.724              1.585              1.188
 Vibration    14          0.744              1.529              1.070
 Vibration    15          0.775              1.447              0.924
 Vibration    16          0.790              1.407              0.862
 Vibration    17          0.807              1.364              0.800
 Vibration    18          0.842              1.281              0.694
 Vibration    19          0.864              1.231              0.638
 Vibration    20          0.901              1.148              0.552
 Vibration    21          0.921              1.106              0.513
 Vibration    22          0.974              1.001              0.425
 Vibration    23          0.979              0.991              0.418

 Optimization completed.
    -- Stationary point found.
 Normal termination of Gaussian 16 at Fri Dec 11 21:50:50 2020.

 ----------------------------------------------------------------------
 # B3LYP/6-311++G(d,p) empiricaldispersion=gd3bj scf=xqc pop=npa geom=c
 heck
 ----------------------------------------------------------------------

 --------------------------------------
 CID_53264507_JID_8691_Energie_neutraal
 --------------------------------------
 Structure from the checkpoint file:  "JID_8691.chk"
 Charge =  0 Multiplicity = 1

 SCF Done:  E(RB3LYP) =  -822.034339172     A.U. after   16 cycles
 Normal termination of Gaussian 16 at Fri Dec 11 21:55:37 2020.

 ----------------------------------------------------------------------
 # B3LYP/6-311++G(d,p) empiricaldispersion=gd3bj scf=xqc pop=npa geom=c
 heck
 ----------------------------------------------------------------------

 ------------------------------------
 CID_53264507_JID_8691_Energie_kation
 ------------------------------------
 Structure from the checkpoint file:  "JID_8691.chk"
 Charge =  1 Multiplicity = 2

 SCF Done:  E(UB3LYP) =  -821.732645510     A.U. after   24 cycles
 Normal termination of Gaussian 16 at Fri Dec 11 22:05:37 2020.
 Gaussian 16:  ES64L-G16RevA.03 25-Dec-2016

 ----------------------------------------------------------------------
 # B3LYP/6-311++G(d,p) empiricaldispersion=gd3bj scf=xqc pop=npa geom=c
 heck
 ----------------------------------------------------------------------

 -----------------------------------
 CID_53264507_JID_8691_Energie_anion
 -----------------------------------
 Structure from the checkpoint file:  "JID_8691.chk"
 Charge = -1 Multiplicity = 2

                         Standard orientation:
 ---------------------------------------------------------------------
 Center     Atomic      Atomic             Coordinates (Angstroms)
 Number     Number       Type             X           Y           Z
 ---------------------------------------------------------------------
      1          6           0       -4.949800   -1.217484   -0.991866
      2          6           0       -4.205619   -1.160997    0.352492
      3          6           0       -3.018256   -0.227770    0.311057
      4          6           0       -1.730376   -0.709773    0.178173
      5          6           0       -0.623458    0.169837    0.099004
      6          6           0        0.723614   -0.305125   -0.030205
      7          6           0        1.764774    0.620038   -0.101119
      8          6           0        1.393870    2.008057   -0.059760
      9          7           0        0.183868    2.483184    0.071866
     10          6           0       -0.837445    1.574510    0.151599
     11          6           0       -2.161771    2.053933    0.288342
     12          6           0       -3.218499    1.175983    0.365638
     13          6           0        3.238830    0.423379   -0.270304
     14          8           0        3.940408    1.287329   -0.746666
     15          8           0        3.855002   -0.712462    0.160588
     16          6           0        3.107927   -1.775981    0.738576
     17          6           0        2.057531   -2.311911   -0.215250
     18          8           0        0.802434   -1.652229   -0.082116
     19          1           0       -5.312184   -0.225158   -1.282464
     20          1           0       -5.812017   -1.891021   -0.935266
     21          1           0       -4.285952   -1.573887   -1.786908
     22          1           0       -4.901113   -0.835979    1.137215
     23          1           0       -3.870615   -2.167958    0.627198
     24          1           0       -1.553792   -1.778631    0.135015
     25          1           0        2.204350    2.726643   -0.138968
     26          1           0       -2.303529    3.128673    0.331102
     27          1           0       -4.230842    1.558339    0.473425
     28          1           0        2.642789   -1.468363    1.683553
     29          1           0        3.850423   -2.547998    0.952338
     30          1           0        2.420820   -2.227955   -1.247648
     31          1           0        1.833895   -3.360264   -0.004372
 ---------------------------------------------------------------------

 SCF Done:  E(UB3LYP) =  -822.053974376     A.U. after   30 cycles

 The electronic state is 2-A.
 Alpha  occ. eigenvalues --  -19.03626 -19.03543 -18.95274 -14.15349 -10.15301
 Alpha  occ. eigenvalues --  -10.13152 -10.13061 -10.09226 -10.06629 -10.06575
 Alpha  occ. eigenvalues --  -10.06498 -10.06133 -10.04665 -10.04095 -10.03997
 Alpha  occ. eigenvalues --  -10.03011 -10.02727 -10.02548  -0.97540  -0.95501
 Alpha  occ. eigenvalues --   -0.88293  -0.79879  -0.71909  -0.68761  -0.66555
 Alpha  occ. eigenvalues --   -0.64444  -0.61496  -0.59934  -0.57177  -0.52830
 Alpha  occ. eigenvalues --   -0.50459  -0.48197  -0.46349  -0.45067  -0.42091
 Alpha  occ. eigenvalues --   -0.40877  -0.40240  -0.36472  -0.35172  -0.34880
 Alpha  occ. eigenvalues --   -0.34281  -0.33652  -0.31651  -0.31048  -0.30592
 Alpha  occ. eigenvalues --   -0.30311  -0.29118  -0.28525  -0.27870  -0.27117
 Alpha  occ. eigenvalues --   -0.26593  -0.24696  -0.24323  -0.23309  -0.21637
 Alpha  occ. eigenvalues --   -0.21446  -0.20723  -0.19983  -0.17565  -0.14377
 Alpha  occ. eigenvalues --   -0.13882  -0.11563  -0.11364  -0.09462   0.03579
 Alpha virt. eigenvalues --    0.06966   0.07256   0.09352   0.09429   0.09739
 Alpha virt. eigenvalues --    0.10107   0.10474   0.11164   0.11852   0.11996
 Alpha virt. eigenvalues --    0.12988   0.13185   0.13988   0.14164   0.14626

  Beta  occ. eigenvalues --  -19.03593 -19.03436 -18.95033 -14.15212 -10.15155
  Beta  occ. eigenvalues --  -10.13156 -10.13054 -10.08704 -10.06623 -10.06607
  Beta  occ. eigenvalues --  -10.06499 -10.06072 -10.04743 -10.04169 -10.03923
  Beta  occ. eigenvalues --  -10.02779 -10.02467 -10.02457  -0.97361  -0.95217
  Beta  occ. eigenvalues --   -0.87944  -0.79654  -0.71687  -0.68416  -0.66456
  Beta  occ. eigenvalues --   -0.64169  -0.61145  -0.59662  -0.56977  -0.52739
  Beta  occ. eigenvalues --   -0.49916  -0.48069  -0.46184  -0.44844  -0.41875
  Beta  occ. eigenvalues --   -0.40669  -0.40138  -0.36342  -0.35099  -0.34649
  Beta  occ. eigenvalues --   -0.34049  -0.33431  -0.31467  -0.30904  -0.30306
  Beta  occ. eigenvalues --   -0.30075  -0.28903  -0.28108  -0.27609  -0.27012
  Beta  occ. eigenvalues --   -0.25961  -0.24570  -0.24206  -0.22632  -0.21468
  Beta  occ. eigenvalues --   -0.21297  -0.20511  -0.19305  -0.16881  -0.14039
  Beta  occ. eigenvalues --   -0.12768  -0.11387  -0.10525  -0.08112
  Beta virt. eigenvalues --    0.06874   0.07201   0.09182   0.09324   0.09372
  Beta virt. eigenvalues --    0.09760   0.10369   0.10467   0.11133   0.11854
  Beta virt. eigenvalues --    0.11965   0.12980   0.13286   0.14012   0.14732

 Mulliken charges and spin densities:
               1          2
     1  C   -0.609095  -0.019531
     2  C   -0.423150   0.049124
     3  C    1.131733  -0.086942
     4  C   -0.669600   0.222700
     5  C    1.243850  -0.078007
     6  C    0.792242   0.277386
     7  C    0.023531   0.127410
     8  C   -0.019391  -0.040275
     9  N    0.001187   0.061328
    10  C   -1.934290   0.049421
    11  C   -0.688280   0.065498
    12  C   -0.264133   0.170510
    13  C   -0.285049   0.031907
    14  O   -0.364438   0.081887
    15  O   -0.094002   0.006534
    16  C   -0.291652  -0.048058
    17  C   -0.197822   0.005079
    18  O   -0.110524   0.030676
    19  H    0.127933   0.008947
    20  H    0.075696   0.016857
    21  H    0.136799  -0.004262
    22  H    0.127936  -0.004780
    23  H    0.127820   0.017203
    24  H    0.154699  -0.019534
    25  H    0.215384   0.000347
    26  H    0.135656  -0.006005
    27  H    0.107040  -0.016220
    28  H    0.145819   0.034050
    29  H    0.125621   0.035546
    30  H    0.168593   0.022005
    31  H    0.109886   0.009199
 Sum of Mulliken charges =  -1.00000   1.00000

 Dipole moment (field-independent basis, Debye):
    X=             -3.1839    Y=             -6.6342    Z=              1.1469  Tot=              7.4475
 Quadrupole moment (field-independent basis, Debye-Ang):
   XX=           -159.8419   YY=           -123.3109   ZZ=           -114.2557
   XY=            -12.0477   XZ=              6.6794   YZ=              0.8499

 Summary of Natural Population Analysis:

                                       Natural Population
                Natural  -----------------------------------------------
    Atom  No    Charge         Core      Valence    Rydberg      Total
 -----------------------------------------------------------------------
      C    1   -0.28176      0.99967     2.27780    0.00429     3.28176
      C    2   -0.19350      0.99962     2.18532    0.00856     3.19350
      C    3   -0.03875      0.99941     2.02963    0.00972     3.03875
      C    4   -0.06044      0.99955     2.04603    0.01486     3.06044
      C    5   -0.01378      0.99946     2.00424    0.01007     3.01378
      C    6    0.26366      0.99939     1.71962    0.01734     2.73634
      C    7   -0.15072      0.99943     2.14025    0.01104     3.15072
      C    8    0.05621      0.99961     1.92976    0.01443     2.94379
      N    9   -0.23582      0.99968     2.72393    0.01220     3.73582
      C   10    0.08076      0.99953     1.90387    0.01584     2.91924
      C   11   -0.09120      0.99956     2.08145    0.01020     3.09120
      C   12   -0.05474      0.99944     2.04605    0.00926     3.05474
      C   13    0.41341      0.99962     1.56164    0.02532     2.58659
      O   14   -0.28861      0.99987     3.28224    0.00650     4.28861
      O   15   -0.28521      0.99986     3.27555    0.00980     4.28521
      C   16   -0.03002      0.99959     2.01954    0.01089     3.03002
      C   17   -0.02225      0.99958     2.01209    0.01058     3.02225
      O   18   -0.26463      0.99985     3.25544    0.00935     4.26463
      H   19    0.09663      0.00000     0.40234    0.00104     0.40337
      H   20    0.08819      0.00000     0.41064    0.00117     0.41181
      H   21    0.09724      0.00000     0.40169    0.00107     0.40276
      H   22    0.09160      0.00000     0.40698    0.00142     0.40840
      H   23    0.09361      0.00000     0.40499    0.00140     0.40639
      H   24    0.09669      0.00000     0.40188    0.00143     0.40331
      H   25    0.09470      0.00000     0.40391    0.00139     0.40530
      H   26    0.09557      0.00000     0.40215    0.00229     0.40443
      H   27    0.08525      0.00000     0.41284    0.00192     0.41475
      H   28    0.09250      0.00000     0.40590    0.00160     0.40750
      H   29    0.09113      0.00000     0.40737    0.00150     0.40887
      H   30    0.08847      0.00000     0.40971    0.00182     0.41153
      H   31    0.08898      0.00000     0.40952    0.00149     0.41102
 =======================================================================
   * Total *    0.00317     17.99272    45.77433    0.22977    63.99683

 Normal termination of Gaussian 16 at Fri Dec 11 22:18:04 2020.
