 Gaussian 16, Revision A.03,

 -----------------------------------------------------------
 # opt freq B3LYP/6-31G(d) empiricaldispersion=gd3bj scf=xqc
 -----------------------------------------------------------

 -------------------------------
 CID_150507477_JID_1517_neutraal
 -------------------------------
 Symbolic Z-matrix:
 Charge =  0 Multiplicity = 1

 SCF Done:  E(RB3LYP) =  -520.358779537     A.U. after   14 cycles
 SCF Done:  E(RB3LYP) =  -520.361498802     A.U. after   11 cycles
 SCF Done:  E(RB3LYP) =  -520.361799296     A.U. after   11 cycles
 SCF Done:  E(RB3LYP) =  -520.361862298     A.U. after   10 cycles
 SCF Done:  E(RB3LYP) =  -520.361860849     A.U. after   10 cycles
 SCF Done:  E(RB3LYP) =  -520.361866923     A.U. after   10 cycles
 SCF Done:  E(RB3LYP) =  -520.361874102     A.U. after    8 cycles
 SCF Done:  E(RB3LYP) =  -520.361879321     A.U. after    9 cycles
 SCF Done:  E(RB3LYP) =  -520.361884920     A.U. after   10 cycles
 SCF Done:  E(RB3LYP) =  -520.361887431     A.U. after    9 cycles
 SCF Done:  E(RB3LYP) =  -520.361889830     A.U. after    9 cycles
 SCF Done:  E(RB3LYP) =  -520.361890834     A.U. after    8 cycles
 SCF Done:  E(RB3LYP) =  -520.361891400     A.U. after    7 cycles
 SCF Done:  E(RB3LYP) =  -520.361892188     A.U. after    7 cycles
 SCF Done:  E(RB3LYP) =  -520.361892654     A.U. after    8 cycles
 SCF Done:  E(RB3LYP) =  -520.361892686     A.U. after    7 cycles
 Optimization completed.
    -- Stationary point found.
 Normal termination of Gaussian 16 at Tue Dec  8 20:20:43 2020.

 --------------------------------------------------------------------
 #N Geom=AllCheck Guess=TCheck SCRF=Check GenChk RB3LYP/6-31G(d) Freq
 --------------------------------------------------------------------

 Structure from the checkpoint file:  "JID_1517.chk"
 -------------------------------
 CID_150507477_JID_1517_neutraal
 -------------------------------
 Charge =  0 Multiplicity = 1

 SCF Done:  E(RB3LYP) =  -520.361892686     A.U. after    1 cycles

  Exact polarizability: 111.265  -0.883  94.905  -3.841   2.983  81.791
 Approx polarizability: 136.399  -1.528 140.867  -7.790   8.767 118.841

                      1                      2                      3
                      A                      A                      A
 Frequencies --     39.1430                44.5824                73.0135
 Red. masses --      2.9451                 3.4963                 3.3466
 Frc consts  --      0.0027                 0.0041                 0.0105
 IR Inten    --      2.4959                 0.1846                 0.2864

                      4                      5                      6
                      A                      A                      A
 Frequencies --     82.9543               128.8220               138.6355
 Red. masses --      2.8052                 1.7123                 2.0012
 Frc consts  --      0.0114                 0.0167                 0.0227
 IR Inten    --      0.1680                 0.4976                 0.7906

                      7                      8                      9
                      A                      A                      A
 Frequencies --    171.0657               195.4649               228.2056
 Red. masses --      1.6483                 2.1183                 2.7581
 Frc consts  --      0.0284                 0.0477                 0.0846
 IR Inten    --      0.5241                 0.5352                 3.3436

                     10                     11                     12
                      A                      A                      A
 Frequencies --    247.4091               274.2880               319.8194
 Red. masses --      1.2129                 1.5679                 2.6653
 Frc consts  --      0.0437                 0.0695                 0.1606
 IR Inten    --      0.4491                 0.2305                 1.7642

                     13                     14                     15
                      A                      A                      A
 Frequencies --    357.6050               386.6012               418.9652
 Red. masses --      2.1811                 2.8664                 3.3677
 Frc consts  --      0.1643                 0.2524                 0.3483
 IR Inten    --      0.3384                 1.7325                 9.8111

                     16                     17                     18
                      A                      A                      A
 Frequencies --    465.5707               495.8219               544.6152
 Red. masses --      2.3179                 2.8865                 1.1190
 Frc consts  --      0.2960                 0.4181                 0.1956
 IR Inten    --      1.2781                 8.4152                89.4235

                     19                     20                     21
                      A                      A                      A
 Frequencies --    581.8381               629.2864               733.3388
 Red. masses --      3.5119                 4.4765                 1.4947
 Frc consts  --      0.7005                 1.0444                 0.4736
 IR Inten    --     34.7166                16.8583                 8.0414

                     22                     23                     24
                      A                      A                      A
 Frequencies --    764.4373               770.2655               825.3176
 Red. masses --      8.8496                 2.0329                 2.2125
 Frc consts  --      3.0469                 0.7106                 0.8879
 IR Inten    --     42.4503                 0.3146                 0.6544

                     25                     26                     27
                      A                      A                      A
 Frequencies --    848.2246               913.1156               932.1799
 Red. masses --      1.8213                 1.5498                 1.5803
 Frc consts  --      0.7721                 0.7614                 0.8091
 IR Inten    --      0.4622                 0.6417                 0.1580

                     28                     29                     30
                      A                      A                      A
 Frequencies --    985.0676               998.2683              1047.3854
 Red. masses --      1.7656                 1.9332                 1.4377
 Frc consts  --      1.0094                 1.1351                 0.9292
 IR Inten    --      7.7430                 4.0418                 0.3036

                     31                     32                     33
                      A                      A                      A
 Frequencies --   1061.6826              1103.9216              1129.1645
 Red. masses --      1.7844                 2.0752                 1.6714
 Frc consts  --      1.1851                 1.4900                 1.2556
 IR Inten    --      3.8494                11.1339               171.1080

                     34                     35                     36
                      A                      A                      A
 Frequencies --   1161.9777              1166.3813              1175.4371
 Red. masses --      1.4593                 2.0520                 1.9173
 Frc consts  --      1.1609                 1.6448                 1.5608
 IR Inten    --      7.4645               128.6323                28.0180

                     37                     38                     39
                      A                      A                      A
 Frequencies --   1181.2644              1225.8540              1271.0689
 Red. masses --      2.0909                 2.3596                 1.4643
 Frc consts  --      1.7190                 2.0891                 1.3939
 IR Inten    --     21.6172                28.0038                 4.0225

                     40                     41                     42
                      A                      A                      A
 Frequencies --   1288.5658              1303.5067              1333.0227
 Red. masses --      1.7256                 1.5483                 1.2090
 Frc consts  --      1.6881                 1.5500                 1.2658
 IR Inten    --     46.7438                38.2978                 1.8155

                     43                     44                     45
                      A                      A                      A
 Frequencies --   1368.7489              1388.7712              1403.7467
 Red. masses --      1.2730                 1.4446                 1.3381
 Frc consts  --      1.4051                 1.6416                 1.5535
 IR Inten    --      6.6732                 4.7150                 4.0321

                     46                     47                     48
                      A                      A                      A
 Frequencies --   1410.4467              1422.7613              1436.6539
 Red. masses --      1.4355                 1.4172                 1.4578
 Frc consts  --      1.6826                 1.6902                 1.7728
 IR Inten    --     25.2244                36.9724                66.6114

                     49                     50                     51
                      A                      A                      A
 Frequencies --   1444.5916              1467.8274              1509.9717
 Red. masses --      1.2758                 1.3271                 1.0629
 Frc consts  --      1.5686                 1.6847                 1.4278
 IR Inten    --     12.0121                22.9298                 5.2049

                     52                     53                     54
                      A                      A                      A
 Frequencies --   1518.4379              1522.5362              1525.9812
 Red. masses --      1.3992                 1.0580                 1.0465
 Frc consts  --      1.9007                 1.4450                 1.4357
 IR Inten    --     48.1706                 7.9514                10.9132

                     55                     56                     57
                      A                      A                      A
 Frequencies --   1526.7996              1530.7486              1535.7129
 Red. masses --      1.0673                 1.0731                 1.0607
 Frc consts  --      1.4659                 1.4814                 1.4739
 IR Inten    --      1.6005                 3.1887                 2.3345

                     58                     59                     60
                      A                      A                      A
 Frequencies --   1541.0864              1546.3778              1553.8408
 Red. masses --      1.0684                 1.0721                 1.3623
 Frc consts  --      1.4951                 1.5105                 1.9380
 IR Inten    --      6.3387                 2.3078                91.4021

                     61                     62                     63
                      A                      A                      A
 Frequencies --   1813.9624              3031.1896              3033.5218
 Red. masses --      7.6232                 1.0451                 1.0651
 Frc consts  --     14.7790                 5.6576                 5.7749
 IR Inten    --    374.0824                36.5456                26.8093

                     64                     65                     66
                      A                      A                      A
 Frequencies --   3034.5920              3043.1132              3048.7708
 Red. masses --      1.0618                 1.0473                 1.0602
 Frc consts  --      5.7611                 5.7145                 5.8060
 IR Inten    --     26.4204                 6.2773                24.4615

                     67                     68                     69
                      A                      A                      A
 Frequencies --   3062.1558              3065.4569              3069.0674
 Red. masses --      1.0672                 1.0713                 1.0786
 Frc consts  --      5.8958                 5.9315                 5.9861
 IR Inten    --     17.4585                30.0136                26.2658

                     70                     71                     72
                      A                      A                      A
 Frequencies --   3076.9554              3081.2415              3109.3917
 Red. masses --      1.0970                 1.1015                 1.1019
 Frc consts  --      6.1195                 6.1613                 6.2767
 IR Inten    --     55.2562                48.1662                57.6693

                     73                     74                     75
                      A                      A                      A
 Frequencies --   3113.9158              3120.7929              3125.5012
 Red. masses --      1.1011                 1.0957                 1.1017
 Frc consts  --      6.2908                 6.2874                 6.3406
 IR Inten    --     54.8286                12.3036                34.8266

                     76                     77                     78
                      A                      A                      A
 Frequencies --   3168.8767              3206.2596              3738.1647
 Red. masses --      1.1002                 1.0948                 1.0646
 Frc consts  --      6.5093                 6.6310                 8.7648
 IR Inten    --      8.1897                 3.5135                82.6136

 - Thermochemistry -
 -------------------
 Temperature   298.150 Kelvin.  Pressure   1.00000 Atm.
 Atom     1 has atomic number  6 and mass  12.00000

 Molecular mass:   159.12593 amu.
 Principal axes and moments of inertia in atomic units:
                           1         2         3
     Eigenvalues --   965.464423072.786133412.25632
           X            0.99997   0.00146   0.00771
           Y           -0.00128   0.99972  -0.02351
           Z           -0.00775   0.02350   0.99969
 This molecule is an asymmetric top.
 Rotational symmetry number  1.
 Warning -- assumption of classical behavior for rotation
           may cause significant error
 Rotational temperatures (Kelvin)      0.08971     0.02819     0.02538
 Rotational constants (GHZ):           1.86930     0.58733     0.52890
 Zero-point vibrational energy     661780.9 (Joules/Mol)
                                  158.16943 (Kcal/Mol)
 Warning -- explicit consideration of  19 degrees of freedom as
           vibrations may cause significant error
 Vibrational temperatures:     56.32    64.14   105.05   119.35   185.35
          (Kelvin)            199.47   246.13   281.23   328.34   355.97
                              394.64   460.15   514.51   556.23   602.80
                              669.85   713.38   783.58   837.14   905.40
                             1055.11  1099.85  1108.24  1187.45  1220.41
                             1313.77  1341.20  1417.29  1436.29  1506.95
                             1527.52  1588.30  1624.62  1671.83  1678.16
                             1691.19  1699.58  1763.73  1828.78  1853.96
                             1875.46  1917.92  1969.32  1998.13  2019.68
                             2029.32  2047.04  2067.02  2078.45  2111.88
                             2172.51  2184.69  2190.59  2195.55  2196.72
                             2202.41  2209.55  2217.28  2224.89  2235.63
                             2609.89  4361.21  4364.56  4366.10  4378.36
                             4386.50  4405.76  4410.51  4415.70  4427.05
                             4433.22  4473.72  4480.23  4490.12  4496.90
                             4559.31  4613.09  5378.39

 Zero-point correction=                           0.252059 (Hartree/Particle)
 Thermal correction to Energy=                    0.265412
 Thermal correction to Enthalpy=                  0.266356
 Thermal correction to Gibbs Free Energy=         0.211607
 Sum of electronic and zero-point Energies=           -520.109834
 Sum of electronic and thermal Energies=              -520.096481
 Sum of electronic and thermal Enthalpies=            -520.095537
 Sum of electronic and thermal Free Energies=         -520.150286

                     E (Thermal)             CV                S
                      KCal/Mol        Cal/Mol-Kelvin    Cal/Mol-Kelvin
 Total                  166.548             48.033            115.229
 Electronic               0.000              0.000              0.000
 Translational            0.889              2.981             41.103
 Rotational               0.889              2.981             30.694
 Vibrational            164.771             42.071             43.432
 Vibration     1          0.594              1.981              5.302
 Vibration     2          0.595              1.980              5.044
 Vibration     3          0.599              1.967              4.070
 Vibration     4          0.600              1.961              3.820
 Vibration     5          0.611              1.924              2.964
 Vibration     6          0.614              1.915              2.823
 Vibration     7          0.626              1.878              2.424
 Vibration     8          0.636              1.846              2.175
 Vibration     9          0.651              1.798              1.893
 Vibration    10          0.661              1.767              1.749
 Vibration    11          0.677              1.721              1.569
 Vibration    12          0.706              1.636              1.311
 Vibration    13          0.733              1.560              1.132
 Vibration    14          0.755              1.499              1.013
 Vibration    15          0.782              1.429              0.895
 Vibration    16          0.823              1.326              0.750
 Vibration    17          0.851              1.259              0.669
 Vibration    18          0.900              1.151              0.555
 Vibration    19          0.939              1.071              0.482

 Optimization completed.
    -- Stationary point found.
 Normal termination of Gaussian 16 at Tue Dec  8 20:27:16 2020.

 ----------------------------------------------------------------------
 # B3LYP/6-311++G(d,p) empiricaldispersion=gd3bj scf=xqc pop=npa geom=c
 heck
 ----------------------------------------------------------------------

 ---------------------------------------
 CID_150507477_JID_1517_Energie_neutraal
 ---------------------------------------
 Structure from the checkpoint file:  "JID_1517.chk"
 Charge =  0 Multiplicity = 1

 SCF Done:  E(RB3LYP) =  -520.522931861     A.U. after   14 cycles
 Normal termination of Gaussian 16 at Tue Dec  8 20:31:26 2020.

 ----------------------------------------------------------------------
 # B3LYP/6-311++G(d,p) empiricaldispersion=gd3bj scf=xqc pop=npa geom=c
 heck
 ----------------------------------------------------------------------

 -------------------------------------
 CID_150507477_JID_1517_Energie_kation
 -------------------------------------
 Structure from the checkpoint file:  "JID_1517.chk"
 Charge =  1 Multiplicity = 2

 SCF Done:  E(UB3LYP) =  -520.198866550     A.U. after   20 cycles
 Normal termination of Gaussian 16 at Tue Dec  8 20:38:55 2020.
 Gaussian 16:  ES64L-G16RevA.03 25-Dec-2016

 ----------------------------------------------------------------------
 # B3LYP/6-311++G(d,p) empiricaldispersion=gd3bj scf=xqc pop=npa geom=c
 heck
 ----------------------------------------------------------------------

 ------------------------------------
 CID_150507477_JID_1517_Energie_anion
 ------------------------------------
 Structure from the checkpoint file:  "JID_1517.chk"
 Charge = -1 Multiplicity = 2

                         Standard orientation:
 ---------------------------------------------------------------------
 Center     Atomic      Atomic             Coordinates (Angstroms)
 Number     Number       Type             X           Y           Z
 ---------------------------------------------------------------------
      1          6           0       -3.338024    1.311441   -0.427097
      2          6           0       -3.193958   -0.084254    0.187129
      3          6           0       -2.243365   -1.011638   -0.586798
      4          6           0       -0.807781   -0.492291   -0.756171
      5          6           0       -0.090741   -0.146124    0.560317
      6          6           0        0.048235   -1.330276    1.521523
      7          7           0        1.210450    0.505185    0.294792
      8          6           0        1.297870    1.931801    0.572606
      9          6           0        2.203953   -0.194407   -0.309571
     10          8           0        2.159972   -1.373967   -0.633207
     11          8           0        3.325584    0.559904   -0.534228
     12          1           0       -2.392654    1.865547   -0.404284
     13          1           0       -4.081631    1.907313    0.113567
     14          1           0       -3.656546    1.248663   -1.474918
     15          1           0       -2.860632    0.008842    1.229812
     16          1           0       -4.181668   -0.560933    0.233242
     17          1           0       -2.222693   -1.992241   -0.094880
     18          1           0       -2.659805   -1.186405   -1.588281
     19          1           0       -0.209608   -1.239900   -1.284747
     20          1           0       -0.812828    0.408364   -1.383749
     21          1           0       -0.672248    0.628248    1.071943
     22          1           0        0.586117   -2.152166    1.045891
     23          1           0        0.597283   -1.026840    2.419312
     24          1           0       -0.939973   -1.683742    1.832709
     25          1           0        1.089343    2.122914    1.632276
     26          1           0        2.294496    2.298099    0.338225
     27          1           0        0.565515    2.488229   -0.027909
     28          1           0        3.942820   -0.063292   -0.953901
 ---------------------------------------------------------------------

 SCF Done:  E(UB3LYP) =  -520.508020045     A.U. after   30 cycles

 The electronic state is 2-A.
 Alpha  occ. eigenvalues --  -19.06137 -18.99147 -14.24329 -10.21666 -10.11114
 Alpha  occ. eigenvalues --  -10.09600 -10.06648 -10.06441 -10.06122 -10.05715
 Alpha  occ. eigenvalues --  -10.05410  -1.00607  -0.90819  -0.84377  -0.70988
 Alpha  occ. eigenvalues --   -0.66607  -0.61128  -0.60889  -0.56556  -0.53177
 Alpha  occ. eigenvalues --   -0.48193  -0.45617  -0.40945  -0.38899  -0.37905
 Alpha  occ. eigenvalues --   -0.37442  -0.36511  -0.33959  -0.33069  -0.32017
 Alpha  occ. eigenvalues --   -0.30898  -0.30870  -0.29653  -0.28711  -0.28232
 Alpha  occ. eigenvalues --   -0.27212  -0.25506  -0.24912  -0.23052  -0.22272
 Alpha  occ. eigenvalues --   -0.21823  -0.21475  -0.17701  -0.14664   0.04557
 Alpha virt. eigenvalues --    0.06415   0.07405   0.07794   0.08684   0.09573
 Alpha virt. eigenvalues --    0.10311   0.10835   0.11181   0.11949   0.12272
 Alpha virt. eigenvalues --    0.13130   0.13615   0.14146   0.14426   0.15094

  Beta  occ. eigenvalues --  -19.06106 -18.99137 -14.24326 -10.21664 -10.11103
  Beta  occ. eigenvalues --  -10.09549 -10.06639 -10.06421 -10.06113 -10.05697
  Beta  occ. eigenvalues --  -10.05368  -1.00571  -0.90786  -0.84359  -0.70961
  Beta  occ. eigenvalues --   -0.66571  -0.61075  -0.60829  -0.56509  -0.53115
  Beta  occ. eigenvalues --   -0.48126  -0.45560  -0.40878  -0.38866  -0.37876
  Beta  occ. eigenvalues --   -0.37415  -0.36477  -0.33927  -0.33034  -0.31979
  Beta  occ. eigenvalues --   -0.30864  -0.30827  -0.29611  -0.28680  -0.28205
  Beta  occ. eigenvalues --   -0.27175  -0.25467  -0.24877  -0.23023  -0.22234
  Beta  occ. eigenvalues --   -0.21792  -0.21451  -0.17663  -0.14647
  Beta virt. eigenvalues --    0.06874   0.07433   0.08233   0.08332   0.09243
  Beta virt. eigenvalues --    0.10030   0.10893   0.11339   0.11550   0.12242
  Beta virt. eigenvalues --    0.12864   0.13294   0.13724   0.14402   0.14774

 Mulliken charges and spin densities:
               1          2
     1  C    1.295189  -1.918125
     2  C   -1.019702   0.876620
     3  C    0.425296  -0.792040
     4  C    0.993886  -0.847474
     5  C   -2.442074   1.561169
     6  C    0.616668  -1.202098
     7  N    0.241996  -0.023257
     8  C    1.546473  -1.778918
     9  C    0.100756   0.083771
    10  O   -0.338165  -0.019244
    11  O   -0.255463   0.037815
    12  H   -0.115942   0.273214
    13  H   -0.534124   0.676282
    14  H   -0.136000   0.265187
    15  H   -0.224140   0.352673
    16  H   -0.335613   0.497504
    17  H    0.095473   0.041647
    18  H   -0.027504   0.184787
    19  H    0.209593  -0.014146
    20  H   -0.000512   0.178340
    21  H    0.229963  -0.039238
    22  H    0.084772   0.091284
    23  H   -0.187444   0.337730
    24  H    0.171394  -0.034859
    25  H   -0.586128   0.753427
    26  H   -0.291003   0.460256
    27  H   -0.323377   0.492876
    28  H   -0.194268   0.504820
 Sum of Mulliken charges =  -1.00000   1.00000

 Dipole moment (field-independent basis, Debye):
    X=              1.2586    Y=             -4.3957    Z=             -1.2892  Tot=              4.7506
 Quadrupole moment (field-independent basis, Debye-Ang):
   XX=           -142.9607   YY=           -113.6085   ZZ=           -102.7749
   XY=              5.9106   XZ=              1.8981   YZ=             -4.6440

 Summary of Natural Population Analysis:

                                       Natural Population
                Natural  -----------------------------------------------
    Atom  No    Charge         Core      Valence    Rydberg      Total
 -----------------------------------------------------------------------
      C    1   -0.28718      0.99967     2.28188    0.00563     3.28718
      C    2   -0.19342      0.99964     2.18515    0.00863     3.19342
      C    3   -0.18744      0.99963     2.18074    0.00707     3.18744
      C    4   -0.19781      0.99960     2.19071    0.00750     3.19781
      C    5   -0.00210      0.99959     1.98961    0.01291     3.00210
      C    6   -0.29406      0.99964     2.28784    0.00658     3.29406
      N    7   -0.26183      0.99963     2.74884    0.01337     3.76183
      C    8   -0.17362      0.99963     2.16608    0.00791     3.17362
      C    9    0.46089      0.99967     1.51416    0.02528     2.53911
      O   10   -0.34672      0.99987     3.34120    0.00565     4.34672
      O   11   -0.35541      0.99988     3.34957    0.00596     4.35541
      H   12    0.09710      0.00000     0.40130    0.00160     0.40290
      H   13    0.10154      0.00000     0.39697    0.00150     0.39846
      H   14    0.09444      0.00000     0.40437    0.00119     0.40556
      H   15    0.09334      0.00000     0.40526    0.00140     0.40666
      H   16    0.09551      0.00000     0.40335    0.00114     0.40449
      H   17    0.09502      0.00000     0.40381    0.00117     0.40498
      H   18    0.09561      0.00000     0.40334    0.00105     0.40439
      H   19    0.10993      0.00000     0.38886    0.00120     0.39007
      H   20    0.09885      0.00000     0.39973    0.00142     0.40115
      H   21    0.09865      0.00000     0.39849    0.00287     0.40135
      H   22    0.11062      0.00000     0.38848    0.00090     0.38938
      H   23    0.10195      0.00000     0.39710    0.00095     0.39805
      H   24    0.09904      0.00000     0.40019    0.00077     0.40096
      H   25    0.09677      0.00000     0.40100    0.00222     0.40323
      H   26    0.11228      0.00000     0.38574    0.00198     0.38772
      H   27    0.09469      0.00000     0.40345    0.00187     0.40531
      H   28    0.24338      0.00000     0.25170    0.00492     0.25662
 =======================================================================
   * Total *   -0.00000     10.99643    32.86892    0.13465    44.00000

 Normal termination of Gaussian 16 at Tue Dec  8 20:49:00 2020.
