 Gaussian 16, Revision A.03,

 -----------------------------------------------------------
 # opt freq B3LYP/6-31G(d) empiricaldispersion=gd3bj scf=xqc
 -----------------------------------------------------------

 ------------------------------
 CID_81183400_JID_8408_neutraal
 ------------------------------
 Symbolic Z-matrix:
 Charge =  0 Multiplicity = 1

 SCF Done:  E(RB3LYP) =  -1201.50233327     A.U. after   15 cycles
 SCF Done:  E(RB3LYP) =  -1201.50695044     A.U. after   14 cycles
 SCF Done:  E(RB3LYP) =  -1201.49611936     A.U. after   14 cycles
 SCF Done:  E(RB3LYP) =  -1201.50866099     A.U. after   14 cycles
 SCF Done:  E(RB3LYP) =  -1201.51201189     A.U. after   13 cycles
 SCF Done:  E(RB3LYP) =  -1201.51153279     A.U. after   14 cycles
 SCF Done:  E(RB3LYP) =  -1201.51411426     A.U. after   13 cycles
 SCF Done:  E(RB3LYP) =  -1201.51400594     A.U. after   13 cycles
 SCF Done:  E(RB3LYP) =  -1201.51499506     A.U. after   12 cycles
 SCF Done:  E(RB3LYP) =  -1201.51525901     A.U. after   12 cycles
 SCF Done:  E(RB3LYP) =  -1201.51575182     A.U. after    9 cycles
 SCF Done:  E(RB3LYP) =  -1201.51575231     A.U. after    9 cycles
 SCF Done:  E(RB3LYP) =  -1201.51575253     A.U. after    7 cycles
 SCF Done:  E(RB3LYP) =  -1201.51575259     A.U. after    7 cycles
 SCF Done:  E(RB3LYP) =  -1201.51575260     A.U. after    6 cycles
 Optimization completed.
    -- Stationary point found.
 Normal termination of Gaussian 16 at Fri Dec 11 21:18:42 2020.

 --------------------------------------------------------------------
 #N Geom=AllCheck Guess=TCheck SCRF=Check GenChk RB3LYP/6-31G(d) Freq
 --------------------------------------------------------------------

 Structure from the checkpoint file:  "JID_8408.chk"
 ------------------------------
 CID_81183400_JID_8408_neutraal
 ------------------------------
 Charge =  0 Multiplicity = 1

 SCF Done:  E(RB3LYP) =  -1201.51575260     A.U. after    1 cycles

  Exact polarizability: 187.897 -15.033 125.055   5.890  -3.482 161.846
 Approx polarizability: 280.888 -30.779 183.596  18.922  -6.911 291.976

                      1                      2                      3
                      A                      A                      A
 Frequencies --     32.3279                36.0774                48.1805
 Red. masses --      1.0489                 3.1970                 4.6821
 Frc consts  --      0.0006                 0.0025                 0.0064
 IR Inten    --      0.3346                 0.6438                 1.5425

                      4                      5                      6
                      A                      A                      A
 Frequencies --     72.2839                77.9040                91.5513
 Red. masses --      1.8028                 3.4259                 3.6031
 Frc consts  --      0.0055                 0.0123                 0.0178
 IR Inten    --      1.0847                 4.3883                 0.3687

                      7                      8                      9
                      A                      A                      A
 Frequencies --    125.8705               136.9910               148.1892
 Red. masses --      2.9916                 1.1337                 4.5656
 Frc consts  --      0.0279                 0.0125                 0.0591
 IR Inten    --      4.8457                 0.0980                 0.0757

                     10                     11                     12
                      A                      A                      A
 Frequencies --    165.8932               173.1486               194.6305
 Red. masses --      3.0745                 5.7846                 3.8313
 Frc consts  --      0.0499                 0.1022                 0.0855
 IR Inten    --      3.2097                 1.7585                14.5698

                     13                     14                     15
                      A                      A                      A
 Frequencies --    209.7299               262.7783               264.9783
 Red. masses --      4.8043                 3.2286                 4.5756
 Frc consts  --      0.1245                 0.1314                 0.1893
 IR Inten    --      6.8846                 5.9876                 1.8358

                     16                     17                     18
                      A                      A                      A
 Frequencies --    287.2971               320.6613               340.5785
 Red. masses --      4.2750                 2.7198                 4.0012
 Frc consts  --      0.2079                 0.1648                 0.2735
 IR Inten    --      8.6281                 5.3549                 1.0644

                     19                     20                     21
                      A                      A                      A
 Frequencies --    352.7780               359.7997               386.4153
 Red. masses --      3.6321                 3.0130                 1.8327
 Frc consts  --      0.2663                 0.2298                 0.1612
 IR Inten    --      2.7331                10.6323                 5.2798

                     22                     23                     24
                      A                      A                      A
 Frequencies --    415.6184               433.0386               457.2780
 Red. masses --      2.5529                 2.5517                 3.3307
 Frc consts  --      0.2598                 0.2819                 0.4103
 IR Inten    --     18.3338                 7.8084                21.3935

                     25                     26                     27
                      A                      A                      A
 Frequencies --    469.4413               472.5678               490.0284
 Red. masses --      3.8383                 3.8642                 4.5957
 Frc consts  --      0.4984                 0.5084                 0.6502
 IR Inten    --      7.2120                12.3197                19.6721

                     28                     29                     30
                      A                      A                      A
 Frequencies --    505.0676               549.7199               576.6460
 Red. masses --      3.3363                 4.1033                 4.0657
 Frc consts  --      0.5014                 0.7306                 0.7965
 IR Inten    --     22.7463                46.3881                 4.2119

                     31                     32                     33
                      A                      A                      A
 Frequencies --    581.3191               672.3779               685.9563
 Red. masses --      4.3425                 4.0332                 4.1899
 Frc consts  --      0.8646                 1.0743                 1.1616
 IR Inten    --      0.6621                 6.4946                 7.3452

                     34                     35                     36
                      A                      A                      A
 Frequencies --    722.4074               736.1980               762.1795
 Red. masses --      5.0713                 4.6453                 2.9326
 Frc consts  --      1.5593                 1.4834                 1.0037
 IR Inten    --     27.0052                55.4169                13.5172

                     37                     38                     39
                      A                      A                      A
 Frequencies --    784.5884               822.3308               898.9059
 Red. masses --      4.4952                 1.3336                 3.6949
 Frc consts  --      1.6304                 0.5313                 1.7591
 IR Inten    --     23.9183                30.1473                32.9192

                     40                     41                     42
                      A                      A                      A
 Frequencies --    915.5292               923.2580               937.0274
 Red. masses --      1.5254                 2.7986                 1.2996
 Frc consts  --      0.7533                 1.4055                 0.6723
 IR Inten    --    211.7307                18.3219                 6.5203

                     43                     44                     45
                      A                      A                      A
 Frequencies --    964.7703               968.5253               995.9169
 Red. masses --      1.3203                 2.1078                 2.1985
 Frc consts  --      0.7240                 1.1649                 1.2848
 IR Inten    --      2.9553                 2.4139                11.4511

                     46                     47                     48
                      A                      A                      A
 Frequencies --   1028.2912              1051.1263              1065.4350
 Red. masses --      1.4634                 2.3245                 3.7242
 Frc consts  --      0.9117                 1.5132                 2.4908
 IR Inten    --      0.3369                 6.7964                31.0669

                     49                     50                     51
                      A                      A                      A
 Frequencies --   1078.6154              1095.4205              1109.0129
 Red. masses --      1.5258                 1.4696                 4.4726
 Frc consts  --      1.0459                 1.0390                 3.2411
 IR Inten    --     14.4384                13.3708                99.9683

                     52                     53                     54
                      A                      A                      A
 Frequencies --   1141.5831              1154.1246              1162.5530
 Red. masses --      1.2350                 1.2508                 1.5142
 Frc consts  --      0.9483                 0.9816                 1.2058
 IR Inten    --     15.9909                46.1436                29.9683

                     55                     56                     57
                      A                      A                      A
 Frequencies --   1181.2128              1203.5075              1206.2043
 Red. masses --      1.3829                 1.3621                 1.3938
 Frc consts  --      1.1368                 1.1624                 1.1948
 IR Inten    --      1.6029                26.7563                 1.8809

                     58                     59                     60
                      A                      A                      A
 Frequencies --   1240.6271              1250.8125              1286.4523
 Red. masses --      1.4036                 2.5819                 6.4086
 Frc consts  --      1.2729                 2.3800                 6.2488
 IR Inten    --      9.6640                 3.3314               132.7298

                     61                     62                     63
                      A                      A                      A
 Frequencies --   1291.7515              1293.4507              1339.2703
 Red. masses --      2.7438                 3.9988                 1.5843
 Frc consts  --      2.6975                 3.9417                 1.6743
 IR Inten    --     16.6818                22.2348                21.0440

                     64                     65                     66
                      A                      A                      A
 Frequencies --   1342.2993              1368.5995              1371.3464
 Red. masses --      1.7619                 2.5318                 1.7199
 Frc consts  --      1.8704                 2.7940                 1.9057
 IR Inten    --     22.4394                 7.1858                 2.4784

                     67                     68                     69
                      A                      A                      A
 Frequencies --   1444.3501              1449.7185              1452.2583
 Red. masses --      1.3149                 1.9501                 1.5756
 Frc consts  --      1.6162                 2.4148                 1.9578
 IR Inten    --      1.3466                 1.2605                38.8519

                     70                     71                     72
                      A                      A                      A
 Frequencies --   1464.1135              1490.5927              1506.0309
 Red. masses --      1.5047                 1.0966                 1.2559
 Frc consts  --      1.9005                 1.4356                 1.6783
 IR Inten    --     33.8332                 9.6573                31.1064

                     73                     74                     75
                      A                      A                      A
 Frequencies --   1508.0307              1516.1975              1523.2607
 Red. masses --      1.0852                 1.0455                 1.0681
 Frc consts  --      1.4540                 1.4161                 1.4602
 IR Inten    --     10.9223                 4.6474                 4.1907

                     76                     77                     78
                      A                      A                      A
 Frequencies --   1525.5231              1537.7291              1548.2739
 Red. masses --      1.1061                 1.0468                 2.9278
 Frc consts  --      1.5166                 1.4584                 4.1351
 IR Inten    --      6.3213                 8.6167                70.7907

                     79                     80                     81
                      A                      A                      A
 Frequencies --   1551.4204              1563.0976              1618.3429
 Red. masses --      1.0990                 1.4088                 5.1362
 Frc consts  --      1.5584                 2.0280                 7.9256
 IR Inten    --      5.6279                49.2196                15.0621

                     82                     83                     84
                      A                      A                      A
 Frequencies --   1668.9781              1706.5485              1731.5518
 Red. masses --      5.4466                 2.2524                 1.7794
 Frc consts  --      8.9387                 3.8649                 3.1434
 IR Inten    --      4.1796               264.6164                46.9653

                     85                     86                     87
                      A                      A                      A
 Frequencies --   3044.1796              3044.4683              3052.5045
 Red. masses --      1.0380                 1.0436                 1.0407
 Frc consts  --      5.6677                 5.6993                 5.7133
 IR Inten    --     32.0951                42.4424                44.7144

                     88                     89                     90
                      A                      A                      A
 Frequencies --   3083.2667              3096.4388              3105.5628
 Red. masses --      1.0698                 1.1005                 1.0667
 Frc consts  --      5.9921                 6.2171                 6.0613
 IR Inten    --      7.6946                18.4953                 2.6019

                     91                     92                     93
                      A                      A                      A
 Frequencies --   3109.1819              3118.3888              3127.8209
 Red. masses --      1.1034                 1.0965                 1.1010
 Frc consts  --      6.2843                 6.2821                 6.3463
 IR Inten    --     33.2075                12.3558                14.2956

                     94                     95                     96
                      A                      A                      A
 Frequencies --   3167.1066              3174.0399              3188.2871
 Red. masses --      1.0965                 1.0868                 1.0980
 Frc consts  --      6.4803                 6.4511                 6.5761
 IR Inten    --      4.2884                10.8415                 1.4602

                     97                     98                     99
                      A                      A                      A
 Frequencies --   3191.2357              3194.7068              3200.7241
 Red. masses --      1.0946                 1.0972                 1.0977
 Frc consts  --      6.5678                 6.5976                 6.6256
 IR Inten    --     21.0049                 0.9730                 1.0899

                    100                    101                    102
                      A                      A                      A
 Frequencies --   3219.6091              3418.8437              3567.0214
 Red. masses --      1.0897                 1.0594                 1.0842
 Frc consts  --      6.6551                 7.2956                 8.1281
 IR Inten    --      3.7222               137.3394                20.5634

 - Thermochemistry -
 -------------------
 Temperature   298.150 Kelvin.  Pressure   1.00000 Atm.
 Atom     1 has atomic number  6 and mass  12.00000

 Molecular mass:   270.10381 amu.
 Principal axes and moments of inertia in atomic units:
                           1         2         3
     Eigenvalues --  3835.222114656.213685480.79689
           X            0.99980  -0.00566   0.01938
           Y            0.00672   0.99845  -0.05517
           Z           -0.01904   0.05529   0.99829
 This molecule is an asymmetric top.
 Rotational symmetry number  1.
 Warning -- assumption of classical behavior for rotation
           may cause significant error
 Rotational temperatures (Kelvin)      0.02258     0.01860     0.01580
 Rotational constants (GHZ):           0.47057     0.38760     0.32928
 Zero-point vibrational energy     783553.2 (Joules/Mol)
                                  187.27370 (Kcal/Mol)
 Warning -- explicit consideration of  31 degrees of freedom as
           vibrations may cause significant error
 Vibrational temperatures:     46.51    51.91    69.32   104.00   112.09
          (Kelvin)            131.72   181.10   197.10   213.21   238.68
                              249.12   280.03   301.75   378.08   381.24
                              413.36   461.36   490.02   507.57   517.67
                              555.97   597.98   623.05   657.92   675.42
                              679.92   705.04   726.68   790.92   829.67
                              836.39   967.40   986.94  1039.38  1059.22
                             1096.61  1128.85  1183.15  1293.33  1317.24
                             1328.36  1348.17  1388.09  1393.49  1432.90
                             1479.48  1512.34  1532.92  1551.89  1576.07
                             1595.62  1642.48  1660.53  1672.65  1699.50
                             1731.58  1735.46  1784.99  1799.64  1850.92
                             1858.54  1860.99  1926.91  1931.27  1969.11
                             1973.06  2078.10  2085.82  2089.48  2106.53
                             2144.63  2166.84  2169.72  2181.47  2191.63
                             2194.89  2212.45  2227.62  2232.15  2248.95
                             2328.43  2401.29  2455.34  2491.32  4379.90
                             4380.31  4391.87  4436.13  4455.08  4468.21
                             4473.42  4486.67  4500.24  4556.76  4566.74
                             4587.23  4591.48  4596.47  4605.13  4632.30
                             4918.95  5132.15

 Zero-point correction=                           0.298440 (Hartree/Particle)
 Thermal correction to Energy=                    0.317448
 Thermal correction to Enthalpy=                  0.318392
 Thermal correction to Gibbs Free Energy=         0.250821
 Sum of electronic and zero-point Energies=          -1201.217313
 Sum of electronic and thermal Energies=             -1201.198305
 Sum of electronic and thermal Enthalpies=           -1201.197361
 Sum of electronic and thermal Free Energies=        -1201.264932

                     E (Thermal)             CV                S
                      KCal/Mol        Cal/Mol-Kelvin    Cal/Mol-Kelvin
 Total                  199.201             70.695            142.215
 Electronic               0.000              0.000              0.000
 Translational            0.889              2.981             42.680
 Rotational               0.889              2.981             32.948
 Vibrational            197.424             64.734             66.587
 Vibration     1          0.594              1.983              5.681
 Vibration     2          0.594              1.982              5.464
 Vibration     3          0.595              1.978              4.891
 Vibration     4          0.598              1.967              4.090
 Vibration     5          0.599              1.964              3.943
 Vibration     6          0.602              1.955              3.627
 Vibration     7          0.611              1.927              3.008
 Vibration     8          0.614              1.916              2.845
 Vibration     9          0.618              1.905              2.695
 Vibration    10          0.624              1.884              2.482
 Vibration    11          0.627              1.876              2.401
 Vibration    12          0.635              1.847              2.183
 Vibration    13          0.642              1.826              2.046
 Vibration    14          0.670              1.741              1.643
 Vibration    15          0.671              1.737              1.629
 Vibration    16          0.684              1.697              1.490
 Vibration    17          0.706              1.634              1.307
 Vibration    18          0.720              1.594              1.209
 Vibration    19          0.729              1.570              1.154
 Vibration    20          0.734              1.555              1.123
 Vibration    21          0.755              1.499              1.014
 Vibration    22          0.779              1.436              0.907
 Vibration    23          0.794              1.398              0.849
 Vibration    24          0.815              1.345              0.774
 Vibration    25          0.827              1.318              0.739
 Vibration    26          0.829              1.311              0.730
 Vibration    27          0.846              1.272              0.684
 Vibration    28          0.860              1.239              0.646
 Vibration    29          0.905              1.140              0.545
 Vibration    30          0.933              1.082              0.492
 Vibration    31          0.938              1.072              0.483

 Optimization completed.
    -- Stationary point found.
 Normal termination of Gaussian 16 at Fri Dec 11 21:38:17 2020.

 ----------------------------------------------------------------------
 # B3LYP/6-311++G(d,p) empiricaldispersion=gd3bj scf=xqc pop=npa geom=c
 heck
 ----------------------------------------------------------------------

 --------------------------------------
 CID_81183400_JID_8408_Energie_neutraal
 --------------------------------------
 Structure from the checkpoint file:  "JID_8408.chk"
 Charge =  0 Multiplicity = 1

 SCF Done:  E(RB3LYP) =  -1201.77264867     A.U. after   17 cycles
 Normal termination of Gaussian 16 at Fri Dec 11 21:48:01 2020.

 ----------------------------------------------------------------------
 # B3LYP/6-311++G(d,p) empiricaldispersion=gd3bj scf=xqc pop=npa geom=c
 heck
 ----------------------------------------------------------------------

 ------------------------------------
 CID_81183400_JID_8408_Energie_kation
 ------------------------------------
 Structure from the checkpoint file:  "JID_8408.chk"
 Charge =  1 Multiplicity = 2

 SCF Done:  E(UB3LYP) =  -1201.47881589     A.U. after   26 cycles
 Normal termination of Gaussian 16 at Fri Dec 11 22:10:04 2020.
 Gaussian 16:  ES64L-G16RevA.03 25-Dec-2016

 ----------------------------------------------------------------------
 # B3LYP/6-311++G(d,p) empiricaldispersion=gd3bj scf=xqc pop=npa geom=c
 heck
 ----------------------------------------------------------------------

 -----------------------------------
 CID_81183400_JID_8408_Energie_anion
 -----------------------------------
 Structure from the checkpoint file:  "JID_8408.chk"
 Charge = -1 Multiplicity = 2

                         Standard orientation:
 ---------------------------------------------------------------------
 Center     Atomic      Atomic             Coordinates (Angstroms)
 Number     Number       Type             X           Y           Z
 ---------------------------------------------------------------------
      1          6           0       -3.842485   -0.183876   -1.436740
      2          6           0       -2.741498   -0.353714   -0.418634
      3          6           0       -1.441717   -0.677438   -0.805482
      4          6           0       -0.422051   -0.856626    0.134762
      5          6           0       -0.661892   -0.679475    1.511376
      6          6           0       -1.979098   -0.370921    1.890761
      7          6           0       -2.993813   -0.223144    0.954020
      8          7           0        0.366859   -0.792943    2.461335
      9         16           0        1.098149   -1.562183   -0.543497
     10          8           0        1.235934   -2.945548   -0.069349
     11          8           0        1.058640   -1.285200   -1.998532
     12          6           0        2.534527   -0.638684    0.080777
     13          6           0        2.571356    0.819261   -0.376538
     14          6           0        1.485928    1.636568    0.316611
     15          8           0        1.515744    1.714366    1.553433
     16          7           0        0.528948    2.248954   -0.424484
     17          6           0        0.333171    2.082751   -1.862260
     18          6           0       -0.509381    3.000914    0.271320
     19          1           0       -3.438408   -0.129578   -2.452132
     20          1           0       -4.547122   -1.024525   -1.407339
     21          1           0       -4.421606    0.728869   -1.253566
     22          1           0       -1.201502   -0.821190   -1.853253
     23          1           0       -2.191940   -0.222631    2.946749
     24          1           0       -3.997831    0.020418    1.293827
     25          1           0        1.026762   -0.017232    2.362247
     26          1           0       -0.005868   -0.771525    3.405959
     27          1           0        2.552385   -0.745934    1.164308
     28          1           0        3.369813   -1.205961   -0.341075
     29          1           0        3.523547    1.245890   -0.042755
     30          1           0        2.550511    0.865261   -1.464233
     31          1           0        0.727299    1.130942   -2.215062
     32          1           0       -0.742445    2.076634   -2.059930
     33          1           0        0.784369    2.908990   -2.426450
     34          1           0       -0.177104    3.200008    1.288141
     35          1           0       -0.694359    3.943760   -0.254020
     36          1           0       -1.438351    2.418023    0.302328
 ---------------------------------------------------------------------

 SCF Done:  E(UB3LYP) =  -1201.76947628     A.U. after   33 cycles
 SCF Done:  E(UB3LYP) =  -1201.76947628     a.u. after    1 cycles

 The electronic state is 2-A.
 Alpha  occ. eigenvalues --  -88.92223 -18.99081 -18.98807 -18.98502 -14.24778
 Alpha  occ. eigenvalues --  -14.19424 -10.17214 -10.10389 -10.10245 -10.09878
 Alpha  occ. eigenvalues --  -10.09326 -10.08914 -10.07041 -10.06357 -10.06192
 Alpha  occ. eigenvalues --  -10.05335 -10.05243 -10.04703  -7.98617  -5.94894
 Alpha  occ. eigenvalues --   -5.94783  -5.94721  -0.98192  -0.93797  -0.87864
 Alpha  occ. eigenvalues --   -0.83739  -0.80369  -0.73217  -0.70707  -0.65558
 Alpha  occ. eigenvalues --   -0.64007  -0.62713  -0.61316  -0.57739  -0.56531
 Alpha  occ. eigenvalues --   -0.52502  -0.49089  -0.45885  -0.44176  -0.41579
 Alpha  occ. eigenvalues --   -0.40704  -0.39950  -0.38560  -0.38005  -0.37426
 Alpha  occ. eigenvalues --   -0.36456  -0.34956  -0.33758  -0.33235  -0.32331
 Alpha  occ. eigenvalues --   -0.32028  -0.31544  -0.31356  -0.30717  -0.30548
 Alpha  occ. eigenvalues --   -0.29024  -0.28551  -0.28153  -0.27499  -0.26066
 Alpha  occ. eigenvalues --   -0.25516  -0.25203  -0.23795  -0.21181  -0.19975
 Alpha  occ. eigenvalues --   -0.18669  -0.18045  -0.17154  -0.16112  -0.15261
 Alpha  occ. eigenvalues --   -0.14202  -0.10609   0.04364
 Alpha virt. eigenvalues --    0.06383   0.06888   0.07799   0.08219   0.09138
 Alpha virt. eigenvalues --    0.09754   0.10040   0.10141   0.10942   0.11014
 Alpha virt. eigenvalues --    0.11507   0.11975   0.12273   0.13032   0.13545

  Beta  occ. eigenvalues --  -88.92218 -18.99057 -18.98747 -18.98475 -14.24757
  Beta  occ. eigenvalues --  -14.19410 -10.17187 -10.10381 -10.10234 -10.09807
  Beta  occ. eigenvalues --  -10.09310 -10.08893 -10.06877 -10.06343 -10.06237
  Beta  occ. eigenvalues --  -10.05210 -10.05205 -10.04439  -7.98611  -5.94890
  Beta  occ. eigenvalues --   -5.94775  -5.94711  -0.98089  -0.93745  -0.87762
  Beta  occ. eigenvalues --   -0.83696  -0.80255  -0.72987  -0.70638  -0.65340
  Beta  occ. eigenvalues --   -0.63739  -0.62669  -0.61250  -0.57624  -0.56357
  Beta  occ. eigenvalues --   -0.52177  -0.48957  -0.45742  -0.44105  -0.41522
  Beta  occ. eigenvalues --   -0.40603  -0.39865  -0.38463  -0.37900  -0.37336
  Beta  occ. eigenvalues --   -0.36364  -0.34853  -0.33667  -0.33142  -0.32227
  Beta  occ. eigenvalues --   -0.31931  -0.31464  -0.31269  -0.30674  -0.30518
  Beta  occ. eigenvalues --   -0.28991  -0.28479  -0.28054  -0.27469  -0.25939
  Beta  occ. eigenvalues --   -0.25396  -0.24639  -0.23694  -0.21050  -0.19858
  Beta  occ. eigenvalues --   -0.18458  -0.17749  -0.17038  -0.16031  -0.14923
  Beta  occ. eigenvalues --   -0.13275  -0.10047
  Beta virt. eigenvalues --    0.06630   0.07517   0.07846   0.08191   0.08681
  Beta virt. eigenvalues --    0.09548   0.09777   0.10175   0.10344   0.11057
  Beta virt. eigenvalues --    0.11197   0.11725   0.12117   0.12311   0.13104

 Mulliken charges and spin densities:
               1          2
     1  C    0.192867  -0.662250
     2  C   -0.535621   0.395972
     3  C   -0.361430  -0.112779
     4  C   -0.003199  -0.019411
     5  C   -0.177554  -0.045217
     6  C   -0.275979  -0.064424
     7  C   -0.540021   0.539402
     8  N   -0.298066   0.020109
     9  S    0.870794   0.014123
    10  O    0.033503  -0.013617
    11  O   -0.150097  -0.017392
    12  C   -0.744520   0.031145
    13  C    0.546404  -0.909127
    14  C   -0.713600   0.498413
    15  O   -0.315547   0.012915
    16  N    0.288900   0.012634
    17  C   -0.019711  -0.346481
    18  C    0.097275  -0.479168
    19  H    0.036101   0.093668
    20  H    0.183709  -0.036702
    21  H   -0.162454   0.314593
    22  H    0.192919   0.009065
    23  H    0.106091   0.005556
    24  H   -0.022011   0.138998
    25  H    0.243129   0.009697
    26  H    0.242495   0.007306
    27  H    0.354920  -0.073835
    28  H    0.051807   0.192778
    29  H   -0.474595   0.692367
    30  H    0.223323  -0.035902
    31  H    0.193181  -0.043497
    32  H    0.088485   0.054817
    33  H   -0.155934   0.314730
    34  H    0.046188   0.107840
    35  H   -0.213874   0.364073
    36  H    0.172124   0.029600
 Sum of Mulliken charges =  -1.00000   1.00000

 Dipole moment (field-independent basis, Debye):
    X=             -0.7432    Y=              1.1687    Z=              0.6214  Tot=              1.5180
 Quadrupole moment (field-independent basis, Debye-Ang):
   XX=           -160.8466   YY=           -165.4726   ZZ=           -136.2619
   XY=              4.1914   XZ=             -1.4090   YZ=             -3.2837

 Summary of Natural Population Analysis:

                                       Natural Population
                Natural  -----------------------------------------------
    Atom  No    Charge         Core      Valence    Rydberg      Total
 -----------------------------------------------------------------------
      C    1   -0.28889      0.99964     2.28342    0.00583     3.28889
      C    2   -0.04509      0.99951     2.03671    0.00887     3.04509
      C    3   -0.07250      0.99947     2.06213    0.01090     3.07250
      C    4   -0.12664      0.99931     2.11205    0.01528     3.12664
      C    5    0.09711      0.99943     1.89064    0.01282     2.90289
      C    6   -0.11585      0.99953     2.10690    0.00943     3.11585
      C    7   -0.04089      0.99952     2.03186    0.00951     3.04089
      N    8   -0.41189      0.99972     2.90424    0.00793     3.91189
      S    9    1.03621      4.99916     1.87057    0.09406     6.96379
      O   10   -0.46236      0.99991     3.45736    0.00509     4.46236
      O   11   -0.48770      0.99991     3.48210    0.00569     4.48770
      C   12   -0.28577      0.99957     2.27312    0.01307     3.28577
      C   13   -0.23887      0.99957     2.22916    0.01014     3.23887
      C   14    0.35063      0.99961     1.62608    0.02368     2.64937
      O   15   -0.35191      0.99987     3.34641    0.00563     4.35191
      N   16   -0.24178      0.99963     2.73010    0.01205     3.74178
      C   17   -0.18135      0.99962     2.17424    0.00748     3.18135
      C   18   -0.18067      0.99963     2.17332    0.00772     3.18067
      H   19    0.09900      0.00000     0.40030    0.00070     0.40100
      H   20    0.09774      0.00000     0.40145    0.00081     0.40226
      H   21    0.10160      0.00000     0.39725    0.00115     0.39840
      H   22    0.10973      0.00000     0.38852    0.00175     0.39027
      H   23    0.09132      0.00000     0.40713    0.00155     0.40868
      H   24    0.09232      0.00000     0.40682    0.00085     0.40768
      H   25    0.19977      0.00000     0.29809    0.00213     0.30023
      H   26    0.17499      0.00000     0.32353    0.00148     0.32501
      H   27    0.12091      0.00000     0.37767    0.00142     0.37909
      H   28    0.11665      0.00000     0.38195    0.00140     0.38335
      H   29    0.11827      0.00000     0.37955    0.00219     0.38173
      H   30    0.11089      0.00000     0.38772    0.00139     0.38911
      H   31    0.11530      0.00000     0.38362    0.00108     0.38470
      H   32    0.10093      0.00000     0.39809    0.00098     0.39907
      H   33    0.08999      0.00000     0.40913    0.00088     0.41001
      H   34    0.11310      0.00000     0.38587    0.00103     0.38690
      H   35    0.09070      0.00000     0.40847    0.00083     0.40930
      H   36    0.10501      0.00000     0.39357    0.00142     0.39499
 =======================================================================
   * Total *   -0.00000     21.99261    49.71914    0.28825    72.00000

 Normal termination of Gaussian 16 at Fri Dec 11 22:38:09 2020.
