 Gaussian 16, Revision A.03,

 -----------------------------------------------------------
 # opt freq B3LYP/6-31G(d) empiricaldispersion=gd3bj scf=xqc
 -----------------------------------------------------------

 ------------------------------
 CID_65211357_JID_4758_neutraal
 ------------------------------
 Symbolic Z-matrix:
 Charge =  0 Multiplicity = 1

 SCF Done:  E(RB3LYP) =  -618.367303177     A.U. after   13 cycles
 SCF Done:  E(RB3LYP) =  -618.371811337     A.U. after   11 cycles
 SCF Done:  E(RB3LYP) =  -618.368858516     A.U. after   13 cycles
 SCF Done:  E(RB3LYP) =  -618.372248074     A.U. after   11 cycles
 SCF Done:  E(RB3LYP) =  -618.373780528     A.U. after   11 cycles
 SCF Done:  E(RB3LYP) =  -618.374546174     A.U. after   10 cycles
 SCF Done:  E(RB3LYP) =  -618.374566954     A.U. after   10 cycles
 SCF Done:  E(RB3LYP) =  -618.374788578     A.U. after   10 cycles
 SCF Done:  E(RB3LYP) =  -618.374897482     A.U. after   10 cycles
 SCF Done:  E(RB3LYP) =  -618.374973087     A.U. after   10 cycles
 SCF Done:  E(RB3LYP) =  -618.376227759     A.U. after    8 cycles
 SCF Done:  E(RB3LYP) =  -618.376228428     A.U. after    8 cycles
 SCF Done:  E(RB3LYP) =  -618.376229602     A.U. after    8 cycles
 SCF Done:  E(RB3LYP) =  -618.376229645     A.U. after    6 cycles
 SCF Done:  E(RB3LYP) =  -618.376229652     A.U. after    7 cycles
 SCF Done:  E(RB3LYP) =  -618.376229671     A.U. after    6 cycles
 Optimization completed.
    -- Stationary point found.
 Normal termination of Gaussian 16 at Thu Dec 10 10:31:57 2020.

 --------------------------------------------------------------------
 #N Geom=AllCheck Guess=TCheck SCRF=Check GenChk RB3LYP/6-31G(d) Freq
 --------------------------------------------------------------------

 Structure from the checkpoint file:  "JID_4758.chk"
 ------------------------------
 CID_65211357_JID_4758_neutraal
 ------------------------------
 Charge =  0 Multiplicity = 1

 SCF Done:  E(RB3LYP) =  -618.376229671     A.U. after    1 cycles

  Exact polarizability: 147.842  -1.389 129.120   3.338  -0.253 115.563
 Approx polarizability: 186.986   0.372 178.347   2.610   1.274 173.979

                      1                      2                      3
                      A                      A                      A
 Frequencies --     39.8490                44.7874                50.1129
 Red. masses --      3.4795                 2.8018                 3.7394
 Frc consts  --      0.0033                 0.0033                 0.0055
 IR Inten    --      0.1964                 0.0993                 0.4454

                      4                      5                      6
                      A                      A                      A
 Frequencies --     72.9334                93.6246               136.0243
 Red. masses --      2.7161                 3.1743                 3.0063
 Frc consts  --      0.0085                 0.0164                 0.0328
 IR Inten    --      0.2727                 0.2456                 0.8511

                      7                      8                      9
                      A                      A                      A
 Frequencies --    179.4206               215.6437               241.0900
 Red. masses --      2.7574                 2.6365                 2.0752
 Frc consts  --      0.0523                 0.0722                 0.0711
 IR Inten    --      0.0428                 1.3488                 0.3243

                     10                     11                     12
                      A                      A                      A
 Frequencies --    246.4543               251.8852               265.1890
 Red. masses --      1.4431                 2.9371                 1.3143
 Frc consts  --      0.0516                 0.1098                 0.0545
 IR Inten    --      0.8303                 3.6975                 2.0624

                     13                     14                     15
                      A                      A                      A
 Frequencies --    281.6339               291.6008               301.6319
 Red. masses --      1.6846                 1.6741                 1.1278
 Frc consts  --      0.0787                 0.0839                 0.0605
 IR Inten    --      1.1505                 3.4779                95.7377

                     16                     17                     18
                      A                      A                      A
 Frequencies --    353.2787               360.9824               405.5683
 Red. masses --      1.7447                 2.9098                 2.1242
 Frc consts  --      0.1283                 0.2234                 0.2059
 IR Inten    --      3.4310                 9.5287                 0.5298

                     19                     20                     21
                      A                      A                      A
 Frequencies --    432.7215               441.3417               460.9630
 Red. masses --      2.0890                 1.9546                 3.1795
 Frc consts  --      0.2305                 0.2243                 0.3981
 IR Inten    --      0.6811                 1.2738                 5.8658

                     22                     23                     24
                      A                      A                      A
 Frequencies --    526.6102               562.9768               571.7156
 Red. masses --      2.5647                 1.9169                 2.9846
 Frc consts  --      0.4190                 0.3580                 0.5748
 IR Inten    --      5.4084                 1.1701                 3.6916

                     25                     26                     27
                      A                      A                      A
 Frequencies --    611.0153               696.1125               739.5762
 Red. masses --      2.3741                 1.6007                 1.9947
 Frc consts  --      0.5222                 0.4570                 0.6428
 IR Inten    --     15.3501                77.8014                32.0855

                     28                     29                     30
                      A                      A                      A
 Frequencies --    757.4588               821.3683               839.1596
 Red. masses --      2.0372                 2.1307                 1.9350
 Frc consts  --      0.6887                 0.8469                 0.8028
 IR Inten    --      6.0666                 3.2610                 1.8357

                     31                     32                     33
                      A                      A                      A
 Frequencies --    848.2451               877.5368               890.9166
 Red. masses --      2.0590                 2.4666                 1.9335
 Frc consts  --      0.8729                 1.1191                 0.9042
 IR Inten    --      2.0910                13.3118                14.7527

                     34                     35                     36
                      A                      A                      A
 Frequencies --    916.6597               919.0316               956.1735
 Red. masses --      2.1537                 2.3060                 2.0302
 Frc consts  --      1.0662                 1.1475                 1.0936
 IR Inten    --      3.3085                 0.7620                 9.5769

                     37                     38                     39
                      A                      A                      A
 Frequencies --    993.9699               998.7412              1022.2967
 Red. masses --      1.7216                 1.6919                 1.7910
 Frc consts  --      1.0021                 0.9943                 1.1028
 IR Inten    --      2.5050                57.9019                 3.3358

                     40                     41                     42
                      A                      A                      A
 Frequencies --   1037.2049              1054.7574              1083.7920
 Red. masses --      2.1591                 1.4849                 1.8413
 Frc consts  --      1.3685                 0.9733                 1.2743
 IR Inten    --      2.9731                 0.8192                10.7812

                     43                     44                     45
                      A                      A                      A
 Frequencies --   1086.7400              1089.2221              1099.7235
 Red. masses --      2.0279                 1.4505                 2.2766
 Frc consts  --      1.4110                 1.0139                 1.6222
 IR Inten    --      9.6641                 9.3769                18.2530

                     46                     47                     48
                      A                      A                      A
 Frequencies --   1112.0448              1135.2809              1164.5329
 Red. masses --      2.1789                 1.2675                 1.9959
 Frc consts  --      1.5876                 0.9625                 1.5948
 IR Inten    --     16.7627                13.1876                29.1545

                     49                     50                     51
                      A                      A                      A
 Frequencies --   1176.2617              1193.1099              1196.2278
 Red. masses --      1.8461                 1.4561                 1.7025
 Frc consts  --      1.5049                 1.2212                 1.4354
 IR Inten    --     82.8381                 7.5443                 2.0867

                     52                     53                     54
                      A                      A                      A
 Frequencies --   1206.3900              1219.0998              1247.8904
 Red. masses --      1.9371                 1.9733                 1.3305
 Frc consts  --      1.6610                 1.7280                 1.2207
 IR Inten    --     22.3277                 4.9154                 1.5557

                     55                     56                     57
                      A                      A                      A
 Frequencies --   1255.9793              1276.2707              1308.0234
 Red. masses --      1.3489                 1.4373                 1.3575
 Frc consts  --      1.2537                 1.3794                 1.3684
 IR Inten    --      3.5141                 5.0659                 2.5025

                     58                     59                     60
                      A                      A                      A
 Frequencies --   1323.8407              1334.3420              1336.1392
 Red. masses --      1.3397                 1.3144                 2.5410
 Frc consts  --      1.3834                 1.3789                 2.6728
 IR Inten    --      8.0116                 8.7122                21.4828

                     61                     62                     63
                      A                      A                      A
 Frequencies --   1345.6366              1362.3636              1364.6235
 Red. masses --      1.3715                 1.3358                 1.4198
 Frc consts  --      1.4632                 1.4607                 1.5578
 IR Inten    --      2.4311                 0.6877                 2.6078

                     64                     65                     66
                      A                      A                      A
 Frequencies --   1377.7421              1395.9153              1405.8449
 Red. masses --      1.4672                 1.2834                 1.6165
 Frc consts  --      1.6409                 1.4734                 1.8823
 IR Inten    --     13.0021                10.3998                10.1241

                     67                     68                     69
                      A                      A                      A
 Frequencies --   1409.7194              1419.2047              1436.3912
 Red. masses --      1.4589                 1.3984                 1.3294
 Frc consts  --      1.7082                 1.6595                 1.6161
 IR Inten    --     29.7664                10.3480                 5.1964

                     70                     71                     72
                      A                      A                      A
 Frequencies --   1467.7453              1492.0500              1498.9350
 Red. masses --      1.1506                 1.1415                 1.0998
 Frc consts  --      1.4604                 1.4972                 1.4560
 IR Inten    --      2.0171                 1.1633                 6.1617

                     73                     74                     75
                      A                      A                      A
 Frequencies --   1502.3086              1506.1337              1508.0537
 Red. masses --      1.0814                 1.0625                 1.0910
 Frc consts  --      1.4380                 1.4201                 1.4619
 IR Inten    --      5.4153                 4.4521                 2.0916

                     76                     77                     78
                      A                      A                      A
 Frequencies --   1512.1318              1518.9192              1524.2144
 Red. masses --      1.0933                 1.0815                 1.0943
 Frc consts  --      1.4729                 1.4701                 1.4978
 IR Inten    --     19.9100                12.1440                 1.1837

                     79                     80                     81
                      A                      A                      A
 Frequencies --   1525.9871              1531.1327              1537.6209
 Red. masses --      1.1032                 1.1818                 1.0641
 Frc consts  --      1.5135                 1.6324                 1.4822
 IR Inten    --      7.7670                14.7431                16.7399

                     82                     83                     84
                      A                      A                      A
 Frequencies --   1544.0549              1547.6299              1557.1164
 Red. masses --      1.1076                 1.0777                 1.0648
 Frc consts  --      1.5557                 1.5208                 1.5211
 IR Inten    --      6.2987                 6.7250                 2.5786

                     85                     86                     87
                      A                      A                      A
 Frequencies --   2940.7297              2950.8263              2976.8451
 Red. masses --      1.0602                 1.0630                 1.0680
 Frc consts  --      5.4017                 5.4534                 5.5761
 IR Inten    --     51.0727               143.7005                95.1265

                     88                     89                     90
                      A                      A                      A
 Frequencies --   3024.0607              3024.9279              3040.9057
 Red. masses --      1.0663                 1.0716                 1.0634
 Frc consts  --      5.7455                 5.7769                 5.7935
 IR Inten    --     32.2505                29.2742                33.1471

                     91                     92                     93
                      A                      A                      A
 Frequencies --   3046.6018              3048.7980              3055.8123
 Red. masses --      1.0662                 1.0601                 1.0730
 Frc consts  --      5.8305                 5.8055                 5.9037
 IR Inten    --     30.6791                30.9350                57.3426

                     94                     95                     96
                      A                      A                      A
 Frequencies --   3060.8492              3062.4089              3063.0202
 Red. masses --      1.0829                 1.0700                 1.0731
 Frc consts  --      5.9774                 5.9123                 5.9318
 IR Inten    --     18.7671                93.2220                 6.5144

                     97                     98                     99
                      A                      A                      A
 Frequencies --   3063.5896              3074.1746              3086.9538
 Red. masses --      1.0632                 1.0994                 1.1013
 Frc consts  --      5.8792                 6.1217                 6.1832
 IR Inten    --     13.2484                30.9315                46.0564

                    100                    101                    102
                      A                      A                      A
 Frequencies --   3093.1741              3101.1200              3103.4590
 Red. masses --      1.1056                 1.0920                 1.1006
 Frc consts  --      6.2326                 6.1877                 6.2458
 IR Inten    --     19.8500                32.4789                53.8589

                    103                    104                    105
                      A                      A                      A
 Frequencies --   3103.9609              3110.1063              3118.1844
 Red. masses --      1.0993                 1.1030                 1.1022
 Frc consts  --      6.2401                 6.2861                 6.3144
 IR Inten    --     54.7660                34.3335                33.4887

                    106                    107                    108
                      A                      A                      A
 Frequencies --   3133.2500              3541.4796              3735.3678
 Red. masses --      1.0945                 1.0730                 1.0662
 Frc consts  --      6.3309                 7.9293                 8.7654
 IR Inten    --     26.7241                 0.3282                 3.2074

 - Thermochemistry -
 -------------------
 Temperature   298.150 Kelvin.  Pressure   1.00000 Atm.
 Atom     1 has atomic number  6 and mass  12.00000

 Molecular mass:   200.18886 amu.
 Principal axes and moments of inertia in atomic units:
                           1         2         3
     Eigenvalues --  1674.473394750.692615463.04052
           X            0.99997  -0.00752   0.00270
           Y            0.00754   0.99994  -0.00781
           Z           -0.00264   0.00783   0.99997
 This molecule is an asymmetric top.
 Rotational symmetry number  1.
 Warning -- assumption of classical behavior for rotation
           may cause significant error
 Rotational temperatures (Kelvin)      0.05173     0.01823     0.01585
 Rotational constants (GHZ):           1.07780     0.37989     0.33035
 Zero-point vibrational energy     924146.7 (Joules/Mol)
                                  220.87635 (Kcal/Mol)
 Warning -- explicit consideration of  25 degrees of freedom as
           vibrations may cause significant error
 Vibrational temperatures:     57.33    64.44    72.10   104.93   134.70
          (Kelvin)            195.71   258.15   310.26   346.87   354.59
                              362.41   381.55   405.21   419.55   433.98
                              508.29   519.37   583.52   622.59   634.99
                              663.22   757.67   810.00   822.57   879.11
                             1001.55  1064.09  1089.81  1181.77  1207.36
                             1220.44  1262.58  1281.83  1318.87  1322.28
                             1375.72  1430.10  1436.97  1470.86  1492.31
                             1517.56  1559.33  1563.58  1567.15  1582.26
                             1599.98  1633.42  1675.50  1692.38  1716.62
                             1721.11  1735.73  1754.01  1795.44  1807.07
                             1836.27  1881.95  1904.71  1919.82  1922.41
                             1936.07  1960.14  1963.39  1982.26  2008.41
                             2022.70  2028.27  2041.92  2066.65  2111.76
                             2146.73  2156.63  2161.49  2166.99  2169.75
                             2175.62  2185.39  2193.00  2195.56  2202.96
                             2212.29  2221.55  2226.69  2240.34  4231.05
                             4245.58  4283.02  4350.95  4352.20  4375.19
                             4383.38  4386.54  4396.63  4403.88  4406.12
                             4407.00  4407.82  4423.05  4441.44  4450.39
                             4461.82  4465.19  4465.91  4474.75  4486.37
                             4508.05  5095.40  5374.36

 Zero-point correction=                           0.351989 (Hartree/Particle)
 Thermal correction to Energy=                    0.367867
 Thermal correction to Enthalpy=                  0.368811
 Thermal correction to Gibbs Free Energy=         0.308713
 Sum of electronic and zero-point Energies=           -618.024241
 Sum of electronic and thermal Energies=              -618.008363
 Sum of electronic and thermal Enthalpies=            -618.007419
 Sum of electronic and thermal Free Energies=         -618.067517

                     E (Thermal)             CV                S
                      KCal/Mol        Cal/Mol-Kelvin    Cal/Mol-Kelvin
 Total                  230.840             60.959            126.487
 Electronic               0.000              0.000              0.000
 Translational            0.889              2.981             41.787
 Rotational               0.889              2.981             32.141
 Vibrational            229.062             54.998             52.559
 Vibration     1          0.594              1.981              5.267
 Vibration     2          0.595              1.979              5.035
 Vibration     3          0.595              1.978              4.813
 Vibration     4          0.599              1.967              4.073
 Vibration     5          0.603              1.954              3.583
 Vibration     6          0.614              1.917              2.859
 Vibration     7          0.629              1.868              2.334
 Vibration     8          0.645              1.817              1.995
 Vibration     9          0.658              1.777              1.795
 Vibration    10          0.661              1.769              1.756
 Vibration    11          0.664              1.760              1.717
 Vibration    12          0.671              1.737              1.627
 Vibration    13          0.681              1.708              1.524
 Vibration    14          0.687              1.689              1.465
 Vibration    15          0.694              1.671              1.408
 Vibration    16          0.729              1.569              1.152
 Vibration    17          0.735              1.553              1.118
 Vibration    18          0.771              1.458              0.942
 Vibration    19          0.794              1.399              0.850
 Vibration    20          0.801              1.380              0.822
 Vibration    21          0.819              1.337              0.763
 Vibration    22          0.882              1.191              0.595
 Vibration    23          0.919              1.111              0.518
 Vibration    24          0.928              1.092              0.501
 Vibration    25          0.970              1.009              0.431

 Optimization completed.
    -- Stationary point found.
 Normal termination of Gaussian 16 at Thu Dec 10 10:44:31 2020.

 ----------------------------------------------------------------------
 # B3LYP/6-311++G(d,p) empiricaldispersion=gd3bj scf=xqc pop=npa geom=c
 heck
 ----------------------------------------------------------------------

 --------------------------------------
 CID_65211357_JID_4758_Energie_neutraal
 --------------------------------------
 Structure from the checkpoint file:  "JID_4758.chk"
 Charge =  0 Multiplicity = 1

 SCF Done:  E(RB3LYP) =  -618.562840307     A.U. after   14 cycles
 Normal termination of Gaussian 16 at Thu Dec 10 10:50:38 2020.

 ----------------------------------------------------------------------
 # B3LYP/6-311++G(d,p) empiricaldispersion=gd3bj scf=xqc pop=npa geom=c
 heck
 ----------------------------------------------------------------------

 ------------------------------------
 CID_65211357_JID_4758_Energie_kation
 ------------------------------------
 Structure from the checkpoint file:  "JID_4758.chk"
 Charge =  1 Multiplicity = 2

 SCF Done:  E(UB3LYP) =  -618.283551087     A.U. after   26 cycles
 Normal termination of Gaussian 16 at Thu Dec 10 11:06:31 2020.
 Gaussian 16:  ES64L-G16RevA.03 25-Dec-2016

 ----------------------------------------------------------------------
 # B3LYP/6-311++G(d,p) empiricaldispersion=gd3bj scf=xqc pop=npa geom=c
 heck
 ----------------------------------------------------------------------

 -----------------------------------
 CID_65211357_JID_4758_Energie_anion
 -----------------------------------
 Structure from the checkpoint file:  "JID_4758.chk"
 Charge = -1 Multiplicity = 2

                         Standard orientation:
 ---------------------------------------------------------------------
 Center     Atomic      Atomic             Coordinates (Angstroms)
 Number     Number       Type             X           Y           Z
 ---------------------------------------------------------------------
      1          6           0        2.044971    1.384558   -1.023530
      2          7           0        3.174755    0.636413   -0.510686
      3          6           0        3.716602    1.200666    0.709216
      4          6           0        3.051672   -0.819736   -0.505754
      5          6           0        2.286758   -1.500283    0.647687
      6          6           0        0.793378   -1.177007    0.765264
      7          7           0        0.069813   -1.548359   -0.444105
      8          6           0       -1.374194   -1.698861   -0.366225
      9          6           0       -2.258874   -0.453882   -0.123141
     10          6           0       -1.952618    0.725586   -1.076187
     11          6           0       -2.349673    1.982548   -0.290048
     12          6           0       -1.836272    1.662400    1.123679
     13          6           0       -2.166839    0.167365    1.309390
     14          8           0       -3.584053   -0.961055   -0.359710
     15          1           0        2.359681    2.412673   -1.242688
     16          1           0        1.180133    1.449475   -0.336658
     17          1           0        1.701913    0.937453   -1.963386
     18          1           0        3.013475    1.192979    1.564191
     19          1           0        4.612719    0.644176    1.006128
     20          1           0        4.008225    2.242869    0.531883
     21          1           0        2.608718   -1.117566   -1.463740
     22          1           0        4.071731   -1.229304   -0.502565
     23          1           0        2.392831   -2.584019    0.510414
     24          1           0        2.771989   -1.251739    1.600711
     25          1           0        0.375458   -1.772354    1.586959
     26          1           0        0.668530   -0.120605    1.057682
     27          1           0        0.326448   -0.944414   -1.218377
     28          1           0       -1.714206   -2.138209   -1.311375
     29          1           0       -1.602316   -2.431245    0.417996
     30          1           0       -0.876486    0.770342   -1.282025
     31          1           0       -2.472077    0.597346   -2.030559
     32          1           0       -3.443327    2.098510   -0.277464
     33          1           0       -1.934102    2.905930   -0.706235
     34          1           0       -2.274202    2.297235    1.900803
     35          1           0       -0.749646    1.816002    1.154502
     36          1           0       -3.143691    0.040510    1.790638
     37          1           0       -1.443243   -0.347026    1.945310
     38          1           0       -4.207565   -0.237062   -0.193035
 ---------------------------------------------------------------------

 SCF Done:  E(UB3LYP) =  -618.550061674     A.U. after   25 cycles

 The electronic state is 2-A.
 Alpha  occ. eigenvalues --  -19.02266 -14.20752 -14.20442 -10.12653 -10.09894
 Alpha  occ. eigenvalues --  -10.09781 -10.09532 -10.09187 -10.08910 -10.07002
 Alpha  occ. eigenvalues --  -10.06669 -10.06583 -10.06527 -10.06487  -0.92638
 Alpha  occ. eigenvalues --   -0.82800  -0.81175  -0.73074  -0.67839  -0.63001
 Alpha  occ. eigenvalues --   -0.61686  -0.61220  -0.59455  -0.55179  -0.52138
 Alpha  occ. eigenvalues --   -0.48012  -0.47093  -0.46489  -0.41322  -0.40397
 Alpha  occ. eigenvalues --   -0.38820  -0.38551  -0.36911  -0.36549  -0.35318
 Alpha  occ. eigenvalues --   -0.34571  -0.32951  -0.32477  -0.31739  -0.30341
 Alpha  occ. eigenvalues --   -0.29927  -0.29038  -0.28373  -0.27488  -0.26207
 Alpha  occ. eigenvalues --   -0.25612  -0.25228  -0.24803  -0.24368  -0.24100
 Alpha  occ. eigenvalues --   -0.23862  -0.23008  -0.22320  -0.17339  -0.13064
 Alpha  occ. eigenvalues --   -0.11345   0.04242
 Alpha virt. eigenvalues --    0.05997   0.07031   0.07403   0.08109   0.08716
 Alpha virt. eigenvalues --    0.08905   0.09363   0.10084   0.10575   0.11063
 Alpha virt. eigenvalues --    0.11312   0.11576   0.11985   0.12472   0.13389

  Beta  occ. eigenvalues --  -19.02241 -14.20750 -14.20436 -10.12655 -10.09885
  Beta  occ. eigenvalues --  -10.09769 -10.09528 -10.09158 -10.08874 -10.06991
  Beta  occ. eigenvalues --  -10.06636 -10.06570 -10.06504 -10.06470  -0.92590
  Beta  occ. eigenvalues --   -0.82787  -0.81163  -0.73042  -0.67818  -0.62970
  Beta  occ. eigenvalues --   -0.61644  -0.61168  -0.59418  -0.55143  -0.52093
  Beta  occ. eigenvalues --   -0.47928  -0.47042  -0.46441  -0.41289  -0.40368
  Beta  occ. eigenvalues --   -0.38796  -0.38519  -0.36881  -0.36524  -0.35277
  Beta  occ. eigenvalues --   -0.34529  -0.32924  -0.32457  -0.31709  -0.30314
  Beta  occ. eigenvalues --   -0.29898  -0.29014  -0.28341  -0.27453  -0.26185
  Beta  occ. eigenvalues --   -0.25591  -0.25204  -0.24768  -0.24326  -0.24071
  Beta  occ. eigenvalues --   -0.23827  -0.22983  -0.22280  -0.17312  -0.13047
  Beta  occ. eigenvalues --   -0.11326
  Beta virt. eigenvalues --    0.06335   0.07060   0.07543   0.07786   0.08644
  Beta virt. eigenvalues --    0.09158   0.09332   0.09733   0.10279   0.10976
  Beta virt. eigenvalues --    0.11425   0.11584   0.11805   0.12187   0.12703

 Mulliken charges and spin densities:
               1          2
     1  C   -0.565947   0.033795
     2  N   -0.022295   0.149487
     3  C    0.572653  -0.967740
     4  C   -0.103274  -0.420286
     5  C    0.026782  -0.319106
     6  C   -0.361417  -0.020982
     7  N    0.019019   0.001459
     8  C   -0.465243   0.116982
     9  C   -0.063741  -0.293969
    10  C   -0.025186  -0.010268
    11  C    0.565566  -0.970556
    12  C    0.249726  -0.542574
    13  C    0.162506  -0.301666
    14  O   -0.207760   0.024612
    15  H   -0.307489   0.471118
    16  H    1.132249  -0.967565
    17  H   -0.161220   0.310568
    18  H   -0.251011   0.378736
    19  H   -0.310034   0.452403
    20  H   -0.147091   0.281138
    21  H    0.062691   0.063196
    22  H   -0.039180   0.216215
    23  H    0.043608   0.094581
    24  H    0.004007   0.147732
    25  H   -0.078127   0.235796
    26  H    0.317523  -0.240283
    27  H    0.285603  -0.078464
    28  H    0.095731   0.089033
    29  H    0.125954   0.037387
    30  H    0.161872  -0.144573
    31  H    0.058139   0.161548
    32  H   -0.182994   0.301397
    33  H   -0.488179   0.676443
    34  H   -0.548448   0.737551
    35  H   -0.392785   0.521171
    36  H   -0.240423   0.440259
    37  H    0.009913   0.128447
    38  H    0.068302   0.206976
 Sum of Mulliken charges =  -1.00000   1.00000

 Dipole moment (field-independent basis, Debye):
    X=              0.9015    Y=             -4.5675    Z=             -1.6899  Tot=              4.9528
 Quadrupole moment (field-independent basis, Debye-Ang):
   XX=           -175.8069   YY=           -141.2091   ZZ=           -126.5192
   XY=              0.1616   XZ=              0.4691   YZ=             -3.0885

 Summary of Natural Population Analysis:

                                       Natural Population
                Natural  -----------------------------------------------
    Atom  No    Charge         Core      Valence    Rydberg      Total
 -----------------------------------------------------------------------
      C    1   -0.17534      0.99963     2.16685    0.00885     3.17534
      N    2   -0.28324      0.99974     2.76936    0.01414     3.78324
      C    3   -0.17754      0.99964     2.16896    0.00893     3.17754
      C    4   -0.08192      0.99960     2.07038    0.01193     3.08192
      C    5   -0.20200      0.99962     2.19336    0.00902     3.20200
      C    6   -0.09145      0.99962     2.08157    0.01026     3.09145
      N    7   -0.34391      0.99974     2.83391    0.01026     3.84391
      C    8   -0.08636      0.99956     2.07444    0.01236     3.08636
      C    9    0.12419      0.99953     1.86125    0.01504     2.87581
      C   10   -0.20665      0.99958     2.19817    0.00890     3.20665
      C   11   -0.19136      0.99964     2.18246    0.00927     3.19136
      C   12   -0.19314      0.99964     2.18491    0.00860     3.19314
      C   13   -0.20436      0.99959     2.19568    0.00909     3.20436
      O   14   -0.37949      0.99989     3.37321    0.00639     4.37949
      H   15    0.09669      0.00000     0.40214    0.00117     0.40331
      H   16    0.07979      0.00000     0.41837    0.00183     0.42021
      H   17    0.09136      0.00000     0.40737    0.00127     0.40864
      H   18    0.08182      0.00000     0.41654    0.00164     0.41818
      H   19    0.09499      0.00000     0.40382    0.00119     0.40501
      H   20    0.09585      0.00000     0.40296    0.00119     0.40415
      H   21    0.09258      0.00000     0.40624    0.00118     0.40742
      H   22    0.09384      0.00000     0.40512    0.00104     0.40616
      H   23    0.09800      0.00000     0.40063    0.00137     0.40200
      H   24    0.09787      0.00000     0.40113    0.00100     0.40213
      H   25    0.09302      0.00000     0.40586    0.00112     0.40698
      H   26    0.08105      0.00000     0.41613    0.00282     0.41895
      H   27    0.17357      0.00000     0.32328    0.00316     0.32643
      H   28    0.09836      0.00000     0.40057    0.00107     0.40164
      H   29    0.09453      0.00000     0.40440    0.00106     0.40547
      H   30    0.09687      0.00000     0.40110    0.00203     0.40313
      H   31    0.10485      0.00000     0.39407    0.00108     0.39515
      H   32    0.09265      0.00000     0.40507    0.00228     0.40735
      H   33    0.10275      0.00000     0.39582    0.00143     0.39725
      H   34    0.10214      0.00000     0.39627    0.00159     0.39786
      H   35    0.09396      0.00000     0.40353    0.00251     0.40604
      H   36    0.10282      0.00000     0.39583    0.00135     0.39718
      H   37    0.10348      0.00000     0.39518    0.00135     0.39652
      H   38    0.22973      0.00000     0.26699    0.00328     0.27027
 =======================================================================
   * Total *    0.00000     13.99501    41.82295    0.18205    56.00000

 Normal termination of Gaussian 16 at Thu Dec 10 11:19:43 2020.
