 Gaussian 16, Revision A.03,

 -----------------------------------------------------------
 # opt freq B3LYP/6-31G(d) empiricaldispersion=gd3bj scf=xqc
 -----------------------------------------------------------

 -------------------------------
 CID_113387106_JID_8051_neutraal
 -------------------------------
 Symbolic Z-matrix:
 Charge =  0 Multiplicity = 1

 SCF Done:  E(RB3LYP) =  -1143.33071731     A.U. after   16 cycles
 SCF Done:  E(RB3LYP) =  -1143.34049987     A.U. after   13 cycles
 SCF Done:  E(RB3LYP) =  -1143.34177055     A.U. after   13 cycles
 SCF Done:  E(RB3LYP) =  -1143.34195359     A.U. after   12 cycles
 SCF Done:  E(RB3LYP) =  -1143.34279747     A.U. after   12 cycles
 SCF Done:  E(RB3LYP) =  -1143.34308623     A.U. after   11 cycles
 SCF Done:  E(RB3LYP) =  -1143.34335272     A.U. after   11 cycles
 SCF Done:  E(RB3LYP) =  -1143.34354870     A.U. after   11 cycles
 SCF Done:  E(RB3LYP) =  -1143.34378764     A.U. after   11 cycles
 SCF Done:  E(RB3LYP) =  -1143.34396886     A.U. after   11 cycles
 SCF Done:  E(RB3LYP) =  -1143.34405171     A.U. after    9 cycles
 SCF Done:  E(RB3LYP) =  -1143.34405665     A.U. after    9 cycles
 SCF Done:  E(RB3LYP) =  -1143.34405887     A.U. after    9 cycles
 SCF Done:  E(RB3LYP) =  -1143.34405937     A.U. after    8 cycles
 SCF Done:  E(RB3LYP) =  -1143.34405950     A.U. after    7 cycles
 Optimization completed.
    -- Stationary point found.
 Normal termination of Gaussian 16 at Fri Dec 11 18:41:31 2020.

 --------------------------------------------------------------------
 #N Geom=AllCheck Guess=TCheck SCRF=Check GenChk RB3LYP/6-31G(d) Freq
 --------------------------------------------------------------------

 Structure from the checkpoint file:  "JID_8051.chk"
 -------------------------------
 CID_113387106_JID_8051_neutraal
 -------------------------------
 Charge =  0 Multiplicity = 1

 SCF Done:  E(RB3LYP) =  -1143.34405950     A.U. after    1 cycles

  Exact polarizability: 199.310   0.795 177.475  10.193  12.810 147.916
 Approx polarizability: 273.332   0.758 281.440  29.772  35.836 261.343

                      1                      2                      3
                      A                      A                      A
 Frequencies --     28.5554                43.6982                47.5059
 Red. masses --      4.7189                 3.7551                 6.2732
 Frc consts  --      0.0023                 0.0042                 0.0083
 IR Inten    --      0.2137                 0.4692                 0.7844

                      4                      5                      6
                      A                      A                      A
 Frequencies --     75.3414               100.8584               122.9130
 Red. masses --      3.4834                 4.0894                 3.8799
 Frc consts  --      0.0116                 0.0245                 0.0345
 IR Inten    --      4.1745                 3.0008                 0.9085

                      7                      8                      9
                      A                      A                      A
 Frequencies --    138.8487               157.8544               172.9494
 Red. masses --      1.1695                 3.0700                 2.8830
 Frc consts  --      0.0133                 0.0451                 0.0508
 IR Inten    --      0.3052                 1.7469                 9.3254

                     10                     11                     12
                      A                      A                      A
 Frequencies --    197.3159               214.7815               236.0009
 Red. masses --      1.0980                 4.0065                 3.7464
 Frc consts  --      0.0252                 0.1089                 0.1229
 IR Inten    --      0.9347                 1.4626                 2.3634

                     13                     14                     15
                      A                      A                      A
 Frequencies --    252.7333               258.8292               278.5857
 Red. masses --      3.2719                 1.4124                 1.8343
 Frc consts  --      0.1231                 0.0558                 0.0839
 IR Inten    --      0.9513                 0.4547                 5.4549

                     16                     17                     18
                      A                      A                      A
 Frequencies --    301.5468               318.3788               343.8621
 Red. masses --      2.3380                 3.6588                 1.9218
 Frc consts  --      0.1253                 0.2185                 0.1339
 IR Inten    --     10.5791                 2.1541                 6.9790

                     19                     20                     21
                      A                      A                      A
 Frequencies --    372.3569               391.8135               433.9474
 Red. masses --      4.0052                 4.9175                 4.7265
 Frc consts  --      0.3272                 0.4448                 0.5244
 IR Inten    --      0.8280                 4.4161                 3.3246

                     22                     23                     24
                      A                      A                      A
 Frequencies --    456.6002               474.0861               506.6090
 Red. masses --      3.5207                 3.6329                 4.2922
 Frc consts  --      0.4325                 0.4811                 0.6490
 IR Inten    --      4.0642                 2.5300                 1.5071

                     25                     26                     27
                      A                      A                      A
 Frequencies --    525.0744               570.6217               576.0013
 Red. masses --      4.7549                 4.6185                 4.4544
 Frc consts  --      0.7724                 0.8860                 0.8707
 IR Inten    --      2.0305                 8.4975                 3.9864

                     28                     29                     30
                      A                      A                      A
 Frequencies --    614.4379               621.0142               655.9304
 Red. masses --      4.3640                 3.0429                 4.1057
 Frc consts  --      0.9707                 0.6914                 1.0408
 IR Inten    --     10.5759                10.5984                11.8134

                     31                     32                     33
                      A                      A                      A
 Frequencies --    681.4807               690.8968               694.6128
 Red. masses --      3.8700                 4.2678                 2.8201
 Frc consts  --      1.0589                 1.2003                 0.8017
 IR Inten    --     56.1397                11.4207                18.2470

                     34                     35                     36
                      A                      A                      A
 Frequencies --    720.0303               758.7080               759.9887
 Red. masses --      3.7252                 4.3960                 6.2721
 Frc consts  --      1.1379                 1.4909                 2.1344
 IR Inten    --     19.6651                 1.9627                 6.2402

                     37                     38                     39
                      A                      A                      A
 Frequencies --    798.5011               821.1838               856.0787
 Red. masses --      1.3373                 1.7251                 1.6068
 Frc consts  --      0.5024                 0.6854                 0.6938
 IR Inten    --     62.8424                91.9283                88.4836

                     40                     41                     42
                      A                      A                      A
 Frequencies --    859.3203               879.4797               923.4820
 Red. masses --      1.3455                 1.6893                 1.2947
 Frc consts  --      0.5854                 0.7698                 0.6506
 IR Inten    --      7.5820               119.3779                 2.0333

                     43                     44                     45
                      A                      A                      A
 Frequencies --    932.0778               972.1473              1017.3338
 Red. masses --      2.5991                 3.7230                 1.5837
 Frc consts  --      1.3304                 2.0730                 0.9657
 IR Inten    --     36.4600                 2.8808                 0.6877

                     46                     47                     48
                      A                      A                      A
 Frequencies --   1043.9055              1073.8099              1083.0754
 Red. masses --      1.9055                 1.4051                 2.9727
 Frc consts  --      1.2234                 0.9546                 2.0545
 IR Inten    --     18.6135                 1.2756                29.1053

                     49                     50                     51
                      A                      A                      A
 Frequencies --   1094.6220              1129.9422              1151.8242
 Red. masses --      1.9846                 2.1277                 2.1579
 Frc consts  --      1.4010                 1.6006                 1.6867
 IR Inten    --     25.8749                35.2931                 9.9785

                     52                     53                     54
                      A                      A                      A
 Frequencies --   1168.5631              1185.1830              1188.0179
 Red. masses --      2.1905                 1.5703                 1.2718
 Frc consts  --      1.7624                 1.2996                 1.0576
 IR Inten    --     31.5856                26.3036                 0.8116

                     55                     56                     57
                      A                      A                      A
 Frequencies --   1196.9760              1210.9519              1224.3709
 Red. masses --      3.5921                 1.6353                 2.1478
 Frc consts  --      3.0323                 1.4129                 1.8970
 IR Inten    --      6.5255                36.4998                 6.8732

                     58                     59                     60
                      A                      A                      A
 Frequencies --   1244.0316              1269.7585              1318.6809
 Red. masses --      1.8365                 2.4094                 1.7099
 Frc consts  --      1.6746                 2.2888                 1.7518
 IR Inten    --     35.9666               254.4264                71.0677

                     61                     62                     63
                      A                      A                      A
 Frequencies --   1327.3037              1330.7680              1355.3106
 Red. masses --      1.9587                 3.8502                 1.5781
 Frc consts  --      2.0331                 4.0173                 1.7078
 IR Inten    --      2.0213                51.4449                26.9869

                     64                     65                     66
                      A                      A                      A
 Frequencies --   1369.9624              1419.8349              1432.9989
 Red. masses --      1.7098                 2.4013                 1.2292
 Frc consts  --      1.8906                 2.8521                 1.4872
 IR Inten    --     12.7116                 9.6183                12.4309

                     67                     68                     69
                      A                      A                      A
 Frequencies --   1445.7282              1492.2081              1504.1427
 Red. masses --      1.2458                 1.8945                 1.4354
 Frc consts  --      1.5341                 2.4855                 1.9133
 IR Inten    --      0.3514                33.8347                 4.0245

                     70                     71                     72
                      A                      A                      A
 Frequencies --   1508.1120              1515.3975              1516.8234
 Red. masses --      1.0423                 1.1883                 1.2537
 Frc consts  --      1.3967                 1.6078                 1.6995
 IR Inten    --      7.4576                 4.7903                 5.4312

                     73                     74                     75
                      A                      A                      A
 Frequencies --   1518.6994              1522.6786              1531.4221
 Red. masses --      1.0483                 1.1720                 1.3329
 Frc consts  --      1.4246                 1.6010                 1.8418
 IR Inten    --      5.1047                 2.8847                13.7225

                     76                     77                     78
                      A                      A                      A
 Frequencies --   1539.7041              1557.7280              1571.6396
 Red. masses --      1.1177                 3.5489                 2.5153
 Frc consts  --      1.5612                 5.0737                 3.6605
 IR Inten    --     43.1233                45.5852               225.8363

                     79                     80                     81
                      A                      A                      A
 Frequencies --   1604.3962              1650.6155              1670.2041
 Red. masses --      5.6068                 5.5521                 1.7344
 Frc consts  --      8.5034                 8.9126                 2.8506
 IR Inten    --     15.0635                18.6075                18.2659

                     82                     83                     84
                      A                      A                      A
 Frequencies --   1700.1723              3018.5824              3021.0718
 Red. masses --      2.1206                 1.0351                 1.0833
 Frc consts  --      3.6115                 5.5570                 5.8254
 IR Inten    --     86.9751                61.9022                21.1198

                     85                     86                     87
                      A                      A                      A
 Frequencies --   3046.7937              3071.7298              3073.7028
 Red. masses --      1.0359                 1.0394                 1.1062
 Frc consts  --      5.6659                 5.7785                 6.1575
 IR Inten    --     35.9577                23.7685                49.1317

                     88                     89                     90
                      A                      A                      A
 Frequencies --   3100.2349              3127.3512              3144.6183
 Red. masses --      1.1019                 1.1014                 1.0988
 Frc consts  --      6.2397                 6.3465                 6.4020
 IR Inten    --     15.2694                12.8995                15.0721

                     91                     92                     93
                      A                      A                      A
 Frequencies --   3151.8899              3170.3042              3195.0429
 Red. masses --      1.0992                 1.1018                 1.0905
 Frc consts  --      6.4338                 6.5247                 6.5588
 IR Inten    --     34.2968                16.8375                11.5554

                     94                     95                     96
                      A                      A                      A
 Frequencies --   3220.2355              3225.1483              3239.6081
 Red. masses --      1.0934                 1.0871                 1.0929
 Frc consts  --      6.6807                 6.6623                 6.7581
 IR Inten    --     18.2378                11.1077                 5.8107

                     97                     98                     99
                      A                      A                      A
 Frequencies --   3485.9505              3511.8184              3597.6416
 Red. masses --      1.0520                 1.0746                 1.0921
 Frc consts  --      7.5323                 7.8085                 8.3282
 IR Inten    --      3.7310                15.4439                 6.9893

 - Thermochemistry -
 -------------------
 Temperature   298.150 Kelvin.  Pressure   1.00000 Atm.
 Atom     1 has atomic number  6 and mass  12.00000

 Molecular mass:   263.10923 amu.
 Principal axes and moments of inertia in atomic units:
                           1         2         3
     Eigenvalues --  3175.747438005.872339110.66244
           X            0.99999   0.00059  -0.00312
           Y           -0.00061   0.99997  -0.00759
           Z            0.00312   0.00759   0.99997
 This molecule is an asymmetric top.
 Rotational symmetry number  1.
 Warning -- assumption of classical behavior for rotation
           may cause significant error
 Rotational temperatures (Kelvin)      0.02727     0.01082     0.00951
 Rotational constants (GHZ):           0.56829     0.22543     0.19809
 Zero-point vibrational energy     759184.1 (Joules/Mol)
                                  181.44934 (Kcal/Mol)
 Warning -- explicit consideration of  28 degrees of freedom as
           vibrations may cause significant error
 Vibrational temperatures:     41.08    62.87    68.35   108.40   145.11
          (Kelvin)            176.84   199.77   227.12   248.84   283.89
                              309.02   339.55   363.63   372.40   400.82
                              433.86   458.08   494.74   535.74   563.73
                              624.35   656.95   682.10   728.90   755.46
                              821.00   828.74   884.04   893.50   943.74
                              980.50   994.05   999.39  1035.96  1091.61
                             1093.45  1148.86  1181.50  1231.71  1236.37
                             1265.38  1328.68  1341.05  1398.70  1463.72
                             1501.95  1544.97  1558.30  1574.92  1625.73
                             1657.22  1681.30  1705.21  1709.29  1722.18
                             1742.29  1761.60  1789.88  1826.90  1897.29
                             1909.69  1914.68  1949.99  1971.07  2042.83
                             2061.77  2080.08  2146.95  2164.13  2169.84
                             2180.32  2182.37  2185.07  2190.79  2203.37
                             2215.29  2241.22  2261.24  2308.37  2374.87
                             2403.05  2446.17  4343.07  4346.65  4383.66
                             4419.53  4422.37  4460.55  4499.56  4524.40
                             4534.87  4561.36  4596.95  4633.20  4640.27
                             4661.07  5015.51  5052.72  5176.20

 Zero-point correction=                           0.289158 (Hartree/Particle)
 Thermal correction to Energy=                    0.307061
 Thermal correction to Enthalpy=                  0.308005
 Thermal correction to Gibbs Free Energy=         0.242732
 Sum of electronic and zero-point Energies=          -1143.054902
 Sum of electronic and thermal Energies=             -1143.036998
 Sum of electronic and thermal Enthalpies=           -1143.036054
 Sum of electronic and thermal Free Energies=        -1143.101328

                     E (Thermal)             CV                S
                      KCal/Mol        Cal/Mol-Kelvin    Cal/Mol-Kelvin
 Total                  192.684             68.131            137.380
 Electronic               0.000              0.000              0.000
 Translational            0.889              2.981             42.602
 Rotational               0.889              2.981             33.804
 Vibrational            190.906             62.170             60.974
 Vibration     1          0.593              1.984              5.927
 Vibration     2          0.595              1.980              5.084
 Vibration     3          0.595              1.979              4.919
 Vibration     4          0.599              1.965              4.009
 Vibration     5          0.604              1.948              3.438
 Vibration     6          0.610              1.930              3.054
 Vibration     7          0.614              1.914              2.820
 Vibration     8          0.621              1.894              2.575
 Vibration     9          0.626              1.876              2.403
 Vibration    10          0.637              1.844              2.158
 Vibration    11          0.645              1.818              2.003
 Vibration    12          0.655              1.786              1.833
 Vibration    13          0.664              1.758              1.711
 Vibration    14          0.668              1.748              1.670
 Vibration    15          0.679              1.713              1.542
 Vibration    16          0.694              1.671              1.408
 Vibration    17          0.705              1.638              1.318
 Vibration    18          0.723              1.588              1.194
 Vibration    19          0.744              1.529              1.070
 Vibration    20          0.759              1.488              0.993
 Vibration    21          0.795              1.396              0.846
 Vibration    22          0.815              1.346              0.776
 Vibration    23          0.831              1.308              0.726
 Vibration    24          0.862              1.235              0.642
 Vibration    25          0.880              1.194              0.598
 Vibration    26          0.927              1.095              0.503
 Vibration    27          0.932              1.083              0.493
 Vibration    28          0.974              1.001              0.425

                           ! Non-Optimized Parameters !
 Normal termination of Gaussian 16 at Fri Dec 11 18:55:37 2020.

 ----------------------------------------------------------------------
 # B3LYP/6-311++G(d,p) empiricaldispersion=gd3bj scf=xqc pop=npa geom=c
 heck
 ----------------------------------------------------------------------

 ---------------------------------------
 CID_113387106_JID_8051_Energie_neutraal
 ---------------------------------------
 Structure from the checkpoint file:  "JID_8051.chk"
 Charge =  0 Multiplicity = 1

 SCF Done:  E(RB3LYP) =  -1143.57987513     A.U. after   17 cycles
 Normal termination of Gaussian 16 at Fri Dec 11 19:02:50 2020.

 ----------------------------------------------------------------------
 # B3LYP/6-311++G(d,p) empiricaldispersion=gd3bj scf=xqc pop=npa geom=c
 heck
 ----------------------------------------------------------------------

 -------------------------------------
 CID_113387106_JID_8051_Energie_kation
 -------------------------------------
 Structure from the checkpoint file:  "JID_8051.chk"
 Charge =  1 Multiplicity = 2

 SCF Done:  E(UB3LYP) =  -1143.32865908     A.U. after   23 cycles
 Normal termination of Gaussian 16 at Fri Dec 11 19:16:30 2020.
 Gaussian 16:  ES64L-G16RevA.03 25-Dec-2016

 ----------------------------------------------------------------------
 # B3LYP/6-311++G(d,p) empiricaldispersion=gd3bj scf=xqc pop=npa geom=c
 heck
 ----------------------------------------------------------------------

 ------------------------------------
 CID_113387106_JID_8051_Energie_anion
 ------------------------------------
 Structure from the checkpoint file:  "JID_8051.chk"
 Charge = -1 Multiplicity = 2

                         Standard orientation:
 ---------------------------------------------------------------------
 Center     Atomic      Atomic             Coordinates (Angstroms)
 Number     Number       Type             X           Y           Z
 ---------------------------------------------------------------------
      1          6           0        3.967471    2.412606   -1.332202
      2          6           0        3.361040    1.341703   -0.480942
      3          6           0        3.474402    1.164374    0.868952
      4          7           0        2.794407    0.093889    1.411808
      5          6           0        2.152947   -0.565374    0.494155
      6         16           0        2.328090    0.089547   -1.131755
      7          6           0        1.341364   -1.817389    0.723037
      8          6           0        0.985547   -2.026613    2.202359
      9          7           0        0.216393   -1.855169   -0.214024
     10          6           0       -0.879592   -0.968053   -0.090866
     11          6           0       -2.031823   -1.293301   -0.849658
     12          6           0       -3.157454   -0.481419   -0.792444
     13          6           0       -3.164051    0.678564   -0.006922
     14          6           0       -2.020035    1.033979    0.704184
     15          6           0       -0.889152    0.207473    0.656405
     16          8           0       -4.332121    1.396365   -0.026444
     17          6           0       -4.376396    2.586381    0.737232
     18          7           0       -1.996465   -2.483897   -1.611999
     19          1           0        4.628686    1.997076   -2.101824
     20          1           0        3.202027    3.008793   -1.842923
     21          1           0        4.560493    3.088594   -0.708175
     22          1           0        4.051150    1.808903    1.523828
     23          1           0        1.978346   -2.659627    0.417570
     24          1           0        0.298365   -1.260227    2.564629
     25          1           0        0.507164   -3.004222    2.323754
     26          1           0        1.889673   -1.991628    2.814828
     27          1           0       -0.127152   -2.805258   -0.330360
     28          1           0       -4.045538   -0.724939   -1.368861
     29          1           0       -1.984561    1.934763    1.304222
     30          1           0       -0.011804    0.501543    1.218710
     31          1           0       -4.216913    2.387434    1.805868
     32          1           0       -3.627522    3.314374    0.396053
     33          1           0       -5.375523    3.002098    0.592829
     34          1           0       -2.830237   -2.602863   -2.178016
     35          1           0       -1.175082   -2.519842   -2.212740
 ---------------------------------------------------------------------

 SCF Done:  E(UB3LYP) =  -1143.57052411     A.U. after   33 cycles
 SCF Done:  E(UB3LYP) =  -1143.57052411     a.u. after    1 cycles

 The electronic state is 2-A.
 Alpha  occ. eigenvalues --  -88.75932 -19.06009 -14.21590 -14.21517 -14.19575
 Alpha  occ. eigenvalues --  -10.13981 -10.12899 -10.11333 -10.11283 -10.10949
 Alpha  occ. eigenvalues --  -10.10114 -10.09298 -10.08697 -10.08590 -10.06815
 Alpha  occ. eigenvalues --  -10.06729 -10.06647 -10.05696  -7.84564  -5.80834
 Alpha  occ. eigenvalues --   -5.80489  -5.80172  -0.97551  -0.85361  -0.83871
 Alpha  occ. eigenvalues --   -0.80048  -0.73634  -0.70288  -0.67422  -0.65283
 Alpha  occ. eigenvalues --   -0.63655  -0.62517  -0.59711  -0.58874  -0.53887
 Alpha  occ. eigenvalues --   -0.51165  -0.49101  -0.45788  -0.44700  -0.43411
 Alpha  occ. eigenvalues --   -0.42766  -0.39675  -0.38299  -0.38070  -0.37704
 Alpha  occ. eigenvalues --   -0.37108  -0.35549  -0.33700  -0.33282  -0.33071
 Alpha  occ. eigenvalues --   -0.32251  -0.31952  -0.31084  -0.30734  -0.29056
 Alpha  occ. eigenvalues --   -0.29015  -0.28348  -0.27390  -0.25918  -0.25185
 Alpha  occ. eigenvalues --   -0.24417  -0.24108  -0.23645  -0.20742  -0.17819
 Alpha  occ. eigenvalues --   -0.16713  -0.16318  -0.12924  -0.12775  -0.08970
 Alpha  occ. eigenvalues --    0.04225
 Alpha virt. eigenvalues --    0.05510   0.06208   0.06623   0.07781   0.08557
 Alpha virt. eigenvalues --    0.08716   0.08951   0.09376   0.09714   0.10180
 Alpha virt. eigenvalues --    0.10531   0.10866   0.11343   0.11627   0.11845

  Beta  occ. eigenvalues --  -88.75916 -19.06005 -14.21537 -14.21484 -14.19531
  Beta  occ. eigenvalues --  -10.13969 -10.12899 -10.11333 -10.11105 -10.10945
  Beta  occ. eigenvalues --  -10.10114 -10.09169 -10.08712 -10.08588 -10.06812
  Beta  occ. eigenvalues --  -10.06725 -10.06639 -10.05682  -7.84548  -5.80829
  Beta  occ. eigenvalues --   -5.80484  -5.80117  -0.97545  -0.85225  -0.83804
  Beta  occ. eigenvalues --   -0.79981  -0.73610  -0.70122  -0.67336  -0.65233
  Beta  occ. eigenvalues --   -0.63578  -0.62482  -0.59676  -0.58804  -0.53844
  Beta  occ. eigenvalues --   -0.51108  -0.49042  -0.45625  -0.44639  -0.43359
  Beta  occ. eigenvalues --   -0.42690  -0.39592  -0.38290  -0.37983  -0.37653
  Beta  occ. eigenvalues --   -0.37048  -0.35480  -0.33542  -0.33222  -0.33010
  Beta  occ. eigenvalues --   -0.32216  -0.31911  -0.31035  -0.30690  -0.29000
  Beta  occ. eigenvalues --   -0.28861  -0.28174  -0.27356  -0.25850  -0.25115
  Beta  occ. eigenvalues --   -0.24332  -0.24029  -0.23608  -0.20702  -0.17790
  Beta  occ. eigenvalues --   -0.16345  -0.16227  -0.12809  -0.12271  -0.08943
  Beta virt. eigenvalues --    0.05681   0.06406   0.07101   0.07689   0.08067
  Beta virt. eigenvalues --    0.08694   0.08850   0.09404   0.09407   0.09878
  Beta virt. eigenvalues --    0.10311   0.10826   0.11206   0.11460   0.11687

 Mulliken charges and spin densities:
               1          2
     1  C    0.580005  -1.027413
     2  C   -0.093553   0.293305
     3  C   -0.637810   0.318177
     4  N    0.024137   0.032237
     5  C   -0.182324  -0.142428
     6  S    0.171724  -0.126544
     7  C    0.059631   0.044118
     8  C    0.001880  -0.667988
     9  N   -0.037479  -0.016733
    10  C   -0.156888  -0.019579
    11  C   -0.170033   0.075256
    12  C    0.079526  -0.115854
    13  C   -0.146734  -0.400886
    14  C    0.217187  -0.168092
    15  C    0.159112  -0.142923
    16  O   -0.184908   0.014764
    17  C   -0.008932  -0.325568
    18  N   -0.431298   0.050421
    19  H   -0.090474   0.250304
    20  H    0.127874   0.024460
    21  H    0.046194   0.097663
    22  H    0.021319   0.113399
    23  H   -0.688961   0.918497
    24  H    0.129508   0.023900
    25  H   -0.059462   0.213925
    26  H    0.109638   0.050460
    27  H    0.033056   0.250749
    28  H   -0.066777   0.226745
    29  H    0.157727   0.012198
    30  H    0.258049  -0.042583
    31  H    0.069944   0.073304
    32  H    0.070966   0.071835
    33  H   -0.057464   0.215961
    34  H   -0.250000   0.517450
    35  H   -0.054381   0.307462
 Sum of Mulliken charges =  -1.00000   1.00000

 Dipole moment (field-independent basis, Debye):
    X=             -1.1243    Y=              5.9991    Z=              2.3217  Tot=              6.5302
 Quadrupole moment (field-independent basis, Debye-Ang):
   XX=           -184.2693   YY=           -160.3446   ZZ=           -147.1055
   XY=              0.0186   XZ=             -5.6946   YZ=             -4.4288

 Summary of Natural Population Analysis:

                                       Natural Population
                Natural  -----------------------------------------------
    Atom  No    Charge         Core      Valence    Rydberg      Total
 -----------------------------------------------------------------------
      C    1   -0.29647      0.99962     2.29146    0.00540     3.29647
      C    2   -0.09665      0.99951     2.08580    0.01134     3.09665
      C    3   -0.03541      0.99944     2.02062    0.01534     3.03541
      N    4   -0.24815      0.99964     2.73819    0.01032     3.74815
      C    5    0.06528      0.99958     1.91502    0.02012     2.93472
      S    6    0.20008      4.99938     2.78247    0.01807     7.79992
      C    7   -0.03378      0.99952     2.01877    0.01549     3.03378
      C    8   -0.28923      0.99964     2.28305    0.00653     3.28923
      N    9   -0.32545      0.99969     2.81209    0.01367     3.82545
      C   10    0.06473      0.99943     1.92451    0.01133     2.93527
      C   11    0.07884      0.99946     1.91049    0.01121     2.92116
      C   12   -0.14114      0.99948     2.13132    0.01034     3.14114
      C   13    0.15018      0.99938     1.83866    0.01178     2.84982
      C   14   -0.15420      0.99952     2.14664    0.00804     3.15420
      C   15   -0.11568      0.99953     2.10836    0.00779     3.11568
      O   16   -0.27645      0.99986     3.26778    0.00881     4.27645
      C   17   -0.09917      0.99961     2.09148    0.00809     3.09917
      N   18   -0.40636      0.99973     2.89588    0.01076     3.90636
      H   19    0.10544      0.00000     0.39288    0.00168     0.39456
      H   20    0.10290      0.00000     0.39599    0.00111     0.39710
      H   21    0.10344      0.00000     0.39557    0.00099     0.39656
      H   22    0.09333      0.00000     0.40567    0.00100     0.40667
      H   23    0.11224      0.00000     0.38317    0.00459     0.38776
      H   24    0.10213      0.00000     0.39686    0.00100     0.39787
      H   25    0.09793      0.00000     0.40110    0.00097     0.40207
      H   26    0.10826      0.00000     0.39063    0.00111     0.39174
      H   27    0.19285      0.00000     0.30346    0.00369     0.30715
      H   28    0.10325      0.00000     0.39522    0.00154     0.39675
      H   29    0.10110      0.00000     0.39780    0.00111     0.39890
      H   30    0.10974      0.00000     0.38867    0.00159     0.39026
      H   31    0.08116      0.00000     0.41676    0.00208     0.41884
      H   32    0.08162      0.00000     0.41633    0.00206     0.41838
      H   33    0.09006      0.00000     0.40880    0.00114     0.40994
      H   34    0.18479      0.00000     0.31228    0.00293     0.31521
      H   35    0.18880      0.00000     0.30821    0.00299     0.31120
 =======================================================================
   * Total *    0.00000     21.99203    47.77198    0.23599    70.00000

 Normal termination of Gaussian 16 at Fri Dec 11 19:36:32 2020.
