 Gaussian 16, Revision A.03,

 -----------------------------------------------------------
 # opt freq B3LYP/6-31G(d) empiricaldispersion=gd3bj scf=xqc
 -----------------------------------------------------------

 ------------------------------
 CID_87401925_JID_4340_neutraal
 ------------------------------
 Symbolic Z-matrix:
 Charge =  0 Multiplicity = 1

 SCF Done:  E(RB3LYP) =  -658.158402388     A.U. after   14 cycles
 SCF Done:  E(RB3LYP) =  -658.160134231     A.U. after   12 cycles
 SCF Done:  E(RB3LYP) =  -658.158762164     A.U. after   12 cycles
 SCF Done:  E(RB3LYP) =  -658.160837753     A.U. after   12 cycles
 SCF Done:  E(RB3LYP) =  -658.161246763     A.U. after   11 cycles
 SCF Done:  E(RB3LYP) =  -658.161403671     A.U. after   11 cycles
 SCF Done:  E(RB3LYP) =  -658.161573523     A.U. after   11 cycles
 SCF Done:  E(RB3LYP) =  -658.161719915     A.U. after   12 cycles
 SCF Done:  E(RB3LYP) =  -658.161902866     A.U. after   11 cycles
 SCF Done:  E(RB3LYP) =  -658.161739369     A.U. after   11 cycles
 SCF Done:  E(RB3LYP) =  -658.164011540     A.U. after   10 cycles
 SCF Done:  E(RB3LYP) =  -658.164023775     A.U. after    9 cycles
 SCF Done:  E(RB3LYP) =  -658.164026060     A.U. after    9 cycles
 SCF Done:  E(RB3LYP) =  -658.164026864     A.U. after    7 cycles
 SCF Done:  E(RB3LYP) =  -658.164027391     A.U. after    8 cycles
 SCF Done:  E(RB3LYP) =  -658.164027539     A.U. after    7 cycles
 Optimization completed.
    -- Stationary point found.
 Normal termination of Gaussian 16 at Thu Dec 10 09:39:12 2020.

 --------------------------------------------------------------------
 #N Geom=AllCheck Guess=TCheck SCRF=Check GenChk RB3LYP/6-31G(d) Freq
 --------------------------------------------------------------------

 Structure from the checkpoint file:  "JID_4340.chk"
 ------------------------------
 CID_87401925_JID_4340_neutraal
 ------------------------------
 Charge =  0 Multiplicity = 1

 SCF Done:  E(RB3LYP) =  -658.164027539     A.U. after    1 cycles

  Exact polarizability: 145.268   3.484 113.804  -0.496   3.873 115.039
 Approx polarizability: 174.000   0.902 162.841  -2.495   8.989 177.700

                      1                      2                      3
                      A                      A                      A
 Frequencies --     27.1423                39.8338                48.6145
 Red. masses --      3.7650                 4.2648                 2.7495
 Frc consts  --      0.0016                 0.0040                 0.0038
 IR Inten    --      0.3826                 0.7977                 0.2960

                      4                      5                      6
                      A                      A                      A
 Frequencies --     63.4669                82.4401                89.2961
 Red. masses --      4.2515                 3.4920                 6.0586
 Frc consts  --      0.0101                 0.0140                 0.0285
 IR Inten    --      0.6936                 1.0926                 2.5429

                      7                      8                      9
                      A                      A                      A
 Frequencies --    122.0575               166.1478               200.0282
 Red. masses --      3.1698                 3.3296                 3.6558
 Frc consts  --      0.0278                 0.0542                 0.0862
 IR Inten    --      1.8909                 1.6237                10.7409

                     10                     11                     12
                      A                      A                      A
 Frequencies --    220.1319               239.5965               256.7152
 Red. masses --      1.1477                 1.7399                 1.2246
 Frc consts  --      0.0328                 0.0588                 0.0476
 IR Inten    --      0.0636                29.4909                 0.7748

                     13                     14                     15
                      A                      A                      A
 Frequencies --    272.5364               287.7682               304.3559
 Red. masses --      1.2543                 1.7201                 2.1832
 Frc consts  --      0.0549                 0.0839                 0.1192
 IR Inten    --      0.4743                 1.7067                 6.3469

                     16                     17                     18
                      A                      A                      A
 Frequencies --    308.5323               324.2673               355.4097
 Red. masses --      1.3964                 2.4766                 2.1939
 Frc consts  --      0.0783                 0.1534                 0.1633
 IR Inten    --     75.5784                 0.0769                14.4875

                     19                     20                     21
                      A                      A                      A
 Frequencies --    383.8860               399.3648               413.4242
 Red. masses --      2.3118                 2.4370                 2.0420
 Frc consts  --      0.2007                 0.2290                 0.2056
 IR Inten    --      0.4031                 1.2506                 3.7883

                     22                     23                     24
                      A                      A                      A
 Frequencies --    442.6628               447.8995               495.4710
 Red. masses --      1.9949                 2.4345                 2.1495
 Frc consts  --      0.2303                 0.2878                 0.3109
 IR Inten    --      6.5219                 1.1374                 1.7767

                     25                     26                     27
                      A                      A                      A
 Frequencies --    561.3769               627.6735               718.2980
 Red. masses --      2.6076                 3.8546                 2.1340
 Frc consts  --      0.4842                 0.8947                 0.6487
 IR Inten    --      3.2129                11.5972                 3.6759

                     28                     29                     30
                      A                      A                      A
 Frequencies --    743.7448               789.5374               802.9283
 Red. masses --      2.0443                 2.5263                 4.3616
 Frc consts  --      0.6662                 0.9278                 1.6567
 IR Inten    --      2.5618                 7.2369                 2.4003

                     31                     32                     33
                      A                      A                      A
 Frequencies --    836.9481               879.5266               903.0250
 Red. masses --      2.5451                 2.2441                 2.2142
 Frc consts  --      1.0504                 1.0228                 1.0638
 IR Inten    --      6.4389                 6.9457                 3.4466

                     34                     35                     36
                      A                      A                      A
 Frequencies --    922.8417               936.5381               953.6774
 Red. masses --      2.2130                 2.2368                 1.6524
 Frc consts  --      1.1104                 1.1559                 0.8855
 IR Inten    --      0.4555                 1.5796                 2.2432

                     37                     38                     39
                      A                      A                      A
 Frequencies --    959.3487               977.2965               989.3800
 Red. masses --      1.4910                 1.2039                 2.3566
 Frc consts  --      0.8085                 0.6775                 1.3592
 IR Inten    --      0.1189                 0.1663                54.6298

                     40                     41                     42
                      A                      A                      A
 Frequencies --   1003.3017              1028.4939              1054.3764
 Red. masses --      1.8243                 1.6008                 2.0512
 Frc consts  --      1.0819                 0.9977                 1.3436
 IR Inten    --     17.5006                 0.7919                 6.7821

                     43                     44                     45
                      A                      A                      A
 Frequencies --   1068.2581              1081.8683              1096.7293
 Red. masses --      1.5569                 1.6837                 2.4597
 Frc consts  --      1.0468                 1.1611                 1.7431
 IR Inten    --     11.9640                25.5313                91.3117

                     46                     47                     48
                      A                      A                      A
 Frequencies --   1121.2480              1144.7127              1161.0143
 Red. masses --      2.3690                 1.9810                 1.5886
 Frc consts  --      1.7548                 1.5294                 1.2616
 IR Inten    --      6.9679                13.1077               101.1176

                     49                     50                     51
                      A                      A                      A
 Frequencies --   1191.1654              1225.0712              1243.1410
 Red. masses --      1.3671                 1.2357                 2.0872
 Frc consts  --      1.1429                 1.0927                 1.9005
 IR Inten    --     13.9843                 3.1322                19.1090

                     52                     53                     54
                      A                      A                      A
 Frequencies --   1262.8504              1275.4138              1286.7574
 Red. masses --      2.3175                 1.5584                 2.3596
 Frc consts  --      2.1775                 1.4936                 2.3018
 IR Inten    --    130.3842                 9.9642                67.8547

                     55                     56                     57
                      A                      A                      A
 Frequencies --   1317.0809              1335.7238              1349.8600
 Red. masses --      1.2498                 1.5834                 1.1440
 Frc consts  --      1.2773                 1.6645                 1.2281
 IR Inten    --     18.2900                30.7645                 6.6233

                     58                     59                     60
                      A                      A                      A
 Frequencies --   1362.9342              1390.3992              1399.5801
 Red. masses --      1.6147                 1.3520                 1.5495
 Frc consts  --      1.7672                 1.5399                 1.7883
 IR Inten    --     51.4374                 7.9584                 4.8736

                     61                     62                     63
                      A                      A                      A
 Frequencies --   1407.0508              1426.0638              1430.3464
 Red. masses --      1.2043                 1.3747                 1.2341
 Frc consts  --      1.4048                 1.6472                 1.4876
 IR Inten    --     20.8343                 4.2484                 1.7380

                     64                     65                     66
                      A                      A                      A
 Frequencies --   1433.8817              1436.3147              1443.3876
 Red. masses --      1.3743                 1.2650                 1.3086
 Frc consts  --      1.6648                 1.5376                 1.6063
 IR Inten    --      8.3031                15.3167                32.1774

                     67                     68                     69
                      A                      A                      A
 Frequencies --   1463.2409              1502.1866              1505.5281
 Red. masses --      1.2241                 1.1041                 1.0868
 Frc consts  --      1.5442                 1.4679                 1.4513
 IR Inten    --      3.2526                 3.9851                 1.4771

                     70                     71                     72
                      A                      A                      A
 Frequencies --   1511.2643              1513.7283              1514.3859
 Red. masses --      1.0484                 1.0776                 1.0613
 Frc consts  --      1.4107                 1.4548                 1.4340
 IR Inten    --      0.3514                 7.3599                 3.0659

                     73                     74                     75
                      A                      A                      A
 Frequencies --   1516.2462              1528.7086              1533.9161
 Red. masses --      1.0486                 1.0788                 1.0879
 Frc consts  --      1.4204                 1.4854                 1.5082
 IR Inten    --      1.2831                 7.8062                 3.0739

                     76                     77                     78
                      A                      A                      A
 Frequencies --   1537.1327              1539.5771              1542.6292
 Red. masses --      1.0612                 1.0651                 1.0890
 Frc consts  --      1.4773                 1.4875                 1.5269
 IR Inten    --      4.6376                 5.3714                 2.4298

                     79                     80                     81
                      A                      A                      A
 Frequencies --   1545.1558              1810.0735              2990.1479
 Red. masses --      1.0582                10.5635                 1.0730
 Frc consts  --      1.4886                20.3915                 5.6525
 IR Inten    --      8.7455               186.4385                58.4107

                     82                     83                     84
                      A                      A                      A
 Frequencies --   3033.5710              3040.4742              3042.0604
 Red. masses --      1.0659                 1.0347                 1.0668
 Frc consts  --      5.7791                 5.6360                 5.8164
 IR Inten    --     20.1230                25.9690                31.5810

                     85                     86                     87
                      A                      A                      A
 Frequencies --   3048.8699              3054.8284              3057.0696
 Red. masses --      1.0364                 1.0381                 1.0649
 Frc consts  --      5.6760                 5.7075                 5.8635
 IR Inten    --     28.5824                17.0931                22.8560

                     88                     89                     90
                      A                      A                      A
 Frequencies --   3073.9148              3074.3839              3090.5050
 Red. masses --      1.0578                 1.0968                 1.0866
 Frc consts  --      5.8890                 6.1081                 6.1146
 IR Inten    --     11.9807                19.2631                37.5773

                     91                     92                     93
                      A                      A                      A
 Frequencies --   3094.4192              3105.0765              3107.8556
 Red. masses --      1.0692                 1.0915                 1.1028
 Frc consts  --      6.0321                 6.2003                 6.2756
 IR Inten    --     76.3057                39.7669                 6.3190

                     94                     95                     96
                      A                      A                      A
 Frequencies --   3109.8601              3110.2648              3112.5004
 Red. masses --      1.0999                 1.1028                 1.1027
 Frc consts  --      6.2671                 6.2857                 6.2942
 IR Inten    --     19.1211                 8.8993                23.3907

                     97                     98                     99
                      A                      A                      A
 Frequencies --   3118.4116              3126.4557              3129.9359
 Red. masses --      1.1018                 1.1054                 1.1013
 Frc consts  --      6.3126                 6.3663                 6.3564
 IR Inten    --     63.8244                18.5689                26.6631

                    100                    101                    102
                      A                      A                      A
 Frequencies --   3140.6507              3155.0288              3751.9182
 Red. masses --      1.0985                 1.1049                 1.0659
 Frc consts  --      6.3837                 6.4803                 8.8407
 IR Inten    --     38.3686                11.6430                 5.0680

 - Thermochemistry -
 -------------------
 Temperature   298.150 Kelvin.  Pressure   1.00000 Atm.
 Atom     1 has atomic number  6 and mass  12.00000

 Molecular mass:   202.15689 amu.
 Principal axes and moments of inertia in atomic units:
                           1         2         3
     Eigenvalues --  1468.217835715.670605977.71353
           X            0.99990   0.01402  -0.00345
           Y           -0.01386   0.99904   0.04145
           Z            0.00402  -0.04140   0.99913
 This molecule is an asymmetric top.
 Rotational symmetry number  1.
 Warning -- assumption of classical behavior for rotation
           may cause significant error
 Rotational temperatures (Kelvin)      0.05899     0.01515     0.01449
 Rotational constants (GHZ):           1.22921     0.31575     0.30191
 Zero-point vibrational energy     853548.7 (Joules/Mol)
                                  204.00302 (Kcal/Mol)
 Warning -- explicit consideration of  25 degrees of freedom as
           vibrations may cause significant error
 Vibrational temperatures:     39.05    57.31    69.95    91.31   118.61
          (Kelvin)            128.48   175.61   239.05   287.80   316.72
                              344.73   369.36   392.12   414.03   437.90
                              443.91   466.55   511.36   552.33   574.60
                              594.83   636.89   644.43   712.87   807.70
                              903.08  1033.47  1070.08  1135.97  1155.23
                             1204.18  1265.44  1299.25  1327.76  1347.47
                             1372.13  1380.29  1406.11  1423.50  1443.53
                             1479.77  1517.01  1536.99  1556.57  1577.95
                             1613.23  1646.99  1670.44  1713.82  1762.60
                             1788.60  1816.96  1835.04  1851.36  1894.99
                             1921.81  1942.15  1960.96  2000.47  2013.68
                             2024.43  2051.79  2057.95  2063.04  2066.54
                             2076.71  2105.28  2161.31  2166.12  2174.37
                             2177.92  2178.86  2181.54  2199.47  2206.96
                             2211.59  2215.11  2219.50  2223.13  2604.29
                             4302.16  4364.63  4374.56  4376.85  4386.64
                             4395.22  4398.44  4422.68  4423.35  4446.55
                             4452.18  4467.51  4471.51  4474.40  4474.98
                             4478.19  4486.70  4498.27  4503.28  4518.70
                             4539.38  5398.17

 Zero-point correction=                           0.325100 (Hartree/Particle)
 Thermal correction to Energy=                    0.341986
 Thermal correction to Enthalpy=                  0.342931
 Thermal correction to Gibbs Free Energy=         0.279777
 Sum of electronic and zero-point Energies=           -657.838928
 Sum of electronic and thermal Energies=              -657.822041
 Sum of electronic and thermal Enthalpies=            -657.821097
 Sum of electronic and thermal Free Energies=         -657.884250

                     E (Thermal)             CV                S
                      KCal/Mol        Cal/Mol-Kelvin    Cal/Mol-Kelvin
 Total                  214.600             62.248            132.917
 Electronic               0.000              0.000              0.000
 Translational            0.889              2.981             41.816
 Rotational               0.889              2.981             32.284
 Vibrational            212.822             56.286             58.817
 Vibration     1          0.593              1.984              6.028
 Vibration     2          0.594              1.981              5.267
 Vibration     3          0.595              1.978              4.873
 Vibration     4          0.597              1.972              4.346
 Vibration     5          0.600              1.961              3.832
 Vibration     6          0.602              1.957              3.675
 Vibration     7          0.610              1.931              3.068
 Vibration     8          0.624              1.884              2.479
 Vibration     9          0.638              1.840              2.133
 Vibration    10          0.647              1.810              1.958
 Vibration    11          0.657              1.780              1.806
 Vibration    12          0.666              1.751              1.684
 Vibration    13          0.676              1.724              1.580
 Vibration    14          0.685              1.696              1.487
 Vibration    15          0.695              1.665              1.393
 Vibration    16          0.698              1.657              1.370
 Vibration    17          0.709              1.627              1.288
 Vibration    18          0.731              1.564              1.142
 Vibration    19          0.753              1.505              1.024
 Vibration    20          0.765              1.471              0.965
 Vibration    21          0.777              1.441              0.915
 Vibration    22          0.802              1.377              0.818
 Vibration    23          0.807              1.366              0.802
 Vibration    24          0.851              1.260              0.670
 Vibration    25          0.917              1.115              0.521

                           ! Non-Optimized Parameters !
 Normal termination of Gaussian 16 at Thu Dec 10 09:51:04 2020.

 ----------------------------------------------------------------------
 # B3LYP/6-311++G(d,p) empiricaldispersion=gd3bj scf=xqc pop=npa geom=c
 heck
 ----------------------------------------------------------------------

 --------------------------------------
 CID_87401925_JID_4340_Energie_neutraal
 --------------------------------------
 Structure from the checkpoint file:  "JID_4340.chk"
 Charge =  0 Multiplicity = 1

 SCF Done:  E(RB3LYP) =  -658.366201372     A.U. after   14 cycles
 Normal termination of Gaussian 16 at Thu Dec 10 09:57:06 2020.

 ----------------------------------------------------------------------
 # B3LYP/6-311++G(d,p) empiricaldispersion=gd3bj scf=xqc pop=npa geom=c
 heck
 ----------------------------------------------------------------------

 ------------------------------------
 CID_87401925_JID_4340_Energie_kation
 ------------------------------------
 Structure from the checkpoint file:  "JID_4340.chk"
 Charge =  1 Multiplicity = 2

 SCF Done:  E(UB3LYP) =  -658.023438532     A.U. after   22 cycles
 Normal termination of Gaussian 16 at Thu Dec 10 10:11:02 2020.
 Gaussian 16:  ES64L-G16RevA.03 25-Dec-2016

 ----------------------------------------------------------------------
 # B3LYP/6-311++G(d,p) empiricaldispersion=gd3bj scf=xqc pop=npa geom=c
 heck
 ----------------------------------------------------------------------

 -----------------------------------
 CID_87401925_JID_4340_Energie_anion
 -----------------------------------
 Structure from the checkpoint file:  "JID_4340.chk"
 Charge = -1 Multiplicity = 2

                         Standard orientation:
 ---------------------------------------------------------------------
 Center     Atomic      Atomic             Coordinates (Angstroms)
 Number     Number       Type             X           Y           Z
 ---------------------------------------------------------------------
      1          6           0       -2.243458   -1.737519   -0.562659
      2          6           0       -2.830290   -0.511003    0.154886
      3          6           0       -4.366014   -0.599158    0.139899
      4          6           0       -2.343782   -0.469916    1.612730
      5          6           0       -2.436891    0.797175   -0.592589
      6          6           0       -0.949423    0.972489   -0.794508
      7          8           0       -0.334198    0.564570   -1.758655
      8          8           0       -0.382645    1.630972    0.244140
      9          6           0        1.043521    1.867374    0.196822
     10          6           0        1.780585    0.938648    1.155912
     11          6           0        1.765083   -0.551242    0.778945
     12          6           0        2.418183   -0.908018   -0.565780
     13          6           0        3.877946   -0.470720   -0.692382
     14          8           0        4.724933   -1.028999    0.309195
     15          1           0       -2.574171   -2.658742   -0.069422
     16          1           0       -1.149249   -1.725840   -0.560592
     17          1           0       -2.567815   -1.775885   -1.608559
     18          1           0       -4.704699   -1.498432    0.667209
     19          1           0       -4.818072    0.269849    0.632700
     20          1           0       -4.750204   -0.645739   -0.885812
     21          1           0       -1.254156   -0.406046    1.676627
     22          1           0       -2.757356    0.396452    2.141865
     23          1           0       -2.661848   -1.374401    2.143920
     24          1           0       -2.887237    0.782615   -1.589680
     25          1           0       -2.831012    1.656726   -0.041038
     26          1           0        1.385057    1.753772   -0.833349
     27          1           0        1.167685    2.908748    0.505914
     28          1           0        2.815093    1.303694    1.222849
     29          1           0        1.347887    1.063515    2.156333
     30          1           0        2.261569   -1.112981    1.581964
     31          1           0        0.729702   -0.910234    0.771345
     32          1           0        2.371774   -1.996855   -0.691498
     33          1           0        1.839221   -0.468608   -1.385591
     34          1           0        4.285912   -0.820492   -1.645604
     35          1           0        3.953284    0.629243   -0.698552
     36          1           0        4.441141   -0.671377    1.163883
 ---------------------------------------------------------------------

 SCF Done:  E(UB3LYP) =  -658.354620395     A.U. after   31 cycles

 The electronic state is 2-A.
 Alpha  occ. eigenvalues --  -19.07338 -19.02623 -19.01968 -10.20968 -10.13005
 Alpha  occ. eigenvalues --  -10.12012 -10.10129 -10.08674 -10.07658 -10.07302
 Alpha  occ. eigenvalues --  -10.06736 -10.06715 -10.06444 -10.06094  -1.01256
 Alpha  occ. eigenvalues --   -0.92862  -0.92649  -0.74104  -0.71334  -0.66541
 Alpha  occ. eigenvalues --   -0.63126  -0.59708  -0.59461  -0.59089  -0.54102
 Alpha  occ. eigenvalues --   -0.48932  -0.46123  -0.45306  -0.41807  -0.40763
 Alpha  occ. eigenvalues --   -0.40263  -0.38811  -0.37069  -0.36311  -0.35974
 Alpha  occ. eigenvalues --   -0.34306  -0.33862  -0.33006  -0.31656  -0.31195
 Alpha  occ. eigenvalues --   -0.30505  -0.29828  -0.28798  -0.27913  -0.27354
 Alpha  occ. eigenvalues --   -0.26976  -0.25691  -0.24572  -0.24090  -0.23912
 Alpha  occ. eigenvalues --   -0.23511  -0.23311  -0.22587  -0.20843  -0.18746
 Alpha  occ. eigenvalues --   -0.18012   0.04157
 Alpha virt. eigenvalues --    0.05813   0.07238   0.07844   0.07997   0.08320
 Alpha virt. eigenvalues --    0.08715   0.09299   0.09818   0.10063   0.10491
 Alpha virt. eigenvalues --    0.11045   0.11687   0.11795   0.11868   0.13121

  Beta  occ. eigenvalues --  -19.07331 -19.02591 -19.01965 -10.20968 -10.12988
  Beta  occ. eigenvalues --  -10.12000 -10.10127 -10.08656 -10.07620 -10.07282
  Beta  occ. eigenvalues --  -10.06734 -10.06682 -10.06425 -10.06066  -1.01247
  Beta  occ. eigenvalues --   -0.92853  -0.92579  -0.74087  -0.71293  -0.66511
  Beta  occ. eigenvalues --   -0.63086  -0.59657  -0.59417  -0.59037  -0.54046
  Beta  occ. eigenvalues --   -0.48893  -0.46065  -0.45265  -0.41757  -0.40731
  Beta  occ. eigenvalues --   -0.40214  -0.38786  -0.37042  -0.36271  -0.35940
  Beta  occ. eigenvalues --   -0.34279  -0.33830  -0.32977  -0.31622  -0.31169
  Beta  occ. eigenvalues --   -0.30471  -0.29799  -0.28768  -0.27884  -0.27326
  Beta  occ. eigenvalues --   -0.26953  -0.25664  -0.24533  -0.24060  -0.23880
  Beta  occ. eigenvalues --   -0.23484  -0.23283  -0.22560  -0.20817  -0.18734
  Beta  occ. eigenvalues --   -0.17981
  Beta virt. eigenvalues --    0.06283   0.06955   0.07833   0.08072   0.08386
  Beta virt. eigenvalues --    0.08808   0.09048   0.09599   0.10263   0.10267
  Beta virt. eigenvalues --    0.10819   0.11318   0.11875   0.12131   0.12232

 Mulliken charges and spin densities:
               1          2
     1  C    0.124651  -0.725229
     2  C   -1.759998   2.429661
     3  C    0.550860  -1.079396
     4  C    0.548090  -1.119120
     5  C    0.765186  -1.476182
     6  C   -0.242267   0.118408
     7  O   -0.179507   0.008499
     8  O    0.056071   0.025700
     9  C    0.012744  -0.221066
    10  C    0.977167  -1.306900
    11  C   -0.014767  -0.021567
    12  C   -0.428583   0.214778
    13  C    0.304733  -0.892041
    14  O   -0.256743   0.018366
    15  H   -0.139875   0.287352
    16  H    0.159236  -0.020674
    17  H    0.061480   0.091792
    18  H   -0.142798   0.287390
    19  H   -0.177594   0.318554
    20  H   -0.217874   0.351276
    21  H    0.602155  -0.488246
    22  H   -0.217118   0.372344
    23  H   -0.227544   0.378666
    24  H    0.068314   0.117015
    25  H   -0.015121   0.221856
    26  H    0.222389  -0.054882
    27  H   -0.485324   0.682774
    28  H   -0.376939   0.517936
    29  H   -0.341268   0.542637
    30  H   -0.092225   0.288755
    31  H   -0.496494   0.567098
    32  H    0.165253  -0.003005
    33  H    0.112794   0.067728
    34  H    0.153496   0.013824
    35  H   -0.035752   0.192614
    36  H   -0.036825   0.293282
 Sum of Mulliken charges =  -1.00000   1.00000

 Dipole moment (field-independent basis, Debye):
    X=             -0.4299    Y=             -0.3477    Z=             -3.9893  Tot=              4.0274
 Quadrupole moment (field-independent basis, Debye-Ang):
   XX=           -182.5123   YY=           -129.1672   ZZ=           -128.8861
   XY=             -2.5091   XZ=             -6.2810   YZ=             -3.3343

 Summary of Natural Population Analysis:

                                       Natural Population
                Natural  -----------------------------------------------
    Atom  No    Charge         Core      Valence    Rydberg      Total
 -----------------------------------------------------------------------
      C    1   -0.28596      0.99962     2.27910    0.00725     3.28596
      C    2   -0.04276      0.99959     2.03244    0.01073     3.04276
      C    3   -0.28270      0.99962     2.27584    0.00724     3.28270
      C    4   -0.28505      0.99961     2.27779    0.00765     3.28505
      C    5   -0.23323      0.99953     2.22347    0.01022     3.23323
      C    6    0.41350      0.99967     1.56038    0.02645     2.58650
      O    7   -0.31264      0.99987     3.30763    0.00514     4.31264
      O    8   -0.28240      0.99986     3.27266    0.00988     4.28240
      C    9   -0.01701      0.99954     2.00556    0.01191     3.01701
      C   10   -0.20419      0.99962     2.19424    0.01033     3.20419
      C   11   -0.19822      0.99962     2.18829    0.01032     3.19822
      C   12   -0.21066      0.99962     2.20311    0.00794     3.21066
      C   13   -0.01081      0.99960     1.99838    0.01283     3.01081
      O   14   -0.37135      0.99990     3.36481    0.00664     4.37135
      H   15    0.10018      0.00000     0.39897    0.00084     0.39982
      H   16    0.10284      0.00000     0.39604    0.00112     0.39716
      H   17    0.10068      0.00000     0.39852    0.00080     0.39932
      H   18    0.10168      0.00000     0.39719    0.00113     0.39832
      H   19    0.10082      0.00000     0.39799    0.00119     0.39918
      H   20    0.09883      0.00000     0.40008    0.00109     0.40117
      H   21    0.10249      0.00000     0.39579    0.00171     0.39751
      H   22    0.10168      0.00000     0.39711    0.00120     0.39832
      H   23    0.09986      0.00000     0.39910    0.00104     0.40014
      H   24    0.11002      0.00000     0.38903    0.00096     0.38998
      H   25    0.11228      0.00000     0.38633    0.00139     0.38772
      H   26    0.09617      0.00000     0.40238    0.00145     0.40383
      H   27    0.09422      0.00000     0.40439    0.00139     0.40578
      H   28    0.10073      0.00000     0.39668    0.00259     0.39927
      H   29    0.10528      0.00000     0.39280    0.00191     0.39472
      H   30    0.09878      0.00000     0.39984    0.00138     0.40122
      H   31    0.10007      0.00000     0.39816    0.00177     0.39993
      H   32    0.09783      0.00000     0.40116    0.00101     0.40217
      H   33    0.11069      0.00000     0.38809    0.00121     0.38931
      H   34    0.08420      0.00000     0.41479    0.00101     0.41580
      H   35    0.07433      0.00000     0.42443    0.00124     0.42567
      H   36    0.22981      0.00000     0.26632    0.00387     0.27019
 =======================================================================
   * Total *   -0.00000     13.99526    41.82892    0.17582    56.00000

 Normal termination of Gaussian 16 at Thu Dec 10 10:29:54 2020.
