 Gaussian 16, Revision A.03,

 -----------------------------------------------------------
 # opt freq B3LYP/6-31G(d) empiricaldispersion=gd3bj scf=xqc
 -----------------------------------------------------------

 -------------------------------
 CID_108140812_JID_9548_neutraal
 -------------------------------
 Symbolic Z-matrix:
 Charge =  0 Multiplicity = 1

 SCF Done:  E(RB3LYP) =  -1287.63748735     A.U. after   17 cycles
 SCF Done:  E(RB3LYP) =  -1287.64579546     A.U. after   15 cycles
 SCF Done:  E(RB3LYP) =  -1287.64152040     A.U. after   17 cycles
 SCF Done:  E(RB3LYP) =  -1287.65003430     A.U. after   14 cycles
 SCF Done:  E(RB3LYP) =  -1287.65141687     A.U. after   14 cycles
 SCF Done:  E(RB3LYP) =  -1287.65186306     A.U. after   14 cycles
 SCF Done:  E(RB3LYP) =  -1287.65222036     A.U. after   14 cycles
 SCF Done:  E(RB3LYP) =  -1287.65258046     A.U. after   14 cycles
 SCF Done:  E(RB3LYP) =  -1287.65423797     A.U. after   17 cycles
 SCF Done:  E(RB3LYP) =  -1287.63940630     A.U. after   17 cycles
 SCF Done:  E(RB3LYP) =  -1287.66162128     A.U. after    7 cycles
 SCF Done:  E(RB3LYP) =  -1287.66162132     A.U. after    7 cycles
 SCF Done:  E(RB3LYP) =  -1287.66162136     A.U. after    7 cycles
 SCF Done:  E(RB3LYP) =  -1287.66162141     A.U. after    7 cycles
 SCF Done:  E(RB3LYP) =  -1287.66162145     A.U. after    8 cycles
 SCF Done:  E(RB3LYP) =  -1287.66162148     A.U. after    7 cycles
 Optimization completed.
    -- Stationary point found.
 Normal termination of Gaussian 16 at Mon Dec 14 17:14:36 2020.

 --------------------------------------------------------------------
 #N Geom=AllCheck Guess=TCheck SCRF=Check GenChk RB3LYP/6-31G(d) Freq
 --------------------------------------------------------------------

 Structure from the checkpoint file:  "JID_9548.chk"
 -------------------------------
 CID_108140812_JID_9548_neutraal
 -------------------------------
 Charge =  0 Multiplicity = 1

 SCF Done:  E(RB3LYP) =  -1287.66162148     A.U. after    1 cycles

  Exact polarizability: 232.979 -12.916 190.599  -1.910  -4.830 105.516
 Approx polarizability: 323.968 -20.520 314.299  -6.278 -10.090 189.116

                      1                      2                      3
                      A                      A                      A
 Frequencies --     40.8498                49.5588                57.3696
 Red. masses --      4.4767                 4.0331                 1.4389
 Frc consts  --      0.0044                 0.0058                 0.0028
 IR Inten    --      0.6888                 0.8422                 0.6304

                      4                      5                      6
                      A                      A                      A
 Frequencies --     64.2165                72.4906                98.3363
 Red. masses --      3.0503                 8.0046                 3.5612
 Frc consts  --      0.0074                 0.0248                 0.0203
 IR Inten    --      3.9379                 0.4407                 7.2747

                      7                      8                      9
                      A                      A                      A
 Frequencies --    123.8977               146.8081               173.6747
 Red. masses --      4.9469                 7.6206                 2.8831
 Frc consts  --      0.0447                 0.0968                 0.0512
 IR Inten    --      8.1169                 7.6328                 5.0410

                     10                     11                     12
                      A                      A                      A
 Frequencies --    181.5547               185.2995               205.9158
 Red. masses --      1.6145                 3.0818                 2.8778
 Frc consts  --      0.0314                 0.0623                 0.0719
 IR Inten    --      3.3056                 1.0060                 3.0841

                     13                     14                     15
                      A                      A                      A
 Frequencies --    226.3194               241.5567               262.1617
 Red. masses --      5.8753                 7.8454                 3.6973
 Frc consts  --      0.1773                 0.2697                 0.1497
 IR Inten    --      3.7097                 3.8755                 9.3600

                     16                     17                     18
                      A                      A                      A
 Frequencies --    286.6440               319.6569               342.1910
 Red. masses --      3.5580                 3.2097                 3.5830
 Frc consts  --      0.1722                 0.1932                 0.2472
 IR Inten    --      2.9546                 2.7901                 3.9550

                     19                     20                     21
                      A                      A                      A
 Frequencies --    355.3386               384.2806               415.1437
 Red. masses --      5.3892                 2.6412                 3.7689
 Frc consts  --      0.4009                 0.2298                 0.3827
 IR Inten    --      3.2270                 1.3481                 7.6945

                     22                     23                     24
                      A                      A                      A
 Frequencies --    444.2655               451.4799               476.7357
 Red. masses --      2.3836                 3.1375                 1.2999
 Frc consts  --      0.2772                 0.3768                 0.1741
 IR Inten    --      7.7324                 6.0260                88.9338

                     25                     26                     27
                      A                      A                      A
 Frequencies --    509.5042               551.1438               569.4415
 Red. masses --      4.6132                 6.0150                 5.3038
 Frc consts  --      0.7056                 1.0765                 1.0133
 IR Inten    --     13.5986                 1.6416                 6.5537

                     28                     29                     30
                      A                      A                      A
 Frequencies --    595.4481               601.3562               613.4274
 Red. masses --      4.0709                 4.7233                 4.2316
 Frc consts  --      0.8504                 1.0064                 0.9382
 IR Inten    --      9.2818                 7.4735                10.8639

                     31                     32                     33
                      A                      A                      A
 Frequencies --    636.7442               665.6727               693.7843
 Red. masses --      2.4346                 6.5040                 4.3365
 Frc consts  --      0.5816                 1.6980                 1.2298
 IR Inten    --      5.6157                 3.1781                 7.1736

                     34                     35                     36
                      A                      A                      A
 Frequencies --    721.5731               771.9123               796.1082
 Red. masses --      8.2907                 9.9737                 9.3381
 Frc consts  --      2.5433                 3.5014                 3.4870
 IR Inten    --      6.5553                 2.0629                32.1009

                     37                     38                     39
                      A                      A                      A
 Frequencies --    830.1515               832.1267               854.0706
 Red. masses --      2.3379                 2.7379                 7.6568
 Frc consts  --      0.9493                 1.1170                 3.2907
 IR Inten    --      2.7790                 4.9361                15.6085

                     40                     41                     42
                      A                      A                      A
 Frequencies --    959.9056               972.9782               982.5593
 Red. masses --      1.5555                 2.2195                 2.2798
 Frc consts  --      0.8445                 1.2380                 1.2968
 IR Inten    --     11.7455                73.8282                 6.4726

                     43                     44                     45
                      A                      A                      A
 Frequencies --    995.0055              1022.2107              1039.8052
 Red. masses --      3.3563                 2.1477                 2.0620
 Frc consts  --      1.9578                 1.3222                 1.3135
 IR Inten    --      5.7540                 4.2014                22.3817

                     46                     47                     48
                      A                      A                      A
 Frequencies --   1045.8292              1069.4183              1078.9248
 Red. masses --      2.5179                 1.5933                 4.2367
 Frc consts  --      1.6226                 1.0736                 2.9058
 IR Inten    --     92.8430                 3.1125                44.6374

                     49                     50                     51
                      A                      A                      A
 Frequencies --   1113.6181              1123.7262              1162.8044
 Red. masses --      3.2100                 2.9654                 1.3020
 Frc consts  --      2.3454                 2.2062                 1.0372
 IR Inten    --      5.0216                40.2241                23.7896

                     52                     53                     54
                      A                      A                      A
 Frequencies --   1170.6279              1187.2488              1192.3367
 Red. masses --      1.6691                 2.0155                 1.8021
 Frc consts  --      1.3476                 1.6738                 1.5095
 IR Inten    --      1.2433                 7.2517                 4.6317

                     55                     56                     57
                      A                      A                      A
 Frequencies --   1208.7766              1228.0513              1274.9694
 Red. masses --      1.6935                 1.5871                 1.9194
 Frc consts  --      1.4579                 1.4103                 1.8383
 IR Inten    --     37.3767                 8.8164                 4.1466

                     58                     59                     60
                      A                      A                      A
 Frequencies --   1301.9659              1315.6993              1340.0635
 Red. masses --      1.7239                 1.2310                 2.9956
 Frc consts  --      1.7217                 1.2556                 3.1695
 IR Inten    --     13.0141                 4.6477                79.3089

                     61                     62                     63
                      A                      A                      A
 Frequencies --   1358.1664              1387.4688              1392.7692
 Red. masses --      2.0756                 4.6023                 1.3516
 Frc consts  --      2.2557                 5.2200                 1.5448
 IR Inten    --    125.1404               376.9506                28.0586

                     64                     65                     66
                      A                      A                      A
 Frequencies --   1397.3222              1420.8979              1432.2923
 Red. masses --      2.7636                 1.4182                 1.3405
 Frc consts  --      3.1792                 1.6870                 1.6203
 IR Inten    --     56.1876               112.7120                 7.5347

                     67                     68                     69
                      A                      A                      A
 Frequencies --   1452.7870              1467.8042              1480.0082
 Red. masses --      1.9265                 1.1066                 1.2411
 Frc consts  --      2.3957                 1.4046                 1.6017
 IR Inten    --     23.1220                 4.4737                77.8737

                     70                     71                     72
                      A                      A                      A
 Frequencies --   1480.7842              1491.2188              1507.5891
 Red. masses --      1.2355                 1.5258                 1.0902
 Frc consts  --      1.5962                 1.9991                 1.4599
 IR Inten    --     26.5288                 1.4029               102.8023

                     73                     74                     75
                      A                      A                      A
 Frequencies --   1509.4563              1519.4101              1526.3279
 Red. masses --      1.0585                 1.1393                 1.5423
 Frc consts  --      1.4209                 1.5496                 2.1169
 IR Inten    --     12.4190                82.0317               176.2863

                     76                     77                     78
                      A                      A                      A
 Frequencies --   1538.7867              1549.3266              1577.4350
 Red. masses --      1.1559                 1.5196                 3.8234
 Frc consts  --      1.6127                 2.1491                 5.6053
 IR Inten    --     30.8913                42.0933                98.6044

                     79                     80                     81
                      A                      A                      A
 Frequencies --   1598.5320              1623.9441              1641.2730
 Red. masses --      5.8052                 7.8815                 4.3136
 Frc consts  --      8.7400                12.2461                 6.8462
 IR Inten    --    255.8426               699.6604               885.6805

                     82                     83                     84
                      A                      A                      A
 Frequencies --   3048.2496              3050.2976              3064.7456
 Red. masses --      1.0450                 1.0736                 1.0714
 Frc consts  --      5.7209                 5.8853                 5.9291
 IR Inten    --     70.6947                12.6391                14.6426

                     85                     86                     87
                      A                      A                      A
 Frequencies --   3077.5262              3081.7118              3101.4944
 Red. masses --      1.0359                 1.0578                 1.0604
 Frc consts  --      5.7806                 5.9190                 6.0096
 IR Inten    --      3.8155                 9.4295                 5.9180

                     88                     89                     90
                      A                      A                      A
 Frequencies --   3123.7467              3138.7941              3142.9924
 Red. masses --      1.0907                 1.0996                 1.1079
 Frc consts  --      6.2708                 6.3825                 6.4481
 IR Inten    --     27.5890                 4.7923                 8.2571

                     91                     92                     93
                      A                      A                      A
 Frequencies --   3163.5685              3172.4753              3173.4549
 Red. masses --      1.1052                 1.1053                 1.1047
 Frc consts  --      6.5172                 6.5542                 6.5551
 IR Inten    --     13.0678                 2.7144                11.3509

                     94                     95                     96
                      A                      A                      A
 Frequencies --   3179.6229              3180.3748              3647.1692
 Red. masses --      1.0918                 1.0924                 1.0770
 Frc consts  --      6.5037                 6.5099                 8.4408
 IR Inten    --      2.6592                 7.6555                59.9872

 - Thermochemistry -
 -------------------
 Temperature   298.150 Kelvin.  Pressure   1.00000 Atm.
 Atom     1 has atomic number  6 and mass  12.00000

 Molecular mass:   285.08956 amu.
 Principal axes and moments of inertia in atomic units:
                           1         2         3
     Eigenvalues --  3118.573907978.61034**********
           X            0.99993  -0.01120  -0.00213
           Y            0.01118   0.99988  -0.01047
           Z            0.00224   0.01045   0.99994
 This molecule is an asymmetric top.
 Rotational symmetry number  1.
 Warning -- assumption of classical behavior for rotation
           may cause significant error
 Rotational temperatures (Kelvin)      0.02777     0.01086     0.00825
 Rotational constants (GHZ):           0.57871     0.22620     0.17193
 Zero-point vibrational energy     707797.8 (Joules/Mol)
                                  169.16775 (Kcal/Mol)
 Warning -- explicit consideration of  30 degrees of freedom as
           vibrations may cause significant error
 Vibrational temperatures:     58.77    71.30    82.54    92.39   104.30
          (Kelvin)            141.48   178.26   211.22   249.88   261.22
                              266.60   296.27   325.62   347.55   377.19
                              412.42   459.91   492.34   511.25   552.89
                              597.30   639.20   649.58   685.92   733.06
                              792.97   819.30   856.72   865.22   882.59
                              916.13   957.75   998.20  1038.18  1110.61
                             1145.42  1194.40  1197.24  1228.82  1381.09
                             1399.90  1413.68  1431.59  1470.73  1496.05
                             1504.72  1538.65  1552.33  1602.25  1616.79
                             1673.02  1684.27  1708.19  1715.51  1739.16
                             1766.89  1834.40  1873.24  1893.00  1928.05
                             1954.10  1996.26  2003.88  2010.43  2044.36
                             2060.75  2090.24  2111.84  2129.40  2130.52
                             2145.53  2169.08  2171.77  2186.09  2196.05
                             2213.97  2229.14  2269.58  2299.93  2336.49
                             2361.43  4385.75  4388.70  4409.49  4427.87
                             4433.90  4462.36  4494.37  4516.02  4522.07
                             4551.67  4564.48  4565.89  4574.77  4575.85
                             5247.46

 Zero-point correction=                           0.269586 (Hartree/Particle)
 Thermal correction to Energy=                    0.287902
 Thermal correction to Enthalpy=                  0.288846
 Thermal correction to Gibbs Free Energy=         0.222477
 Sum of electronic and zero-point Energies=          -1287.392036
 Sum of electronic and thermal Energies=             -1287.373719
 Sum of electronic and thermal Enthalpies=           -1287.372775
 Sum of electronic and thermal Free Energies=        -1287.439144

                     E (Thermal)             CV                S
                      KCal/Mol        Cal/Mol-Kelvin    Cal/Mol-Kelvin
 Total                  180.661             68.249            139.686
 Electronic               0.000              0.000              0.000
 Translational            0.889              2.981             42.841
 Rotational               0.889              2.981             33.923
 Vibrational            178.884             62.287             62.922
 Vibration     1          0.594              1.981              5.217
 Vibration     2          0.595              1.978              4.835
 Vibration     3          0.596              1.975              4.546
 Vibration     4          0.597              1.971              4.323
 Vibration     5          0.599              1.967              4.085
 Vibration     6          0.604              1.950              3.487
 Vibration     7          0.610              1.929              3.039
 Vibration     8          0.617              1.906              2.713
 Vibration     9          0.627              1.875              2.395
 Vibration    10          0.630              1.865              2.312
 Vibration    11          0.631              1.860              2.274
 Vibration    12          0.640              1.831              2.080
 Vibration    13          0.650              1.801              1.908
 Vibration    14          0.658              1.777              1.791
 Vibration    15          0.669              1.742              1.647
 Vibration    16          0.684              1.699              1.494
 Vibration    17          0.706              1.636              1.312
 Vibration    18          0.721              1.591              1.202
 Vibration    19          0.731              1.564              1.142
 Vibration    20          0.753              1.504              1.022
 Vibration    21          0.779              1.437              0.909
 Vibration    22          0.804              1.374              0.813
 Vibration    23          0.810              1.358              0.791
 Vibration    24          0.833              1.302              0.719
 Vibration    25          0.865              1.229              0.635
 Vibration    26          0.906              1.137              0.542
 Vibration    27          0.925              1.097              0.505
 Vibration    28          0.953              1.041              0.458
 Vibration    29          0.960              1.029              0.447
 Vibration    30          0.973              1.003              0.427

 Optimization completed.
    -- Stationary point found.
 Normal termination of Gaussian 16 at Mon Dec 14 17:33:36 2020.

 ----------------------------------------------------------------------
 # B3LYP/6-311++G(d,p) empiricaldispersion=gd3bj scf=xqc pop=npa geom=c
 heck
 ----------------------------------------------------------------------

 ---------------------------------------
 CID_108140812_JID_9548_Energie_neutraal
 ---------------------------------------
 Structure from the checkpoint file:  "JID_9548.chk"
 Charge =  0 Multiplicity = 1

 SCF Done:  E(RB3LYP) =  -1287.94148997     A.U. after   18 cycles
 Normal termination of Gaussian 16 at Mon Dec 14 17:43:03 2020.

 ----------------------------------------------------------------------
 # B3LYP/6-311++G(d,p) empiricaldispersion=gd3bj scf=xqc pop=npa geom=c
 heck
 ----------------------------------------------------------------------

 -------------------------------------
 CID_108140812_JID_9548_Energie_kation
 -------------------------------------
 Structure from the checkpoint file:  "JID_9548.chk"
 Charge =  1 Multiplicity = 2

 SCF Done:  E(UB3LYP) =  -1287.64867369     A.U. after   28 cycles
 Normal termination of Gaussian 16 at Mon Dec 14 18:04:41 2020.
 Gaussian 16:  ES64L-G16RevA.03 25-Dec-2016

 ----------------------------------------------------------------------
 # B3LYP/6-311++G(d,p) empiricaldispersion=gd3bj scf=xqc pop=npa geom=c
 heck
 ----------------------------------------------------------------------

 ------------------------------------
 CID_108140812_JID_9548_Energie_anion
 ------------------------------------
 Structure from the checkpoint file:  "JID_9548.chk"
 Charge = -1 Multiplicity = 2

                         Standard orientation:
 ---------------------------------------------------------------------
 Center     Atomic      Atomic             Coordinates (Angstroms)
 Number     Number       Type             X           Y           Z
 ---------------------------------------------------------------------
      1          6           0        3.375587    2.278753   -0.195251
      2          6           0        2.549222    1.022714   -0.137902
      3          6           0        1.143965    1.017890   -0.037077
      4          6           0        0.466115   -0.243232   -0.069345
      5          7           0        1.184969   -1.368771   -0.009751
      6          6           0        2.522312   -1.256253   -0.010185
      7          7           0        3.238387   -0.119144   -0.145237
      8          7           0        3.219138   -2.409565    0.117583
      9          6           0        4.662897   -2.496335    0.006445
     10          7           0       -0.883742   -0.377233   -0.208350
     11          6           0       -1.528745   -1.670105    0.023640
     12          6           0       -2.698593   -1.512576    0.991617
     13         16           0       -4.034546   -0.462904    0.254188
     14          8           0       -4.305899   -1.043476   -1.122354
     15          6           0       -2.933611    1.000619   -0.010751
     16          6           0       -1.744566    0.601345   -0.875228
     17          7           0        0.451795    2.240662    0.287691
     18          8           0       -0.433327    2.188200    1.152928
     19          8           0        0.788831    3.286114   -0.279459
     20          1           0        4.426911    1.997638   -0.119289
     21          1           0        3.200654    2.814272   -1.132506
     22          1           0        3.117611    2.973438    0.609512
     23          1           0        2.663174   -3.251598    0.105937
     24          1           0        4.978052   -3.483363    0.352699
     25          1           0        5.007262   -2.351624   -1.025557
     26          1           0        5.129726   -1.730010    0.628481
     27          1           0       -1.902660   -2.076505   -0.924262
     28          1           0       -0.786670   -2.358381    0.423364
     29          1           0       -2.390443   -1.055119    1.937348
     30          1           0       -3.166869   -2.480977    1.190754
     31          1           0       -2.623732    1.390416    0.960503
     32          1           0       -3.553494    1.740798   -0.524451
     33          1           0       -1.172985    1.476647   -1.176507
     34          1           0       -2.131972    0.135564   -1.791290
 ---------------------------------------------------------------------

 SCF Done:  E(UB3LYP) =  -1287.97201880     A.U. after   29 cycles

 The electronic state is 2-A.
 Alpha  occ. eigenvalues --  -88.84586 -18.98372 -18.93440 -18.93337 -14.30268
 Alpha  occ. eigenvalues --  -14.22348 -14.21829 -14.17639 -14.16953 -10.13722
 Alpha  occ. eigenvalues --  -10.13069 -10.10765 -10.10563 -10.10538 -10.10030
 Alpha  occ. eigenvalues --  -10.09212 -10.08838 -10.06579 -10.03564  -7.92355
 Alpha  occ. eigenvalues --   -5.88628  -5.88462  -5.87965  -1.01485  -0.91421
 Alpha  occ. eigenvalues --   -0.88550  -0.85178  -0.83983  -0.79732  -0.75940
 Alpha  occ. eigenvalues --   -0.70130  -0.67661  -0.66690  -0.61148  -0.60468
 Alpha  occ. eigenvalues --   -0.57878  -0.54917  -0.52489  -0.50536  -0.46872
 Alpha  occ. eigenvalues --   -0.45949  -0.42708  -0.42203  -0.38893  -0.37821
 Alpha  occ. eigenvalues --   -0.37146  -0.36149  -0.35395  -0.34984  -0.34388
 Alpha  occ. eigenvalues --   -0.33927  -0.33656  -0.32782  -0.31128  -0.30632
 Alpha  occ. eigenvalues --   -0.30362  -0.30152  -0.28345  -0.27615  -0.27144
 Alpha  occ. eigenvalues --   -0.26740  -0.26109  -0.25965  -0.24873  -0.21771
 Alpha  occ. eigenvalues --   -0.19946  -0.17994  -0.17095  -0.14413  -0.13201
 Alpha  occ. eigenvalues --   -0.13085  -0.12064  -0.11533  -0.10371  -0.08126
 Alpha  occ. eigenvalues --    0.03374
 Alpha virt. eigenvalues --    0.06666   0.07704   0.08971   0.09372   0.09637
 Alpha virt. eigenvalues --    0.10062   0.10410   0.10859   0.11441   0.11502
 Alpha virt. eigenvalues --    0.12056   0.12376   0.12851   0.13266   0.13929

  Beta  occ. eigenvalues --  -88.84583 -18.98367 -18.92921 -18.92721 -14.29347
  Beta  occ. eigenvalues --  -14.22318 -14.21763 -14.17710 -14.17040 -10.13518
  Beta  occ. eigenvalues --  -10.12942 -10.10765 -10.10563 -10.10542 -10.10027
  Beta  occ. eigenvalues --  -10.09199 -10.08629 -10.06658 -10.03575  -7.92352
  Beta  occ. eigenvalues --   -5.88625  -5.88453  -5.87961  -1.00108  -0.91409
  Beta  occ. eigenvalues --   -0.88404  -0.85014  -0.82946  -0.79622  -0.75912
  Beta  occ. eigenvalues --   -0.70073  -0.67643  -0.66391  -0.60986  -0.60244
  Beta  occ. eigenvalues --   -0.57762  -0.54874  -0.52054  -0.50438  -0.46234
  Beta  occ. eigenvalues --   -0.45764  -0.42487  -0.42091  -0.38679  -0.37781
  Beta  occ. eigenvalues --   -0.36810  -0.35904  -0.35055  -0.34365  -0.34145
  Beta  occ. eigenvalues --   -0.33800  -0.33213  -0.31868  -0.30875  -0.30234
  Beta  occ. eigenvalues --   -0.29816  -0.28831  -0.28091  -0.27456  -0.27037
  Beta  occ. eigenvalues --   -0.26670  -0.26061  -0.25836  -0.24630  -0.21374
  Beta  occ. eigenvalues --   -0.19930  -0.17645  -0.17058  -0.14319  -0.13191
  Beta  occ. eigenvalues --   -0.11878  -0.11084  -0.10101  -0.09290  -0.07529
  Beta virt. eigenvalues --    0.06631   0.07676   0.08875   0.09285   0.09584
  Beta virt. eigenvalues --    0.10184   0.10531   0.10836   0.11159   0.11497
  Beta virt. eigenvalues --    0.11593   0.12109   0.12640   0.12874   0.13607

 Mulliken charges and spin densities:
               1          2
     1  C   -0.531421  -0.001610
     2  C    0.237344   0.151076
     3  C   -0.275155  -0.091414
     4  C   -0.317937   0.082211
     5  N   -0.303228  -0.038856
     6  C   -0.128575   0.097206
     7  N   -0.154816  -0.046193
     8  N   -0.192137   0.019458
     9  C   -0.245336  -0.003343
    10  N    0.441013   0.015621
    11  C   -0.186122  -0.047107
    12  C   -0.690553   0.015916
    13  S    0.633740   0.023591
    14  O   -0.448490   0.000168
    15  C   -0.793652  -0.071200
    16  C   -0.199393   0.041207
    17  N   -0.372403   0.298635
    18  O   -0.140253   0.197751
    19  O   -0.153152   0.237065
    20  H    0.108237   0.007295
    21  H    0.182778   0.005133
    22  H    0.177348   0.008716
    23  H    0.272062   0.005610
    24  H    0.104039   0.000437
    25  H    0.144085   0.011850
    26  H    0.176901  -0.000423
    27  H    0.165516   0.013324
    28  H    0.194615  -0.003932
    29  H    0.199710  -0.000360
    30  H    0.226689   0.003298
    31  H    0.263179  -0.000636
    32  H    0.212702   0.018568
    33  H    0.176220   0.047113
    34  H    0.216444   0.003825
 Sum of Mulliken charges =  -1.00000   1.00000

 Dipole moment (field-independent basis, Debye):
    X=              0.2002    Y=             -7.3929    Z=              1.2674  Tot=              7.5034
 Quadrupole moment (field-independent basis, Debye-Ang):
   XX=           -161.8907   YY=           -152.2102   ZZ=           -130.8565
   XY=            -11.9353   XZ=             -8.8127   YZ=             -7.9074

 Summary of Natural Population Analysis:

                                       Natural Population
                Natural  -----------------------------------------------
    Atom  No    Charge         Core      Valence    Rydberg      Total
 -----------------------------------------------------------------------
      C    1   -0.30233      0.99963     2.29770    0.00500     3.30233
      C    2    0.17265      0.99955     1.81553    0.01227     2.82735
      C    3   -0.04316      0.99935     2.03036    0.01344     3.04316
      C    4    0.25404      0.99950     1.73064    0.01582     2.74596
      N    5   -0.32263      0.99963     2.81240    0.01060     3.82263
      C    6    0.33777      0.99961     1.64634    0.01628     2.66223
      N    7   -0.31881      0.99965     2.80915    0.01000     3.81881
      N    8   -0.30086      0.99966     2.79193    0.00927     3.80086
      C    9   -0.17594      0.99967     2.16987    0.00640     3.17594
      N   10   -0.24493      0.99962     2.73106    0.01425     3.74493
      C   11   -0.09709      0.99961     2.08769    0.00980     3.09709
      C   12   -0.27624      0.99959     2.26803    0.00863     3.27624
      S   13    0.56673      4.99946     2.37551    0.05830     7.43327
      O   14   -0.49152      0.99993     3.48558    0.00601     4.49152
      C   15   -0.27602      0.99958     2.26475    0.01168     3.27602
      C   16   -0.09437      0.99960     2.08320    0.01157     3.09437
      N   17    0.33288      0.99970     2.14195    0.02547     3.16712
      O   18   -0.21631      0.99990     3.20749    0.00893     4.21631
      O   19   -0.18549      0.99990     3.17777    0.00782     4.18549
      H   20    0.09635      0.00000     0.40252    0.00113     0.40365
      H   21    0.11379      0.00000     0.38525    0.00096     0.38621
      H   22    0.11396      0.00000     0.38499    0.00105     0.38604
      H   23    0.18913      0.00000     0.30916    0.00171     0.31087
      H   24    0.08683      0.00000     0.41238    0.00079     0.41317
      H   25    0.08757      0.00000     0.41105    0.00137     0.41243
      H   26    0.10295      0.00000     0.39592    0.00113     0.39705
      H   27    0.10110      0.00000     0.39779    0.00110     0.39890
      H   28    0.12056      0.00000     0.37824    0.00120     0.37944
      H   29    0.11082      0.00000     0.38793    0.00125     0.38918
      H   30    0.10354      0.00000     0.39526    0.00120     0.39646
      H   31    0.12911      0.00000     0.36805    0.00284     0.37089
      H   32    0.10525      0.00000     0.39252    0.00222     0.39475
      H   33    0.12134      0.00000     0.37623    0.00243     0.37866
      H   34    0.09932      0.00000     0.39900    0.00169     0.40068
 =======================================================================
   * Total *   -0.00000     22.99314    51.72323    0.28363    75.00000

 Normal termination of Gaussian 16 at Mon Dec 14 18:26:21 2020.
