 Gaussian 16, Revision A.03,

 -----------------------------------------------------------
 # opt freq B3LYP/6-31G(d) empiricaldispersion=gd3bj scf=xqc
 -----------------------------------------------------------

 ------------------------------
 CID_63043087_JID_6946_neutraal
 ------------------------------
 Symbolic Z-matrix:
 Charge =  0 Multiplicity = 1

 SCF Done:  E(RB3LYP) =  -712.023357733     A.U. after   14 cycles
 SCF Done:  E(RB3LYP) =  -712.029248143     A.U. after   12 cycles
 SCF Done:  E(RB3LYP) =  -712.029975483     A.U. after   12 cycles
 SCF Done:  E(RB3LYP) =  -712.030476117     A.U. after   12 cycles
 SCF Done:  E(RB3LYP) =  -712.030596122     A.U. after   11 cycles
 SCF Done:  E(RB3LYP) =  -712.030638510     A.U. after   11 cycles
 SCF Done:  E(RB3LYP) =  -712.030653429     A.U. after    9 cycles
 SCF Done:  E(RB3LYP) =  -712.030660359     A.U. after    8 cycles
 SCF Done:  E(RB3LYP) =  -712.030661023     A.U. after    8 cycles
 SCF Done:  E(RB3LYP) =  -712.030662724     A.U. after    8 cycles
 SCF Done:  E(RB3LYP) =  -712.030665564     A.U. after    7 cycles
 SCF Done:  E(RB3LYP) =  -712.030664120     A.U. after    7 cycles
 SCF Done:  E(RB3LYP) =  -712.030661913     A.U. after    7 cycles
 SCF Done:  E(RB3LYP) =  -712.030663947     A.U. after    8 cycles
 SCF Done:  E(RB3LYP) =  -712.030663000     A.U. after    7 cycles
 Optimization completed.
    -- Stationary point found.
 Normal termination of Gaussian 16 at Fri Dec 11 00:20:39 2020.

 --------------------------------------------------------------------
 #N Geom=AllCheck Guess=TCheck SCRF=Check GenChk RB3LYP/6-31G(d) Freq
 --------------------------------------------------------------------

 Structure from the checkpoint file:  "JID_6946.chk"
 ------------------------------
 CID_63043087_JID_6946_neutraal
 ------------------------------
 Charge =  0 Multiplicity = 1

 SCF Done:  E(RB3LYP) =  -712.030663000     A.U. after    1 cycles

  Exact polarizability: 195.679   0.311 138.076  -3.541   4.824 104.845
 Approx polarizability: 257.867  -4.951 233.874  -7.343  13.277 153.608

                      1                      2                      3
                      A                      A                      A
 Frequencies --     33.0724                59.4776                72.2466
 Red. masses --      4.4267                 4.1792                 3.5101
 Frc consts  --      0.0029                 0.0087                 0.0108
 IR Inten    --      0.2609                 0.4267                 5.0082

                      4                      5                      6
                      A                      A                      A
 Frequencies --    100.9895               103.0969               133.4861
 Red. masses --      3.9824                 3.2304                 2.4816
 Frc consts  --      0.0239                 0.0202                 0.0261
 IR Inten    --      1.1280                 1.5954                 3.6211

                      7                      8                      9
                      A                      A                      A
 Frequencies --    166.4310               196.5169               220.0736
 Red. masses --      3.3149                 3.6794                 1.9784
 Frc consts  --      0.0541                 0.0837                 0.0565
 IR Inten    --      1.3565                 2.0633                 0.1972

                     10                     11                     12
                      A                      A                      A
 Frequencies --    221.0827               224.8839               250.5938
 Red. masses --      2.2106                 1.2633                 1.2330
 Frc consts  --      0.0637                 0.0376                 0.0456
 IR Inten    --      3.8592                 0.1084                45.9195

                     13                     14                     15
                      A                      A                      A
 Frequencies --    274.4951               283.7045               290.6880
 Red. masses --      2.7845                 1.9896                 2.6349
 Frc consts  --      0.1236                 0.0944                 0.1312
 IR Inten    --      2.6835                 3.2589                 4.7226

                     16                     17                     18
                      A                      A                      A
 Frequencies --    324.4253               344.1847               392.7445
 Red. masses --      2.9147                 2.4261                 2.2240
 Frc consts  --      0.1807                 0.1693                 0.2021
 IR Inten    --     10.8403                 1.9477                32.5418

                     19                     20                     21
                      A                      A                      A
 Frequencies --    413.9243               436.0996               456.5128
 Red. masses --      1.3958                 2.5930                 3.7360
 Frc consts  --      0.1409                 0.2906                 0.4587
 IR Inten    --     55.3108                29.3486                 1.6361

                     22                     23                     24
                      A                      A                      A
 Frequencies --    479.5086               500.5014               524.3549
 Red. masses --      3.0958                 3.0379                 3.3420
 Frc consts  --      0.4194                 0.4484                 0.5414
 IR Inten    --      4.9722                 3.0804                 1.2161

                     25                     26                     27
                      A                      A                      A
 Frequencies --    578.9955               611.0503               644.3820
 Red. masses --      4.5512                 3.5701                 4.2791
 Frc consts  --      0.8989                 0.7854                 1.0469
 IR Inten    --     11.1019                 4.3272                 2.2408

                     28                     29                     30
                      A                      A                      A
 Frequencies --    693.5772               722.5292               737.9650
 Red. masses --      5.0142                 2.5686                 3.0966
 Frc consts  --      1.4212                 0.7901                 0.9936
 IR Inten    --      1.4986                13.5430                 1.6863

                     31                     32                     33
                      A                      A                      A
 Frequencies --    798.3059               817.2963               871.6689
 Red. masses --      1.5110                 3.2952                 1.3192
 Frc consts  --      0.5673                 1.2969                 0.5906
 IR Inten    --     36.2322                17.1096                87.8046

                     34                     35                     36
                      A                      A                      A
 Frequencies --    889.1305               898.9297               900.6349
 Red. masses --      1.4109                 1.5232                 1.7016
 Frc consts  --      0.6572                 0.7252                 0.8132
 IR Inten    --      0.6724                 8.0497                 3.9630

                     37                     38                     39
                      A                      A                      A
 Frequencies --    917.0535               939.3290               965.2992
 Red. masses --      2.2928                 2.0402                 1.4834
 Frc consts  --      1.1361                 1.0606                 0.8144
 IR Inten    --     13.3574                 4.9335                 7.8460

                     40                     41                     42
                      A                      A                      A
 Frequencies --    971.8409              1004.1773              1016.9962
 Red. masses --      1.2692                 1.5639                 5.1119
 Frc consts  --      0.7063                 0.9292                 3.1151
 IR Inten    --      1.6727                18.2235                 1.3346

                     43                     44                     45
                      A                      A                      A
 Frequencies --   1025.6840              1068.8130              1079.8366
 Red. masses --      1.5807                 2.5625                 1.3581
 Frc consts  --      0.9798                 1.7247                 0.9331
 IR Inten    --     10.3171                29.7732                 6.2810

                     46                     47                     48
                      A                      A                      A
 Frequencies --   1090.7311              1099.3651              1115.1917
 Red. masses --      3.4952                 4.7694                 1.6545
 Frc consts  --      2.4500                 3.3962                 1.2123
 IR Inten    --     72.2320                48.0815                 3.7141

                     49                     50                     51
                      A                      A                      A
 Frequencies --   1119.2384              1140.9308              1165.7432
 Red. masses --      1.9080                 1.6318                 2.4347
 Frc consts  --      1.4083                 1.2515                 1.9494
 IR Inten    --     25.1619                 6.4674                13.6172

                     52                     53                     54
                      A                      A                      A
 Frequencies --   1186.4941              1194.7473              1206.1766
 Red. masses --      1.2714                 1.5302                 1.1385
 Frc consts  --      1.0545                 1.2869                 0.9759
 IR Inten    --      0.8486                 9.5800                 3.4447

                     55                     56                     57
                      A                      A                      A
 Frequencies --   1218.4333              1243.2905              1258.0776
 Red. masses --      1.4310                 2.3775                 1.2723
 Frc consts  --      1.2517                 2.1653                 1.1864
 IR Inten    --      8.7470                37.9209                 8.7045

                     58                     59                     60
                      A                      A                      A
 Frequencies --   1280.1063              1314.9330              1333.4604
 Red. masses --      2.6301                 1.8290                 1.6967
 Frc consts  --      2.5393                 1.8632                 1.7775
 IR Inten    --     81.0381                 6.0706               100.1248

                     61                     62                     63
                      A                      A                      A
 Frequencies --   1351.1017              1373.5547              1389.9620
 Red. masses --      2.2265                 3.6308                 1.9150
 Frc consts  --      2.3947                 4.0359                 2.1798
 IR Inten    --     13.1024                43.2167                 9.4822

                     64                     65                     66
                      A                      A                      A
 Frequencies --   1411.4633              1436.7823              1443.1761
 Red. masses --      1.3479                 1.2678                 1.2110
 Frc consts  --      1.5822                 1.5420                 1.4860
 IR Inten    --      9.5780                 3.4892                24.1602

                     67                     68                     69
                      A                      A                      A
 Frequencies --   1446.7993              1485.9320              1504.7887
 Red. masses --      1.5285                 2.1319                 1.5160
 Frc consts  --      1.8851                 2.7734                 2.0225
 IR Inten    --     27.1987                58.0546                 0.4079

                     70                     71                     72
                      A                      A                      A
 Frequencies --   1508.3596              1519.7171              1521.1558
 Red. masses --      1.3606                 1.0499                 1.0478
 Frc consts  --      1.8239                 1.4287                 1.4284
 IR Inten    --      7.6365                 3.9338                 5.3380

                     73                     74                     75
                      A                      A                      A
 Frequencies --   1527.9363              1531.8017              1536.7135
 Red. masses --      1.1460                 1.1993                 1.0717
 Frc consts  --      1.5763                 1.6580                 1.4912
 IR Inten    --      5.1134                19.3806                16.0901

                     76                     77                     78
                      A                      A                      A
 Frequencies --   1540.1078              1552.8693              1636.7540
 Red. masses --      1.8233                 1.1028                 5.3964
 Frc consts  --      2.5481                 1.5668                 8.5177
 IR Inten    --     21.1106                 8.9776                68.4218

                     79                     80                     81
                      A                      A                      A
 Frequencies --   1668.5088              1691.6419              2982.0105
 Red. masses --      6.0642                 1.0904                 1.0718
 Frc consts  --      9.9467                 1.8384                 5.6153
 IR Inten    --    105.6510                31.8587                64.8978

                     82                     83                     84
                      A                      A                      A
 Frequencies --   3025.9151              3042.7337              3044.3293
 Red. masses --      1.0349                 1.0434                 1.0529
 Frc consts  --      5.5827                 5.6915                 5.7493
 IR Inten    --     58.9432                36.3557                28.6792

                     85                     86                     87
                      A                      A                      A
 Frequencies --   3055.7747              3084.5889              3086.1762
 Red. masses --      1.0892                 1.1066                 1.1065
 Frc consts  --      5.9924                 6.2037                 6.2092
 IR Inten    --     56.5544                41.4181                55.6353

                     88                     89                     90
                      A                      A                      A
 Frequencies --   3099.3605              3130.1048              3142.9556
 Red. masses --      1.1009                 1.0988                 1.0571
 Frc consts  --      6.2307                 6.3427                 6.1521
 IR Inten    --     24.4628                30.9803                23.0719

                     91                     92                     93
                      A                      A                      A
 Frequencies --   3160.3434              3187.1921              3203.7835
 Red. masses --      1.0997                 1.0866                 1.0938
 Frc consts  --      6.4712                 6.5035                 6.6146
 IR Inten    --     26.6131                 7.0594                15.1374

                     94                     95                     96
                      A                      A                      A
 Frequencies --   3214.5338              3232.0109              3233.8882
 Red. masses --      1.0906                 1.0918                 1.1147
 Frc consts  --      6.6398                 6.7193                 6.8684
 IR Inten    --      1.6258                12.7207                 5.2388

                     97                     98                     99
                      A                      A                      A
 Frequencies --   3468.2586              3554.6375              3745.4653
 Red. masses --      1.0494                 1.0925                 1.0652
 Frc consts  --      7.4373                 8.1331                 8.8045
 IR Inten    --      2.9783                 1.0016                64.0658

 - Thermochemistry -
 -------------------
 Temperature   298.150 Kelvin.  Pressure   1.00000 Atm.
 Atom     1 has atomic number  6 and mass  12.00000

 Molecular mass:   221.14158 amu.
 Principal axes and moments of inertia in atomic units:
                           1         2         3
     Eigenvalues --  1664.217056117.291826133.89069
           X            0.99995  -0.00571   0.00789
           Y           -0.00478   0.41761   0.90861
           Z            0.00848   0.90861  -0.41757
 This molecule is an asymmetric top.
 Rotational symmetry number  1.
 Warning -- assumption of classical behavior for rotation
           may cause significant error
 Rotational temperatures (Kelvin)      0.05204     0.01416     0.01412
 Rotational constants (GHZ):           1.08444     0.29502     0.29422
 Zero-point vibrational energy     797889.4 (Joules/Mol)
                                  190.70015 (Kcal/Mol)
 Warning -- explicit consideration of  26 degrees of freedom as
           vibrations may cause significant error
 Vibrational temperatures:     47.58    85.58   103.95   145.30   148.33
          (Kelvin)            192.06   239.46   282.74   316.64   318.09
                              323.56   360.55   394.94   408.19   418.24
                              466.78   495.21   565.07   595.54   627.45
                              656.82   689.91   720.11   754.43   833.05
                              879.17   927.12   997.90  1039.56  1061.77
                             1148.58  1175.91  1254.14  1279.26  1293.36
                             1295.81  1319.44  1351.48  1388.85  1398.26
                             1444.79  1463.23  1475.73  1537.78  1553.64
                             1569.32  1581.74  1604.51  1610.33  1641.54
                             1677.24  1707.10  1718.97  1735.42  1753.05
                             1788.82  1810.09  1841.79  1891.90  1918.55
                             1943.93  1976.24  1999.85  2030.78  2067.21
                             2076.41  2081.62  2137.92  2165.06  2170.19
                             2186.53  2188.60  2198.36  2203.92  2210.99
                             2215.87  2234.23  2354.92  2400.61  2433.90
                             4290.45  4353.62  4377.82  4380.11  4396.58
                             4438.04  4440.32  4459.29  4503.52  4522.01
                             4547.03  4585.66  4609.53  4625.00  4650.14
                             4652.84  4990.05  5114.33  5388.89

 Zero-point correction=                           0.303900 (Hartree/Particle)
 Thermal correction to Energy=                    0.320355
 Thermal correction to Enthalpy=                  0.321300
 Thermal correction to Gibbs Free Energy=         0.260421
 Sum of electronic and zero-point Energies=           -711.726763
 Sum of electronic and thermal Energies=              -711.710308
 Sum of electronic and thermal Enthalpies=            -711.709363
 Sum of electronic and thermal Free Energies=         -711.770242

                     E (Thermal)             CV                S
                      KCal/Mol        Cal/Mol-Kelvin    Cal/Mol-Kelvin
 Total                  201.026             63.245            128.129
 Electronic               0.000              0.000              0.000
 Translational            0.889              2.981             42.084
 Rotational               0.889              2.981             32.501
 Vibrational            199.249             57.283             53.544
 Vibration     1          0.594              1.983              5.636
 Vibration     2          0.597              1.974              4.474
 Vibration     3          0.598              1.967              4.091
 Vibration     4          0.604              1.948              3.435
 Vibration     5          0.605              1.947              3.395
 Vibration     6          0.613              1.920              2.895
 Vibration     7          0.624              1.884              2.475
 Vibration     8          0.636              1.845              2.165
 Vibration     9          0.647              1.811              1.958
 Vibration    10          0.648              1.809              1.950
 Vibration    11          0.650              1.803              1.919
 Vibration    12          0.663              1.762              1.726
 Vibration    13          0.677              1.720              1.568
 Vibration    14          0.682              1.704              1.511
 Vibration    15          0.687              1.691              1.470
 Vibration    16          0.709              1.627              1.288
 Vibration    17          0.723              1.587              1.193
 Vibration    18          0.760              1.486              0.990
 Vibration    19          0.778              1.440              0.913
 Vibration    20          0.797              1.392              0.839
 Vibration    21          0.815              1.346              0.776
 Vibration    22          0.836              1.296              0.711
 Vibration    23          0.856              1.249              0.657
 Vibration    24          0.879              1.196              0.600
 Vibration    25          0.936              1.077              0.487
 Vibration    26          0.970              1.008              0.431

                           ! Non-Optimized Parameters !
 Normal termination of Gaussian 16 at Fri Dec 11 00:33:00 2020.

 ----------------------------------------------------------------------
 # B3LYP/6-311++G(d,p) empiricaldispersion=gd3bj scf=xqc pop=npa geom=c
 heck
 ----------------------------------------------------------------------

 --------------------------------------
 CID_63043087_JID_6946_Energie_neutraal
 --------------------------------------
 Structure from the checkpoint file:  "JID_6946.chk"
 Charge =  0 Multiplicity = 1

 SCF Done:  E(RB3LYP) =  -712.242205402     A.U. after   15 cycles
 Normal termination of Gaussian 16 at Fri Dec 11 00:39:09 2020.

 ----------------------------------------------------------------------
 # B3LYP/6-311++G(d,p) empiricaldispersion=gd3bj scf=xqc pop=npa geom=c
 heck
 ----------------------------------------------------------------------

 ------------------------------------
 CID_63043087_JID_6946_Energie_kation
 ------------------------------------
 Structure from the checkpoint file:  "JID_6946.chk"
 Charge =  1 Multiplicity = 2

 SCF Done:  E(UB3LYP) =  -711.948147490     A.U. after   28 cycles
 Normal termination of Gaussian 16 at Fri Dec 11 00:55:21 2020.
 Gaussian 16:  ES64L-G16RevA.03 25-Dec-2016

 ----------------------------------------------------------------------
 # B3LYP/6-311++G(d,p) empiricaldispersion=gd3bj scf=xqc pop=npa geom=c
 heck
 ----------------------------------------------------------------------

 -----------------------------------
 CID_63043087_JID_6946_Energie_anion
 -----------------------------------
 Structure from the checkpoint file:  "JID_6946.chk"
 Charge = -1 Multiplicity = 2

                         Standard orientation:
 ---------------------------------------------------------------------
 Center     Atomic      Atomic             Coordinates (Angstroms)
 Number     Number       Type             X           Y           Z
 ---------------------------------------------------------------------
      1          6           0       -1.509035   -0.875515    2.046646
      2          6           0       -1.141537   -0.688497    0.577663
      3          6           0       -1.569806   -1.757105   -0.403207
      4          6           0       -2.221707   -0.397469   -0.462442
      5          6           0       -3.659133   -0.227731   -0.005865
      6          7           0       -3.856138    1.117853    0.552552
      7          6           0       -1.898924    0.491350   -1.670198
      8          8           0       -0.697656    0.172380   -2.355597
      9          6           0        0.201336   -0.026284    0.436353
     10          6           0        1.354404   -0.773913    0.206200
     11          6           0        2.608933   -0.153650    0.128600
     12          6           0        2.713935    1.233487    0.282424
     13          6           0        1.556120    1.980608    0.518405
     14          6           0        0.310452    1.366239    0.600757
     15          8           0        3.663368   -0.987312   -0.103463
     16          6           0        4.955566   -0.412725   -0.202641
     17          1           0       -0.751880   -1.495092    2.541224
     18          1           0       -2.476336   -1.369501    2.173640
     19          1           0       -1.537354    0.084401    2.577008
     20          1           0       -0.899192   -1.998984   -1.221398
     21          1           0       -2.146158   -2.593352   -0.014056
     22          1           0       -4.318229   -0.323470   -0.878709
     23          1           0       -3.939545   -1.043829    0.679808
     24          1           0       -4.842243    1.269345    0.758003
     25          1           0       -3.365020    1.182364    1.442701
     26          1           0       -2.699579    0.355942   -2.406600
     27          1           0       -1.919429    1.544634   -1.363362
     28          1           0        0.038728    0.479884   -1.804527
     29          1           0        1.297559   -1.849098    0.071434
     30          1           0        3.672516    1.733827    0.217599
     31          1           0        1.637036    3.057970    0.633790
     32          1           0       -0.585918    1.953676    0.777199
     33          1           0        5.016026    0.301080   -1.034712
     34          1           0        5.243437    0.094603    0.727635
     35          1           0        5.639227   -1.242685   -0.388228
 ---------------------------------------------------------------------

 SCF Done:  E(UB3LYP) =  -712.230795045     A.U. after   33 cycles
 SCF Done:  E(UB3LYP) =  -712.230795046     a.u. after    1 cycles

 The electronic state is 2-A.
 Alpha  occ. eigenvalues --  -19.06607 -19.02484 -14.19884 -10.14791 -10.13106
 Alpha  occ. eigenvalues --  -10.11943 -10.10268 -10.10014 -10.09606 -10.09155
 Alpha  occ. eigenvalues --  -10.08999 -10.08364 -10.08104 -10.07929 -10.07676
 Alpha  occ. eigenvalues --  -10.07505  -0.98239  -0.92834  -0.80477  -0.77890
 Alpha  occ. eigenvalues --   -0.75690  -0.67174  -0.67118  -0.63311  -0.60908
 Alpha  occ. eigenvalues --   -0.60179  -0.56913  -0.53548  -0.51027  -0.48405
 Alpha  occ. eigenvalues --   -0.45883  -0.43237  -0.40853  -0.40309  -0.39865
 Alpha  occ. eigenvalues --   -0.39655  -0.38435  -0.38100  -0.36689  -0.35382
 Alpha  occ. eigenvalues --   -0.34359  -0.33524  -0.32535  -0.31682  -0.31177
 Alpha  occ. eigenvalues --   -0.30132  -0.29345  -0.28781  -0.28100  -0.27568
 Alpha  occ. eigenvalues --   -0.26273  -0.24783  -0.24103  -0.23418  -0.20587
 Alpha  occ. eigenvalues --   -0.18454  -0.18367  -0.15846  -0.14989  -0.13897
 Alpha  occ. eigenvalues --    0.03925
 Alpha virt. eigenvalues --    0.05130   0.06963   0.07028   0.07439   0.07759
 Alpha virt. eigenvalues --    0.08415   0.08463   0.09250   0.09423   0.09932
 Alpha virt. eigenvalues --    0.10504   0.10955   0.11047   0.11461   0.12689

  Beta  occ. eigenvalues --  -19.06598 -19.02481 -14.19841 -10.14793 -10.13056
  Beta  occ. eigenvalues --  -10.11938 -10.10247 -10.10011 -10.09602 -10.09156
  Beta  occ. eigenvalues --  -10.08988 -10.08340 -10.08095 -10.07923 -10.07672
  Beta  occ. eigenvalues --  -10.07476  -0.98219  -0.92830  -0.80444  -0.77848
  Beta  occ. eigenvalues --   -0.75664  -0.67147  -0.67085  -0.63276  -0.60852
  Beta  occ. eigenvalues --   -0.60138  -0.56857  -0.53512  -0.50995  -0.48380
  Beta  occ. eigenvalues --   -0.45843  -0.43216  -0.40823  -0.40286  -0.39830
  Beta  occ. eigenvalues --   -0.39627  -0.38398  -0.38068  -0.36661  -0.35316
  Beta  occ. eigenvalues --   -0.34322  -0.33487  -0.32518  -0.31650  -0.31151
  Beta  occ. eigenvalues --   -0.30105  -0.29311  -0.28749  -0.28074  -0.27551
  Beta  occ. eigenvalues --   -0.26248  -0.24766  -0.24072  -0.23396  -0.20568
  Beta  occ. eigenvalues --   -0.18443  -0.18349  -0.15808  -0.14949  -0.13868
  Beta virt. eigenvalues --    0.06158   0.06496   0.07091   0.07513   0.07823
  Beta virt. eigenvalues --    0.08134   0.08434   0.08886   0.09713   0.09868
  Beta virt. eigenvalues --    0.10247   0.10739   0.11010   0.11309   0.11836

 Mulliken charges and spin densities:
               1          2
     1  C    0.519087  -1.147893
     2  C    0.790987  -0.570498
     3  C   -0.236925  -0.275630
     4  C   -0.288899   1.050685
     5  C    0.662223  -1.218168
     6  N   -0.333754  -0.028260
     7  C   -0.435455  -0.099242
     8  O   -0.248147   0.007764
     9  C   -0.029408   0.942132
    10  C   -1.616217   0.866382
    11  C   -0.280074  -0.338171
    12  C    0.809477  -0.464030
    13  C    0.638283  -1.145230
    14  C   -0.452514  -0.057173
    15  O   -0.205309   0.059308
    16  C    0.874694  -1.220503
    17  H    0.022622   0.140409
    18  H   -0.057516   0.191641
    19  H   -0.133888   0.297262
    20  H    0.189841   0.003538
    21  H    0.049162   0.116485
    22  H   -0.007480   0.166043
    23  H   -0.335800   0.469470
    24  H   -0.215159   0.477558
    25  H   -0.013186   0.223062
    26  H    0.112345   0.038610
    27  H    0.162200   0.041838
    28  H    0.344702  -0.037997
    29  H    0.178557   0.021866
    30  H   -0.309615   0.503109
    31  H   -0.360755   0.547647
    32  H    0.184058  -0.029118
    33  H   -0.223828   0.380435
    34  H   -0.339150   0.503825
    35  H   -0.415157   0.582845
 Sum of Mulliken charges =  -1.00000   1.00000

 Dipole moment (field-independent basis, Debye):
    X=             -1.7321    Y=             -2.4081    Z=             -1.5363  Tot=              3.3406
 Quadrupole moment (field-independent basis, Debye-Ang):
   XX=           -213.3029   YY=           -131.7303   ZZ=           -136.7366
   XY=              1.8752   XZ=              8.8765   YZ=             -1.2858

 Summary of Natural Population Analysis:

                                       Natural Population
                Natural  -----------------------------------------------
    Atom  No    Charge         Core      Valence    Rydberg      Total
 -----------------------------------------------------------------------
      C    1   -0.27907      0.99962     2.27324    0.00621     3.27907
      C    2   -0.04760      0.99948     2.03461    0.01351     3.04760
      C    3   -0.19198      0.99956     2.18350    0.00893     3.19198
      C    4   -0.04619      0.99950     2.03410    0.01259     3.04619
      C    5   -0.08611      0.99957     2.07365    0.01290     3.08611
      N    6   -0.42326      0.99977     2.91268    0.01081     3.92326
      C    7   -0.00598      0.99953     1.99467    0.01179     3.00598
      O    8   -0.37222      0.99990     3.36619    0.00613     4.37222
      C    9   -0.01593      0.99948     2.00349    0.01296     3.01593
      C   10   -0.11828      0.99946     2.10923    0.00960     3.11828
      C   11    0.16406      0.99938     1.82282    0.01373     2.83594
      C   12   -0.14683      0.99952     2.13808    0.00924     3.14683
      C   13   -0.08760      0.99957     2.07765    0.01038     3.08760
      C   14   -0.12301      0.99950     2.11373    0.00978     3.12301
      O   15   -0.27202      0.99986     3.26252    0.00964     4.27202
      C   16   -0.10094      0.99960     2.09232    0.00901     3.10094
      H   17    0.10224      0.00000     0.39689    0.00087     0.39776
      H   18    0.10244      0.00000     0.39635    0.00121     0.39756
      H   19    0.10085      0.00000     0.39789    0.00127     0.39915
      H   20    0.11313      0.00000     0.38584    0.00103     0.38687
      H   21    0.10122      0.00000     0.39789    0.00089     0.39878
      H   22    0.09141      0.00000     0.40738    0.00120     0.40859
      H   23    0.08388      0.00000     0.41405    0.00207     0.41612
      H   24    0.17777      0.00000     0.31919    0.00304     0.32223
      H   25    0.17465      0.00000     0.32253    0.00282     0.32535
      H   26    0.08489      0.00000     0.41389    0.00122     0.41511
      H   27    0.08979      0.00000     0.40881    0.00140     0.41021
      H   28    0.23683      0.00000     0.26012    0.00305     0.26317
      H   29    0.10817      0.00000     0.39028    0.00155     0.39183
      H   30    0.10931      0.00000     0.38894    0.00174     0.39069
      H   31    0.10247      0.00000     0.39657    0.00096     0.39753
      H   32    0.10658      0.00000     0.39176    0.00166     0.39342
      H   33    0.08572      0.00000     0.41257    0.00171     0.41428
      H   34    0.08716      0.00000     0.41075    0.00209     0.41284
      H   35    0.09445      0.00000     0.40426    0.00129     0.40555
 =======================================================================
   * Total *   -0.00000     15.99329    43.80844    0.19827    60.00000

 Normal termination of Gaussian 16 at Fri Dec 11 01:14:40 2020.
