 Gaussian 16, Revision A.03,

 -----------------------------------------------------------
 # opt freq B3LYP/6-31G(d) empiricaldispersion=gd3bj scf=xqc
 -----------------------------------------------------------

 -------------------------------
 CID_101913363_JID_2714_neutraal
 -------------------------------
 Symbolic Z-matrix:
 Charge =  0 Multiplicity = 1

 SCF Done:  E(RB3LYP) =  -469.351118807     A.U. after   14 cycles
 SCF Done:  E(RB3LYP) =  -469.353864134     A.U. after   11 cycles
 SCF Done:  E(RB3LYP) =  -469.355508137     A.U. after   12 cycles
 SCF Done:  E(RB3LYP) =  -469.357885649     A.U. after   15 cycles
 SCF Done:  E(RB3LYP) =  -469.359412238     A.U. after   11 cycles
 SCF Done:  E(RB3LYP) =  -469.360227282     A.U. after   12 cycles
 SCF Done:  E(RB3LYP) =  -469.360313271     A.U. after   11 cycles
 SCF Done:  E(RB3LYP) =  -469.360374929     A.U. after   10 cycles
 SCF Done:  E(RB3LYP) =  -469.360475824     A.U. after   12 cycles
 SCF Done:  E(RB3LYP) =  -469.360371994     A.U. after   13 cycles
 SCF Done:  E(RB3LYP) =  -469.360680314     A.U. after   12 cycles
 SCF Done:  E(RB3LYP) =  -469.360627849     A.U. after   11 cycles
 SCF Done:  E(RB3LYP) =  -469.360681158     A.U. after   11 cycles
 SCF Done:  E(RB3LYP) =  -469.360680696     A.U. after    8 cycles
 SCF Done:  E(RB3LYP) =  -469.360681196     A.U. after    8 cycles
 Optimization completed.
    -- Stationary point found.
 Normal termination of Gaussian 16 at Wed Dec  9 18:00:26 2020.

 --------------------------------------------------------------------
 #N Geom=AllCheck Guess=TCheck SCRF=Check GenChk RB3LYP/6-31G(d) Freq
 --------------------------------------------------------------------

 Structure from the checkpoint file:  "JID_2714.chk"
 -------------------------------
 CID_101913363_JID_2714_neutraal
 -------------------------------
 Charge =  0 Multiplicity = 1

 SCF Done:  E(RB3LYP) =  -469.360681196     A.U. after    1 cycles

  Exact polarizability: 175.666   6.325 115.870   8.719   0.005  94.099
 Approx polarizability: 246.504  15.261 165.859  19.873   0.410 136.697

                      1                      2                      3
                      A                      A                      A
 Frequencies --     34.8409                69.4439                85.0288
 Red. masses --      2.8869                 3.1990                 2.9386
 Frc consts  --      0.0021                 0.0091                 0.0125
 IR Inten    --      0.0232                 0.0341                 0.0117

                      4                      5                      6
                      A                      A                      A
 Frequencies --    103.7461               189.1022               210.6229
 Red. masses --      3.0052                 1.9881                 1.2524
 Frc consts  --      0.0191                 0.0419                 0.0327
 IR Inten    --      0.0475                 0.6433                 0.3207

                      7                      8                      9
                      A                      A                      A
 Frequencies --    228.0644               248.9544               258.2827
 Red. masses --      1.8689                 1.3858                 1.9978
 Frc consts  --      0.0573                 0.0506                 0.0785
 IR Inten    --      0.0666                 0.1688                 0.5201

                     10                     11                     12
                      A                      A                      A
 Frequencies --    322.4647               339.0625               382.4987
 Red. masses --      2.2690                 2.3443                 2.1350
 Frc consts  --      0.1390                 0.1588                 0.1840
 IR Inten    --      0.3830                 0.9007                 0.0888

                     13                     14                     15
                      A                      A                      A
 Frequencies --    415.5519               427.6426               464.8085
 Red. masses --      2.5390                 2.7160                 2.7539
 Frc consts  --      0.2583                 0.2926                 0.3505
 IR Inten    --      0.5463                 0.4267                 1.1366

                     16                     17                     18
                      A                      A                      A
 Frequencies --    482.1567               505.9668               548.2606
 Red. masses --      2.8932                 1.8583                 2.3384
 Frc consts  --      0.3963                 0.2803                 0.4141
 IR Inten    --      0.2624                 0.2791                 1.3969

                     19                     20                     21
                      A                      A                      A
 Frequencies --    561.8319               632.9281               728.7133
 Red. masses --      2.1341                 2.1494                 1.1594
 Frc consts  --      0.3969                 0.5073                 0.3627
 IR Inten    --      0.2300                 4.5874                 1.3253

                     22                     23                     24
                      A                      A                      A
 Frequencies --    779.5649               799.2139               817.3222
 Red. masses --      3.1634                 1.5575                 3.0776
 Frc consts  --      1.1327                 0.5861                 1.2113
 IR Inten    --      0.5057                 0.0712                 0.1833

                     25                     26                     27
                      A                      A                      A
 Frequencies --    852.8938               868.3818               884.8954
 Red. masses --      1.9321                 1.8542                 2.2175
 Frc consts  --      0.8281                 0.8238                 1.0230
 IR Inten    --      1.1388                 5.3481                 3.9415

                     28                     29                     30
                      A                      A                      A
 Frequencies --    908.9083               914.5158               934.5965
 Red. masses --      1.4701                 1.4174                 2.3454
 Frc consts  --      0.7155                 0.6984                 1.2070
 IR Inten    --     28.5722                17.6232                 0.4667

                     31                     32                     33
                      A                      A                      A
 Frequencies --    958.0769              1001.4097              1023.7485
 Red. masses --      1.3939                 1.7252                 1.4358
 Frc consts  --      0.7538                 1.0193                 0.8866
 IR Inten    --      4.2999                 0.0242                 3.1434

                     34                     35                     36
                      A                      A                      A
 Frequencies --   1040.4718              1050.0626              1052.6478
 Red. masses --      2.5823                 1.7519                 1.5978
 Frc consts  --      1.6471                 1.1381                 1.0431
 IR Inten    --      7.0722                 0.3021                 0.2084

                     37                     38                     39
                      A                      A                      A
 Frequencies --   1076.2688              1077.5325              1087.7697
 Red. masses --      1.4590                 1.6675                 1.5551
 Frc consts  --      0.9957                 1.1407                 1.0841
 IR Inten    --      0.8059                 6.5487                 0.4747

                     40                     41                     42
                      A                      A                      A
 Frequencies --   1100.9703              1144.2142              1150.9635
 Red. masses --      2.0124                 1.0641                 1.6513
 Frc consts  --      1.4372                 0.8209                 1.2888
 IR Inten    --      0.0409                 0.2647                 5.2949

                     43                     44                     45
                      A                      A                      A
 Frequencies --   1170.2917              1198.0959              1271.7392
 Red. masses --      1.6350                 2.2307                 1.3204
 Frc consts  --      1.3194                 1.8865                 1.2582
 IR Inten    --      2.4073                 1.6226                 1.0630

                     46                     47                     48
                      A                      A                      A
 Frequencies --   1303.3256              1310.6130              1326.9599
 Red. masses --      1.2640                 1.2097                 1.5923
 Frc consts  --      1.2650                 1.2243                 1.6519
 IR Inten    --      0.7507                 1.5760                 2.1926

                     49                     50                     51
                      A                      A                      A
 Frequencies --   1338.1094              1365.6705              1368.8576
 Red. masses --      1.5036                 2.0905                 1.3176
 Frc consts  --      1.5862                 2.2972                 1.4547
 IR Inten    --      1.0238                15.6024                 0.2815

                     52                     53                     54
                      A                      A                      A
 Frequencies --   1398.3063              1401.4258              1405.3989
 Red. masses --      1.4345                 1.3912                 1.4351
 Frc consts  --      1.6526                 1.6098                 1.6701
 IR Inten    --      0.2665                 5.5737                 2.2975

                     55                     56                     57
                      A                      A                      A
 Frequencies --   1409.6375              1425.3538              1441.5411
 Red. masses --      1.4435                 1.3607                 1.2371
 Frc consts  --      1.6900                 1.6288                 1.5147
 IR Inten    --      0.2733                 9.5252                 9.1097

                     58                     59                     60
                      A                      A                      A
 Frequencies --   1448.5758              1472.1267              1510.1907
 Red. masses --      1.5495                 1.2558                 1.0863
 Frc consts  --      1.9157                 1.6035                 1.4597
 IR Inten    --      1.4522                 0.3571                 1.7601

                     61                     62                     63
                      A                      A                      A
 Frequencies --   1514.0063              1514.4562              1519.9580
 Red. masses --      1.0458                 1.0912                 1.0806
 Frc consts  --      1.4124                 1.4746                 1.4709
 IR Inten    --      6.6427                 0.8192                 2.2712

                     64                     65                     66
                      A                      A                      A
 Frequencies --   1520.6941              1524.0830              1525.7356
 Red. masses --      1.0624                 1.0782                 1.0712
 Frc consts  --      1.4476                 1.4756                 1.4691
 IR Inten    --      6.3910                13.8262                 8.1446

                     67                     68                     69
                      A                      A                      A
 Frequencies --   1537.1527              1539.2452              1692.3754
 Red. masses --      1.0904                 1.0730                 4.3600
 Frc consts  --      1.5180                 1.4979                 7.3575
 IR Inten    --      1.7677                 5.4740                16.4512

                     70                     71                     72
                      A                      A                      A
 Frequencies --   1712.4689              3019.9162              3021.5153
 Red. masses --      5.7587                 1.0673                 1.0691
 Frc consts  --      9.9500                 5.7347                 5.7508
 IR Inten    --      2.9003                 8.4593                36.1794

                     73                     74                     75
                      A                      A                      A
 Frequencies --   3027.2164              3033.1451              3034.3238
 Red. masses --      1.0676                 1.0624                 1.0620
 Frc consts  --      5.7644                 5.7588                 5.7608
 IR Inten    --     16.1882                14.6074                24.6898

                     76                     77                     78
                      A                      A                      A
 Frequencies --   3043.7192              3045.1156              3049.1381
 Red. masses --      1.0382                 1.0714                 1.0499
 Frc consts  --      5.6667                 5.8535                 5.7514
 IR Inten    --     16.0565                37.5217                50.5342

                     79                     80                     81
                      A                      A                      A
 Frequencies --   3070.7835              3071.4148              3075.2342
 Red. masses --      1.0980                 1.0924                 1.1022
 Frc consts  --      6.1003                 6.0719                 6.1416
 IR Inten    --     66.9806                73.4555                10.5588

                     82                     83                     84
                      A                      A                      A
 Frequencies --   3079.8263              3085.2320              3094.5721
 Red. masses --      1.1015                 1.0993                 1.1002
 Frc consts  --      6.1561                 6.1649                 6.2074
 IR Inten    --     82.7137                76.5916                 2.8329

                     85                     86                     87
                      A                      A                      A
 Frequencies --   3095.0187              3133.5185              3158.1622
 Red. masses --      1.1003                 1.1001                 1.0954
 Frc consts  --      6.2099                 6.3643                 6.4370
 IR Inten    --     38.2752                24.5805                21.0847

                     88                     89                     90
                      A                      A                      A
 Frequencies --   3178.1576              3196.4230              3256.6174
 Red. masses --      1.0610                 1.0859                 1.1137
 Frc consts  --      6.3142                 6.5369                 6.9592
 IR Inten    --     10.0904                12.3468                15.8406

 - Thermochemistry -
 -------------------
 Temperature   298.150 Kelvin.  Pressure   1.00000 Atm.
 Atom     1 has atomic number  6 and mass  12.00000

 Molecular mass:   164.15650 amu.
 Principal axes and moments of inertia in atomic units:
                           1         2         3
     Eigenvalues --  1094.450033603.337023948.02330
           X            1.00000   0.00220   0.00096
           Y           -0.00219   0.99999  -0.00380
           Z           -0.00097   0.00380   0.99999
 This molecule is an asymmetric top.
 Rotational symmetry number  1.
 Warning -- assumption of classical behavior for rotation
           may cause significant error
 Rotational temperatures (Kelvin)      0.07914     0.02404     0.02194
 Rotational constants (GHZ):           1.64899     0.50085     0.45713
 Zero-point vibrational energy     775777.4 (Joules/Mol)
                                  185.41524 (Kcal/Mol)
 Warning -- explicit consideration of  19 degrees of freedom as
           vibrations may cause significant error
 Vibrational temperatures:     50.13    99.91   122.34   149.27   272.08
          (Kelvin)            303.04   328.13   358.19   371.61   463.95
                              487.84   550.33   597.89   615.28   668.76
                              693.72   727.97   788.82   808.35   910.64
                             1048.46  1121.62  1149.89  1175.94  1227.12
                             1249.41  1273.17  1307.72  1315.78  1344.68
                             1378.46  1440.81  1472.95  1497.01  1510.81
                             1514.53  1548.51  1550.33  1565.06  1584.05
                             1646.27  1655.98  1683.79  1723.79  1829.75
                             1875.19  1885.68  1909.20  1925.24  1964.90
                             1969.48  2011.85  2016.34  2022.06  2028.15
                             2050.77  2074.06  2084.18  2118.06  2172.83
                             2178.32  2178.96  2186.88  2187.94  2192.82
                             2195.19  2211.62  2214.63  2434.95  2463.86
                             4344.99  4347.29  4355.49  4364.02  4365.72
                             4379.23  4381.24  4387.03  4418.17  4419.08
                             4424.58  4431.18  4438.96  4452.40  4453.04
                             4508.43  4543.89  4572.66  4598.94  4685.55

 Zero-point correction=                           0.295478 (Hartree/Particle)
 Thermal correction to Energy=                    0.308191
 Thermal correction to Enthalpy=                  0.309135
 Thermal correction to Gibbs Free Energy=         0.256499
 Sum of electronic and zero-point Energies=           -469.065203
 Sum of electronic and thermal Energies=              -469.052490
 Sum of electronic and thermal Enthalpies=            -469.051546
 Sum of electronic and thermal Free Energies=         -469.104182

                     E (Thermal)             CV                S
                      KCal/Mol        Cal/Mol-Kelvin    Cal/Mol-Kelvin
 Total                  193.393             49.910            110.782
 Electronic               0.000              0.000              0.000
 Translational            0.889              2.981             41.195
 Rotational               0.889              2.981             31.121
 Vibrational            191.615             43.949             38.465
 Vibration     1          0.594              1.983              5.533
 Vibration     2          0.598              1.969              4.169
 Vibration     3          0.601              1.960              3.771
 Vibration     4          0.605              1.946              3.383
 Vibration     5          0.633              1.855              2.237
 Vibration     6          0.643              1.825              2.038
 Vibration     7          0.651              1.798              1.894
 Vibration     8          0.662              1.765              1.738
 Vibration     9          0.667              1.749              1.673
 Vibration    10          0.707              1.630              1.298
 Vibration    11          0.719              1.597              1.217
 Vibration    12          0.752              1.508              1.029
 Vibration    13          0.779              1.436              0.907
 Vibration    14          0.789              1.410              0.866
 Vibration    15          0.822              1.328              0.752
 Vibration    16          0.838              1.290              0.704
 Vibration    17          0.861              1.237              0.643
 Vibration    18          0.903              1.143              0.548
 Vibration    19          0.918              1.114              0.520

 Optimization completed.
    -- Stationary point found.
 Normal termination of Gaussian 16 at Wed Dec  9 18:08:54 2020.

 ----------------------------------------------------------------------
 # B3LYP/6-311++G(d,p) empiricaldispersion=gd3bj scf=xqc pop=npa geom=c
 heck
 ----------------------------------------------------------------------

 ---------------------------------------
 CID_101913363_JID_2714_Energie_neutraal
 ---------------------------------------
 Structure from the checkpoint file:  "JID_2714.chk"
 Charge =  0 Multiplicity = 1

 SCF Done:  E(RB3LYP) =  -469.487036022     A.U. after   13 cycles
 Normal termination of Gaussian 16 at Wed Dec  9 18:12:17 2020.

 ----------------------------------------------------------------------
 # B3LYP/6-311++G(d,p) empiricaldispersion=gd3bj scf=xqc pop=npa geom=c
 heck
 ----------------------------------------------------------------------

 -------------------------------------
 CID_101913363_JID_2714_Energie_kation
 -------------------------------------
 Structure from the checkpoint file:  "JID_2714.chk"
 Charge =  1 Multiplicity = 2

 SCF Done:  E(UB3LYP) =  -469.196108564     A.U. after   18 cycles
 Normal termination of Gaussian 16 at Wed Dec  9 18:18:45 2020.
 Gaussian 16:  ES64L-G16RevA.03 25-Dec-2016

 ----------------------------------------------------------------------
 # B3LYP/6-311++G(d,p) empiricaldispersion=gd3bj scf=xqc pop=npa geom=c
 heck
 ----------------------------------------------------------------------

 ------------------------------------
 CID_101913363_JID_2714_Energie_anion
 ------------------------------------
 Structure from the checkpoint file:  "JID_2714.chk"
 Charge = -1 Multiplicity = 2

                         Standard orientation:
 ---------------------------------------------------------------------
 Center     Atomic      Atomic             Coordinates (Angstroms)
 Number     Number       Type             X           Y           Z
 ---------------------------------------------------------------------
      1          6           0       -2.421455    1.992612   -0.186907
      2          6           0       -2.694374    0.506742   -0.122241
      3          6           0       -3.939323    0.054594   -0.352722
      4          6           0       -1.573544   -0.409797    0.189464
      5          6           0       -0.330251    0.069863    0.398960
      6          6           0        0.913832   -0.728795    0.710740
      7          6           0        1.547789   -1.328776   -0.569845
      8          6           0        2.154602   -0.248842   -1.473619
      9          6           0        3.200143    0.580351   -0.715727
     10          6           0        2.604354    1.197234    0.556780
     11          6           0        1.961794    0.128697    1.454190
     12          6           0       -1.885133   -1.887036    0.254023
     13          1           0       -3.336288    2.543721   -0.420355
     14          1           0       -1.677402    2.231268   -0.956822
     15          1           0       -2.030882    2.371846    0.765212
     16          1           0       -4.198694   -0.997705   -0.325894
     17          1           0       -4.749424    0.740980   -0.581162
     18          1           0       -0.182350    1.142825    0.325273
     19          1           0        0.642919   -1.564080    1.368441
     20          1           0        2.338828   -2.032230   -0.270880
     21          1           0        0.794960   -1.906729   -1.117779
     22          1           0        1.354990    0.411782   -1.836599
     23          1           0        2.605780   -0.711769   -2.359895
     24          1           0        3.609809    1.365757   -1.363014
     25          1           0        4.042423   -0.071454   -0.440037
     26          1           0        1.854597    1.948892    0.273386
     27          1           0        3.377970    1.735094    1.118735
     28          1           0        1.502206    0.596569    2.333909
     29          1           0        2.751232   -0.538095    1.828147
     30          1           0       -2.671930   -2.092603    0.989754
     31          1           0       -2.248650   -2.254648   -0.713421
     32          1           0       -1.010704   -2.480504    0.524425
 ---------------------------------------------------------------------

 SCF Done:  E(UB3LYP) =  -469.472105411     A.U. after   33 cycles
 SCF Done:  E(UB3LYP) =  -469.472105411     a.u. after    1 cycles

 The electronic state is 2-A.
 Alpha  occ. eigenvalues --  -10.06635 -10.06037 -10.05951 -10.05837 -10.05458
 Alpha  occ. eigenvalues --  -10.05427 -10.05216 -10.05151 -10.04904 -10.04882
 Alpha  occ. eigenvalues --  -10.04374 -10.04134  -0.73079  -0.70964  -0.65620
 Alpha  occ. eigenvalues --   -0.63016  -0.62370  -0.58578  -0.55938  -0.50486
 Alpha  occ. eigenvalues --   -0.49705  -0.46903  -0.42187  -0.39081  -0.37647
 Alpha  occ. eigenvalues --   -0.36194  -0.33869  -0.33278  -0.32848  -0.31540
 Alpha  occ. eigenvalues --   -0.30044  -0.29730  -0.29310  -0.27321  -0.26896
 Alpha  occ. eigenvalues --   -0.26786  -0.25647  -0.25219  -0.23790  -0.23205
 Alpha  occ. eigenvalues --   -0.22273  -0.19633  -0.19529  -0.18773  -0.17336
 Alpha  occ. eigenvalues --   -0.11245   0.04849
 Alpha virt. eigenvalues --    0.06843   0.07325   0.07654   0.08389   0.08962
 Alpha virt. eigenvalues --    0.09244   0.10329   0.10684   0.11173   0.11380
 Alpha virt. eigenvalues --    0.11672   0.12516   0.12932   0.13658   0.13984

  Beta  occ. eigenvalues --  -10.06574 -10.06046 -10.05947 -10.05808 -10.05445
  Beta  occ. eigenvalues --  -10.05415 -10.05197 -10.05135 -10.04875 -10.04851
  Beta  occ. eigenvalues --  -10.04249 -10.04043  -0.72979  -0.70847  -0.65512
  Beta  occ. eigenvalues --   -0.62974  -0.62317  -0.58445  -0.55836  -0.50383
  Beta  occ. eigenvalues --   -0.49637  -0.46738  -0.42071  -0.38985  -0.37562
  Beta  occ. eigenvalues --   -0.36135  -0.33802  -0.33222  -0.32790  -0.31432
  Beta  occ. eigenvalues --   -0.29985  -0.29688  -0.29257  -0.27274  -0.26838
  Beta  occ. eigenvalues --   -0.26740  -0.25603  -0.25155  -0.23725  -0.23148
  Beta  occ. eigenvalues --   -0.22211  -0.19551  -0.19433  -0.18729  -0.16935
  Beta  occ. eigenvalues --   -0.10630
  Beta virt. eigenvalues --    0.06976   0.07667   0.07885   0.08135   0.09038
  Beta virt. eigenvalues --    0.09369   0.09504   0.10753   0.10950   0.11551
  Beta virt. eigenvalues --    0.11665   0.11936   0.12754   0.13103   0.13808

 Mulliken charges and spin densities:
               1          2
     1  C   -0.552563  -0.058908
     2  C   -0.557929   1.396259
     3  C    0.093821  -1.007610
     4  C    0.446287  -0.164123
     5  C    1.069424  -1.132294
     6  C   -1.775687   2.332738
     7  C    0.830741  -1.379589
     8  C   -0.962412   0.697612
     9  C    1.148092  -1.704751
    10  C   -0.265892   0.090034
    11  C    0.105415  -0.644473
    12  C    0.536053  -1.396617
    13  H    0.064373   0.075331
    14  H   -0.041374   0.186818
    15  H    0.051701   0.091016
    16  H    0.093871   0.039401
    17  H    0.002174   0.091453
    18  H    0.882948  -0.765961
    19  H    0.015225   0.204485
    20  H   -0.496970   0.639808
    21  H    0.019937   0.137175
    22  H    0.003733   0.145821
    23  H   -0.274123   0.435130
    24  H   -0.304156   0.459995
    25  H    0.019336   0.104575
    26  H   -0.282518   0.386931
    27  H   -0.309979   0.487098
    28  H    0.066937   0.068811
    29  H   -0.426103   0.589217
    30  H    0.104901   0.012117
    31  H   -0.194525   0.358428
    32  H   -0.110735   0.224071
 Sum of Mulliken charges =  -1.00000   1.00000

 Dipole moment (field-independent basis, Debye):
    X=             -3.6509    Y=              1.8304    Z=              1.8121  Tot=              4.4680
 Quadrupole moment (field-independent basis, Debye-Ang):
   XX=           -146.1913   YY=           -114.6458   ZZ=           -109.0746
   XY=             -1.2580   XZ=             -3.1761   YZ=             -0.6661

 Summary of Natural Population Analysis:

                                       Natural Population
                Natural  -----------------------------------------------
    Atom  No    Charge         Core      Valence    Rydberg      Total
 -----------------------------------------------------------------------
      C    1   -0.29822      0.99963     2.29326    0.00533     3.29822
      C    2   -0.00550      0.99950     1.99642    0.00958     3.00550
      C    3   -0.19010      0.99953     2.18340    0.00717     3.19010
      C    4   -0.02649      0.99945     2.01757    0.00947     3.02649
      C    5   -0.05588      0.99946     2.04766    0.00875     3.05588
      C    6   -0.12900      0.99958     2.11823    0.01119     3.12900
      C    7   -0.18206      0.99961     2.17325    0.00920     3.18206
      C    8   -0.19133      0.99963     2.18317    0.00854     3.19133
      C    9   -0.18843      0.99963     2.18076    0.00803     3.18843
      C   10   -0.19105      0.99963     2.18301    0.00841     3.19105
      C   11   -0.18374      0.99962     2.17444    0.00968     3.18374
      C   12   -0.29975      0.99963     2.29410    0.00602     3.29975
      H   13    0.09807      0.00000     0.40114    0.00078     0.40193
      H   14    0.10456      0.00000     0.39409    0.00135     0.39544
      H   15    0.10012      0.00000     0.39886    0.00101     0.39988
      H   16    0.09208      0.00000     0.40702    0.00090     0.40792
      H   17    0.08654      0.00000     0.41261    0.00085     0.41346
      H   18    0.09199      0.00000     0.40627    0.00174     0.40801
      H   19    0.10260      0.00000     0.39569    0.00171     0.39740
      H   20    0.09481      0.00000     0.40323    0.00196     0.40519
      H   21    0.10028      0.00000     0.39850    0.00122     0.39972
      H   22    0.09546      0.00000     0.40311    0.00143     0.40454
      H   23    0.09771      0.00000     0.40124    0.00105     0.40229
      H   24    0.09659      0.00000     0.40221    0.00120     0.40341
      H   25    0.09193      0.00000     0.40650    0.00157     0.40807
      H   26    0.09165      0.00000     0.40697    0.00138     0.40835
      H   27    0.09792      0.00000     0.40089    0.00119     0.40208
      H   28    0.09625      0.00000     0.40277    0.00098     0.40375
      H   29    0.09594      0.00000     0.40290    0.00116     0.40406
      H   30    0.09885      0.00000     0.40027    0.00089     0.40115
      H   31    0.10496      0.00000     0.39372    0.00132     0.39504
      H   32    0.10323      0.00000     0.39581    0.00096     0.39677
 =======================================================================
   * Total *    0.00000     11.99489    33.87907    0.12603    46.00000

 Normal termination of Gaussian 16 at Wed Dec  9 18:28:54 2020.
