 Gaussian 16, Revision A.03,

 -----------------------------------------------------------
 # opt freq B3LYP/6-31G(d) empiricaldispersion=gd3bj scf=xqc
 -----------------------------------------------------------

 -------------------------------
 CID_130512871_JID_3698_neutraal
 -------------------------------
 Symbolic Z-matrix:
 Charge =  0 Multiplicity = 1

 SCF Done:  E(RB3LYP) =  -575.410128260     A.U. after   14 cycles
 SCF Done:  E(RB3LYP) =  -575.417786228     A.U. after   12 cycles
 SCF Done:  E(RB3LYP) =  -575.418550566     A.U. after   11 cycles
 SCF Done:  E(RB3LYP) =  -575.418749797     A.U. after   11 cycles
 SCF Done:  E(RB3LYP) =  -575.418796177     A.U. after   10 cycles
 SCF Done:  E(RB3LYP) =  -575.418803046     A.U. after    9 cycles
 SCF Done:  E(RB3LYP) =  -575.418804627     A.U. after    8 cycles
 SCF Done:  E(RB3LYP) =  -575.418805110     A.U. after    7 cycles
 SCF Done:  E(RB3LYP) =  -575.418805221     A.U. after    7 cycles
 Optimization completed.
    -- Stationary point found.
 Normal termination of Gaussian 16 at Mon Dec 14 13:06:46 2020.

 --------------------------------------------------------------------
 #N Geom=AllCheck Guess=TCheck SCRF=Check GenChk RB3LYP/6-31G(d) Freq
 --------------------------------------------------------------------

 Structure from the checkpoint file:  "JID_3698.chk"
 -------------------------------
 CID_130512871_JID_3698_neutraal
 -------------------------------
 Charge =  0 Multiplicity = 1

 SCF Done:  E(RB3LYP) =  -575.418805221     A.U. after    1 cycles

  Exact polarizability: 156.715  -1.488 130.946   1.765  10.553  80.792
 Approx polarizability: 221.895  -9.946 205.342   0.203  25.969 119.130

                      1                      2                      3
                      A                      A                      A
 Frequencies --     46.9271                69.9840                94.3709
 Red. masses --      3.6934                 2.8146                 2.7111
 Frc consts  --      0.0048                 0.0081                 0.0142
 IR Inten    --      0.6307                 2.8112                 0.6748

                      4                      5                      6
                      A                      A                      A
 Frequencies --     97.4526               164.5803               187.1595
 Red. masses --      2.7055                 2.8411                 1.5114
 Frc consts  --      0.0151                 0.0453                 0.0312
 IR Inten    --      0.4078                 0.0247                 0.1922

                      7                      8                      9
                      A                      A                      A
 Frequencies --    200.6740               210.0512               244.0752
 Red. masses --      1.1354                 1.1217                 2.8647
 Frc consts  --      0.0269                 0.0292                 0.1005
 IR Inten    --      0.3713                 2.8510                 1.8832

                     10                     11                     12
                      A                      A                      A
 Frequencies --    258.5112               290.2799               314.8073
 Red. masses --      1.7051                 2.1641                 2.0713
 Frc consts  --      0.0671                 0.1074                 0.1209
 IR Inten    --      0.7306                 7.4826                15.6263

                     13                     14                     15
                      A                      A                      A
 Frequencies --    325.6920               342.9021               372.1630
 Red. masses --      3.3660                 3.0920                 1.5986
 Frc consts  --      0.2104                 0.2142                 0.1305
 IR Inten    --      0.2784                11.1582                11.9018

                     16                     17                     18
                      A                      A                      A
 Frequencies --    399.7419               491.7941               503.3605
 Red. masses --      3.5339                 3.6197                 4.2052
 Frc consts  --      0.3327                 0.5158                 0.6278
 IR Inten    --      9.7420                 3.7570                 2.3929

                     19                     20                     21
                      A                      A                      A
 Frequencies --    519.5630               550.4935               589.6122
 Red. masses --      3.3744                 4.0136                 4.8630
 Frc consts  --      0.5367                 0.7166                 0.9961
 IR Inten    --      9.6904                 7.2475                 8.6276

                     22                     23                     24
                      A                      A                      A
 Frequencies --    625.7481               678.1645               728.5892
 Red. masses --      2.4687                 2.0161                 3.6601
 Frc consts  --      0.5695                 0.5463                 1.1447
 IR Inten    --     81.1854               201.5479                18.7971

                     25                     26                     27
                      A                      A                      A
 Frequencies --    732.4794               798.6275               800.4128
 Red. masses --      2.1243                 1.9354                 1.5984
 Frc consts  --      0.6715                 0.7273                 0.6033
 IR Inten    --      5.6965                57.7151                 1.0813

                     28                     29                     30
                      A                      A                      A
 Frequencies --    819.0950               867.3842               874.9220
 Red. masses --      2.5031                 3.0764                 1.4135
 Frc consts  --      0.9895                 1.3637                 0.6375
 IR Inten    --      5.5431                11.3847                 1.0360

                     31                     32                     33
                      A                      A                      A
 Frequencies --    951.9117               956.5293               965.6772
 Red. masses --      2.0639                 1.3061                 2.0475
 Frc consts  --      1.1019                 0.7041                 1.1249
 IR Inten    --      3.3928                 1.7239                 1.3560

                     34                     35                     36
                      A                      A                      A
 Frequencies --   1068.3884              1076.5730              1085.6166
 Red. masses --      1.9307                 1.5728                 2.9363
 Frc consts  --      1.2984                 1.0740                 2.0389
 IR Inten    --     33.5207                12.3037                49.0857

                     37                     38                     39
                      A                      A                      A
 Frequencies --   1097.6854              1101.9938              1145.4870
 Red. masses --      3.4830                 2.2001                 2.3528
 Frc consts  --      2.4726                 1.5741                 1.8190
 IR Inten    --     38.1789                27.7381                 6.2925

                     40                     41                     42
                      A                      A                      A
 Frequencies --   1155.7952              1187.6552              1192.8403
 Red. masses --      1.4811                 1.3169                 1.2964
 Frc consts  --      1.1657                 1.0944                 1.0868
 IR Inten    --     29.8656                 4.0998                 1.9863

                     43                     44                     45
                      A                      A                      A
 Frequencies --   1209.9960              1227.2553              1238.4077
 Red. masses --      1.5047                 2.7363                 1.7909
 Frc consts  --      1.2980                 2.4282                 1.6183
 IR Inten    --      4.8078                 1.1801                 2.5315

                     46                     47                     48
                      A                      A                      A
 Frequencies --   1286.6609              1331.8288              1350.2605
 Red. masses --      2.1286                 1.5702                 1.8251
 Frc consts  --      2.0762                 1.6410                 1.9605
 IR Inten    --      9.1873                17.7397                 9.0938

                     49                     50                     51
                      A                      A                      A
 Frequencies --   1371.4380              1404.4142              1432.7897
 Red. masses --      5.6975                 1.3149                 1.2689
 Frc consts  --      6.3137                 1.5280                 1.5348
 IR Inten    --      6.3991                18.7592                 2.3038

                     52                     53                     54
                      A                      A                      A
 Frequencies --   1437.4340              1480.9080              1502.9403
 Red. masses --      1.3294                 1.1502                 1.4521
 Frc consts  --      1.6184                 1.4862                 1.9326
 IR Inten    --     24.1415                 4.2797                30.1850

                     55                     56                     57
                      A                      A                      A
 Frequencies --   1505.8915              1510.9100              1517.6292
 Red. masses --      1.1747                 1.1286                 1.0613
 Frc consts  --      1.5695                 1.5180                 1.4401
 IR Inten    --      2.5568                 9.1635                 3.5294

                     58                     59                     60
                      A                      A                      A
 Frequencies --   1523.1327              1533.1338              1536.3437
 Red. masses --      2.1651                 1.3594                 1.1609
 Frc consts  --      2.9593                 1.8826                 1.6144
 IR Inten    --     23.0299                14.4787                19.0346

                     61                     62                     63
                      A                      A                      A
 Frequencies --   1538.0206              1542.9992              1649.5126
 Red. masses --      1.0877                 1.0553                 5.9747
 Frc consts  --      1.5160                 1.4803                 9.5781
 IR Inten    --      1.6251                 6.1305                58.5392

                     64                     65                     66
                      A                      A                      A
 Frequencies --   1656.3411              1697.1798              3007.6558
 Red. masses --      4.6166                 1.2143                 1.0713
 Frc consts  --      7.4624                 2.0608                 5.7098
 IR Inten    --     21.2527                96.7162                42.8213

                     67                     68                     69
                      A                      A                      A
 Frequencies --   3013.4052              3031.1810              3058.9396
 Red. masses --      1.0527                 1.0311                 1.0362
 Frc consts  --      5.6321                 5.5819                 5.7129
 IR Inten    --     39.6431                49.9321                24.9358

                     70                     71                     72
                      A                      A                      A
 Frequencies --   3078.9938              3095.2359              3108.5070
 Red. masses --      1.0865                 1.1061                 1.0908
 Frc consts  --      6.0686                 6.2438                 6.2103
 IR Inten    --     21.2018                44.7543                10.9262

                     73                     74                     75
                      A                      A                      A
 Frequencies --   3124.7425              3138.5757              3146.5750
 Red. masses --      1.1028                 1.1032                 1.0978
 Frc consts  --      6.3442                 6.4029                 6.4039
 IR Inten    --     33.6150                28.5143                 9.2153

                     76                     77                     78
                      A                      A                      A
 Frequencies --   3147.5556              3171.6904              3194.2597
 Red. masses --      1.1006                 1.0872                 1.0933
 Frc consts  --      6.4242                 6.4441                 6.5724
 IR Inten    --     19.0535                14.7778                30.2621

                     79                     80                     81
                      A                      A                      A
 Frequencies --   3245.1638              3546.3099              3642.8582
 Red. masses --      1.0915                 1.0481                 1.0974
 Frc consts  --      6.7722                 7.7659                 8.5805
 IR Inten    --      2.5725                 6.5687                 6.6873

 - Thermochemistry -
 -------------------
 Temperature   298.150 Kelvin.  Pressure   1.00000 Atm.
 Atom     1 has atomic number  6 and mass  12.00000

 Molecular mass:   180.12626 amu.
 Principal axes and moments of inertia in atomic units:
                           1         2         3
     Eigenvalues --  1400.144093268.960803972.11666
           X            0.99998   0.00582   0.00223
           Y           -0.00579   0.99992  -0.01093
           Z           -0.00229   0.01092   0.99994
 This molecule is an asymmetric top.
 Rotational symmetry number  1.
 Warning -- assumption of classical behavior for rotation
           may cause significant error
 Rotational temperatures (Kelvin)      0.06186     0.02650     0.02181
 Rotational constants (GHZ):           1.28897     0.55208     0.45435
 Zero-point vibrational energy     660475.3 (Joules/Mol)
                                  157.85739 (Kcal/Mol)
 Warning -- explicit consideration of  21 degrees of freedom as
           vibrations may cause significant error
 Vibrational temperatures:     67.52   100.69   135.78   140.21   236.79
          (Kelvin)            269.28   288.73   302.22   351.17   371.94
                              417.65   452.94   468.60   493.36   535.46
                              575.14   707.58   724.22   747.54   792.04
                              848.32   900.31   975.73  1048.28  1053.87
                             1149.05  1151.62  1178.50  1247.97  1258.82
                             1369.59  1376.23  1389.39  1537.17  1548.95
                             1561.96  1579.32  1585.52  1648.10  1662.93
                             1708.77  1716.23  1740.91  1765.75  1781.79
                             1851.22  1916.20  1942.72  1973.19  2020.64
                             2061.46  2068.15  2130.70  2162.40  2166.64
                             2173.86  2183.53  2191.45  2205.84  2210.46
                             2212.87  2220.03  2373.28  2383.11  2441.86
                             4327.35  4335.62  4361.19  4401.13  4429.99
                             4453.35  4472.45  4495.81  4515.71  4527.22
                             4528.63  4563.36  4595.83  4669.07  5102.35
                             5241.26

 Zero-point correction=                           0.251562 (Hartree/Particle)
 Thermal correction to Energy=                    0.265360
 Thermal correction to Enthalpy=                  0.266305
 Thermal correction to Gibbs Free Energy=         0.211667
 Sum of electronic and zero-point Energies=           -575.167243
 Sum of electronic and thermal Energies=              -575.153445
 Sum of electronic and thermal Enthalpies=            -575.152501
 Sum of electronic and thermal Free Energies=         -575.207138

                     E (Thermal)             CV                S
                      KCal/Mol        Cal/Mol-Kelvin    Cal/Mol-Kelvin
 Total                  166.516             52.456            114.995
 Electronic               0.000              0.000              0.000
 Translational            0.889              2.981             41.472
 Rotational               0.889              2.981             31.275
 Vibrational            164.739             46.494             42.248
 Vibration     1          0.595              1.979              4.943
 Vibration     2          0.598              1.968              4.154
 Vibration     3          0.603              1.953              3.567
 Vibration     4          0.603              1.951              3.505
 Vibration     5          0.623              1.886              2.496
 Vibration     6          0.632              1.857              2.256
 Vibration     7          0.638              1.839              2.127
 Vibration     8          0.642              1.825              2.043
 Vibration     9          0.659              1.773              1.773
 Vibration    10          0.667              1.748              1.672
 Vibration    11          0.686              1.692              1.472
 Vibration    12          0.702              1.645              1.337
 Vibration    13          0.710              1.624              1.281
 Vibration    14          0.722              1.590              1.199
 Vibration    15          0.744              1.529              1.071
 Vibration    16          0.766              1.471              0.964
 Vibration    17          0.848              1.268              0.679
 Vibration    18          0.859              1.243              0.650
 Vibration    19          0.875              1.207              0.611
 Vibration    20          0.906              1.139              0.543
 Vibration    21          0.947              1.054              0.468

                           ! Non-Optimized Parameters !
 Normal termination of Gaussian 16 at Mon Dec 14 13:14:07 2020.

 ----------------------------------------------------------------------
 # B3LYP/6-311++G(d,p) empiricaldispersion=gd3bj scf=xqc pop=npa geom=c
 heck
 ----------------------------------------------------------------------

 ---------------------------------------
 CID_130512871_JID_3698_Energie_neutraal
 ---------------------------------------
 Structure from the checkpoint file:  "JID_3698.chk"
 Charge =  0 Multiplicity = 1

 SCF Done:  E(RB3LYP) =  -575.583361661     A.U. after   14 cycles
 Normal termination of Gaussian 16 at Mon Dec 14 13:16:45 2020.

 ----------------------------------------------------------------------
 # B3LYP/6-311++G(d,p) empiricaldispersion=gd3bj scf=xqc pop=npa geom=c
 heck
 ----------------------------------------------------------------------

 -------------------------------------
 CID_130512871_JID_3698_Energie_kation
 -------------------------------------
 Structure from the checkpoint file:  "JID_3698.chk"
 Charge =  1 Multiplicity = 2

 SCF Done:  E(UB3LYP) =  -575.311083853     A.U. after   23 cycles
 Normal termination of Gaussian 16 at Mon Dec 14 13:22:22 2020.
 Gaussian 16:  ES64L-G16RevA.03 25-Dec-2016

 ----------------------------------------------------------------------
 # B3LYP/6-311++G(d,p) empiricaldispersion=gd3bj scf=xqc pop=npa geom=c
 heck
 ----------------------------------------------------------------------

 ------------------------------------
 CID_130512871_JID_3698_Energie_anion
 ------------------------------------
 Structure from the checkpoint file:  "JID_3698.chk"
 Charge = -1 Multiplicity = 2

                         Standard orientation:
 ---------------------------------------------------------------------
 Center     Atomic      Atomic             Coordinates (Angstroms)
 Number     Number       Type             X           Y           Z
 ---------------------------------------------------------------------
      1          6           0        3.205361    1.462947   -0.785953
      2          6           0        1.851647    0.836765   -1.093138
      3          7           0        1.329657    0.090778    0.060840
      4          6           0       -0.042096   -0.315552   -0.094651
      5          6           0       -0.376544   -1.602909   -0.527082
      6          6           0       -1.718947   -1.948285   -0.658350
      7          6           0       -2.719843   -1.021011   -0.388326
      8          6           0       -2.385120    0.268544    0.048573
      9          6           0       -1.032939    0.629078    0.224303
     10          6           0       -0.683996    1.987452    0.776003
     11          7           0       -3.394595    1.182166    0.388051
     12          8           0        2.178124   -1.064397    0.181397
     13          6           0        2.356722   -1.346639    1.561020
     14          1           0        3.128962    2.144440    0.068135
     15          1           0        3.570720    2.027336   -1.650934
     16          1           0        3.937782    0.687941   -0.545346
     17          1           0        1.111086    1.608609   -1.322652
     18          1           0        1.914193    0.171081   -1.968500
     19          1           0        0.413690   -2.309103   -0.746010
     20          1           0       -1.988646   -2.946239   -0.993444
     21          1           0       -3.766922   -1.290428   -0.506381
     22          1           0        0.340408    1.988804    1.154755
     23          1           0       -0.757395    2.784698    0.020389
     24          1           0       -1.361282    2.254926    1.595768
     25          1           0       -4.304256    0.938657    0.014983
     26          1           0       -3.173208    2.149685    0.187646
     27          1           0        1.404432   -1.608480    2.040437
     28          1           0        3.031069   -2.207020    1.599495
     29          1           0        2.803464   -0.492677    2.083858
 ---------------------------------------------------------------------

 SCF Done:  E(UB3LYP) =  -575.568695892     A.U. after   33 cycles
 SCF Done:  E(UB3LYP) =  -575.568695891     a.u. after    1 cycles

 The electronic state is 2-A.
 Alpha  occ. eigenvalues --  -19.05866 -14.26558 -14.20625 -10.12043 -10.10646
 Alpha  occ. eigenvalues --  -10.10244 -10.10165 -10.07219 -10.07093 -10.06417
 Alpha  occ. eigenvalues --  -10.06112 -10.05929 -10.05720  -0.98253  -0.81403
 Alpha  occ. eigenvalues --   -0.78883  -0.72726  -0.66949  -0.65214  -0.61458
 Alpha  occ. eigenvalues --   -0.58476  -0.57186  -0.52168  -0.48810  -0.48293
 Alpha  occ. eigenvalues --   -0.42975  -0.41506  -0.39301  -0.38476  -0.36746
 Alpha  occ. eigenvalues --   -0.36278  -0.34280  -0.33295  -0.32772  -0.31963
 Alpha  occ. eigenvalues --   -0.31091  -0.29782  -0.29533  -0.28287  -0.26853
 Alpha  occ. eigenvalues --   -0.26478  -0.25648  -0.24667  -0.24485  -0.21112
 Alpha  occ. eigenvalues --   -0.19363  -0.16208  -0.12077  -0.10402   0.04560
 Alpha virt. eigenvalues --    0.06310   0.07029   0.07743   0.08656   0.08935
 Alpha virt. eigenvalues --    0.09336   0.10102   0.10361   0.10702   0.11060
 Alpha virt. eigenvalues --    0.11276   0.11565   0.12557   0.13330   0.14088

  Beta  occ. eigenvalues --  -19.05861 -14.26553 -14.20559 -10.12028 -10.10642
  Beta  occ. eigenvalues --  -10.10232 -10.10161 -10.07216 -10.07090 -10.06392
  Beta  occ. eigenvalues --  -10.06096 -10.05928 -10.05681  -0.98246  -0.81337
  Beta  occ. eigenvalues --   -0.78858  -0.72694  -0.66924  -0.65176  -0.61421
  Beta  occ. eigenvalues --   -0.58431  -0.57142  -0.52118  -0.48761  -0.48258
  Beta  occ. eigenvalues --   -0.42930  -0.41472  -0.39271  -0.38448  -0.36708
  Beta  occ. eigenvalues --   -0.36233  -0.34255  -0.33260  -0.32734  -0.31926
  Beta  occ. eigenvalues --   -0.31060  -0.29746  -0.29499  -0.28260  -0.26822
  Beta  occ. eigenvalues --   -0.26441  -0.25623  -0.24644  -0.24456  -0.21074
  Beta  occ. eigenvalues --   -0.19345  -0.16183  -0.12057  -0.10363
  Beta virt. eigenvalues --    0.06515   0.07494   0.07610   0.08170   0.09083
  Beta virt. eigenvalues --    0.09453   0.09519   0.10306   0.10406   0.10967
  Beta virt. eigenvalues --    0.11382   0.11810   0.11944   0.12712   0.13573

 Mulliken charges and spin densities:
               1          2
     1  C    0.687634  -1.173645
     2  C   -0.597783   0.425300
     3  N    0.196060  -0.016119
     4  C   -0.591122   0.483702
     5  C   -0.539792   0.222038
     6  C    0.611058  -0.859391
     7  C   -0.500271   0.306577
     8  C    0.182962  -0.330787
     9  C   -1.528712   1.676881
    10  C    2.961403  -3.729637
    11  N   -0.287141  -0.026508
    12  O   -0.008306   0.016119
    13  C    0.226026  -0.437316
    14  H   -0.139038   0.282776
    15  H   -0.217343   0.345312
    16  H   -0.000125   0.152037
    17  H    0.104852   0.048579
    18  H   -0.002206   0.152484
    19  H    0.121238   0.033249
    20  H    0.071703   0.074589
    21  H   -0.571679   0.713084
    22  H    0.318928  -0.145169
    23  H   -0.627652   0.829250
    24  H   -0.035112   0.190099
    25  H   -0.447667   0.704534
    26  H   -0.337543   0.595428
    27  H    0.057485   0.080667
    28  H   -0.022848   0.166832
    29  H   -0.085008   0.219035
 Sum of Mulliken charges =  -1.00000   1.00000

 Dipole moment (field-independent basis, Debye):
    X=              5.7826    Y=             -5.7402    Z=              0.5052  Tot=              8.1636
 Quadrupole moment (field-independent basis, Debye-Ang):
   XX=           -161.0768   YY=           -125.6488   ZZ=           -107.3989
   XY=              8.7510   XZ=              0.4117   YZ=              1.4872

 Summary of Natural Population Analysis:

                                       Natural Population
                Natural  -----------------------------------------------
    Atom  No    Charge         Core      Valence    Rydberg      Total
 -----------------------------------------------------------------------
      C    1   -0.29041      0.99966     2.28529    0.00547     3.29041
      C    2   -0.08662      0.99960     2.07576    0.01126     3.08662
      N    3   -0.11586      0.99965     2.60145    0.01476     3.61586
      C    4    0.07969      0.99941     1.90832    0.01259     2.92031
      C    5   -0.13724      0.99950     2.12942    0.00832     3.13724
      C    6   -0.09365      0.99957     2.08511    0.00896     3.09365
      C    7   -0.12871      0.99952     2.11876    0.01042     3.12871
      C    8    0.09179      0.99945     1.89625    0.01252     2.90821
      C    9   -0.04411      0.99943     2.03375    0.01093     3.04411
      C   10   -0.30392      0.99964     2.29739    0.00689     3.30392
      N   11   -0.39624      0.99972     2.88578    0.01074     3.89624
      O   12   -0.23068      0.99990     3.22073    0.01005     4.23068
      C   13   -0.09599      0.99962     2.08781    0.00856     3.09599
      H   14    0.10013      0.00000     0.39845    0.00142     0.39987
      H   15    0.09898      0.00000     0.40012    0.00090     0.40102
      H   16    0.10099      0.00000     0.39748    0.00153     0.39901
      H   17    0.10203      0.00000     0.39649    0.00148     0.39797
      H   18    0.08699      0.00000     0.41143    0.00158     0.41301
      H   19    0.10810      0.00000     0.39022    0.00167     0.39190
      H   20    0.09649      0.00000     0.40272    0.00079     0.40351
      H   21    0.10003      0.00000     0.39889    0.00108     0.39997
      H   22    0.11119      0.00000     0.38713    0.00168     0.38881
      H   23    0.10540      0.00000     0.39251    0.00209     0.39460
      H   24    0.10706      0.00000     0.39159    0.00135     0.39294
      H   25    0.18836      0.00000     0.30450    0.00713     0.31164
      H   26    0.19132      0.00000     0.30193    0.00675     0.30868
      H   27    0.08448      0.00000     0.41413    0.00140     0.41552
      H   28    0.08632      0.00000     0.41256    0.00112     0.41368
      H   29    0.08407      0.00000     0.41399    0.00193     0.41593
 =======================================================================
   * Total *   -0.00000     12.99466    35.83996    0.16537    49.00000

 Normal termination of Gaussian 16 at Mon Dec 14 13:30:35 2020.
