 Gaussian 16, Revision A.03,

 -----------------------------------------------------------
 # opt freq B3LYP/6-31G(d) empiricaldispersion=gd3bj scf=xqc
 -----------------------------------------------------------

 ------------------------------
 CID_13029107_JID_2451_neutraal
 ------------------------------
 Symbolic Z-matrix:
 Charge =  0 Multiplicity = 1

 SCF Done:  E(RB3LYP) =  -504.077408867     A.U. after   15 cycles
 SCF Done:  E(RB3LYP) =  -504.080227303     A.U. after   13 cycles
 SCF Done:  E(RB3LYP) =  -504.080038701     A.U. after   12 cycles
 SCF Done:  E(RB3LYP) =  -504.081298356     A.U. after   12 cycles
 SCF Done:  E(RB3LYP) =  -504.081608770     A.U. after   13 cycles
 SCF Done:  E(RB3LYP) =  -504.081736079     A.U. after   13 cycles
 SCF Done:  E(RB3LYP) =  -504.081750187     A.U. after    9 cycles
 SCF Done:  E(RB3LYP) =  -504.081752097     A.U. after    9 cycles
 SCF Done:  E(RB3LYP) =  -504.081752251     A.U. after    7 cycles
 Optimization completed.
    -- Stationary point found.
 Normal termination of Gaussian 16 at Wed Dec  9 17:21:58 2020.

 --------------------------------------------------------------------
 #N Geom=AllCheck Guess=TCheck SCRF=Check GenChk RB3LYP/6-31G(d) Freq
 --------------------------------------------------------------------

 Structure from the checkpoint file:  "JID_2451.chk"
 ------------------------------
 CID_13029107_JID_2451_neutraal
 ------------------------------
 Charge =  0 Multiplicity = 1

 SCF Done:  E(RB3LYP) =  -504.081752251     A.U. after    1 cycles

  Exact polarizability: 136.443  -4.295 113.686   4.603  -3.894  85.072
 Approx polarizability: 181.835  -6.695 168.267  11.072  -9.893 135.329

                      1                      2                      3
                      A                      A                      A
 Frequencies --     56.6800               121.1307               155.8513
 Red. masses --      3.8696                 2.7292                 3.1434
 Frc consts  --      0.0073                 0.0236                 0.0450
 IR Inten    --      2.6197                 0.3099                 0.5411

                      4                      5                      6
                      A                      A                      A
 Frequencies --    193.2867               241.8618               277.8834
 Red. masses --      2.6433                 2.6309                 2.2833
 Frc consts  --      0.0582                 0.0907                 0.1039
 IR Inten    --      0.2893                 0.9164                 0.1604

                      7                      8                      9
                      A                      A                      A
 Frequencies --    297.6444               302.0863               359.3654
 Red. masses --      2.3149                 3.3223                 2.9030
 Frc consts  --      0.1208                 0.1786                 0.2209
 IR Inten    --      0.2542                 2.8463                 0.9819

                     10                     11                     12
                      A                      A                      A
 Frequencies --    370.6446               448.0834               473.5981
 Red. masses --      2.5961                 2.6255                 1.9830
 Frc consts  --      0.2101                 0.3106                 0.2621
 IR Inten    --      0.6564                 0.4525                 2.3111

                     13                     14                     15
                      A                      A                      A
 Frequencies --    520.9771               542.1065               582.9969
 Red. masses --      3.6358                 2.3556                 4.6216
 Frc consts  --      0.5814                 0.4079                 0.9255
 IR Inten    --      5.6480                 0.3204                 2.6503

                     16                     17                     18
                      A                      A                      A
 Frequencies --    603.7016               732.0313               764.8544
 Red. masses --      2.7481                 2.7122                 2.2255
 Frc consts  --      0.5901                 0.8563                 0.7671
 IR Inten    --     11.2252                 8.3946                 0.6192

                     19                     20                     21
                      A                      A                      A
 Frequencies --    819.2702               835.4084               843.3236
 Red. masses --      2.0817                 1.8182                 1.9951
 Frc consts  --      0.8232                 0.7476                 0.8360
 IR Inten    --      2.5028                 6.2182                 1.0871

                     22                     23                     24
                      A                      A                      A
 Frequencies --    853.2160               876.5819               942.4099
 Red. masses --      1.8616                 2.3811                 1.4728
 Frc consts  --      0.7985                 1.0780                 0.7707
 IR Inten    --     12.7854                 0.5442                 4.6537

                     25                     26                     27
                      A                      A                      A
 Frequencies --    955.2220               956.6318               960.9754
 Red. masses --      2.2062                 2.3063                 1.7284
 Frc consts  --      1.1860                 1.2435                 0.9404
 IR Inten    --     11.9830                 6.3887                 5.0203

                     28                     29                     30
                      A                      A                      A
 Frequencies --    989.6171              1017.5323              1049.7243
 Red. masses --      2.5096                 2.3813                 1.8069
 Frc consts  --      1.4480                 1.4526                 1.1731
 IR Inten    --      6.2741                 3.5011                 0.3931

                     31                     32                     33
                      A                      A                      A
 Frequencies --   1069.1825              1098.8694              1106.4127
 Red. masses --      2.1221                 1.6270                 2.1418
 Frc consts  --      1.4293                 1.1575                 1.5448
 IR Inten    --      2.0810                 8.6934                 0.9665

                     34                     35                     36
                      A                      A                      A
 Frequencies --   1116.2636              1125.1248              1160.1163
 Red. masses --      1.8848                 1.7550                 1.2979
 Frc consts  --      1.3837                 1.3090                 1.0292
 IR Inten    --      1.5165                 1.0622                 1.3843

                     37                     38                     39
                      A                      A                      A
 Frequencies --   1201.1070              1206.3786              1219.4469
 Red. masses --      1.2942                 1.5187                 1.5602
 Frc consts  --      1.1001                 1.3023                 1.3669
 IR Inten    --     35.7136                32.2018                11.2423

                     40                     41                     42
                      A                      A                      A
 Frequencies --   1270.2013              1289.2878              1299.2091
 Red. masses --      1.3741                 1.5686                 1.2032
 Frc consts  --      1.3062                 1.5363                 1.1965
 IR Inten    --      8.1285                30.6643                 7.0580

                     43                     44                     45
                      A                      A                      A
 Frequencies --   1313.6920              1341.2007              1348.4267
 Red. masses --      1.3725                 1.3067                 1.2768
 Frc consts  --      1.3955                 1.3849                 1.3679
 IR Inten    --     28.4197                 1.1085                 8.7349

                     46                     47                     48
                      A                      A                      A
 Frequencies --   1368.6126              1380.6741              1392.5959
 Red. masses --      1.4018                 1.4376                 1.4187
 Frc consts  --      1.5470                 1.6146                 1.6210
 IR Inten    --      7.3801                 0.2941                 5.4159

                     49                     50                     51
                      A                      A                      A
 Frequencies --   1394.3975              1400.0622              1404.8796
 Red. masses --      1.6165                 1.4933                 1.5663
 Frc consts  --      1.8518                 1.7246                 1.8213
 IR Inten    --      1.2428                 4.5587                 2.1340

                     52                     53                     54
                      A                      A                      A
 Frequencies --   1412.3490              1427.2829              1494.9501
 Red. masses --      1.4857                 1.5600                 1.0901
 Frc consts  --      1.7461                 1.8724                 1.4353
 IR Inten    --      4.5782                 0.2319                 7.2311

                     55                     56                     57
                      A                      A                      A
 Frequencies --   1504.0070              1513.4019              1517.5855
 Red. masses --      1.0998                 1.0852                 1.0813
 Frc consts  --      1.4658                 1.4645                 1.4673
 IR Inten    --      9.3759                 3.4307                 8.2574

                     58                     59                     60
                      A                      A                      A
 Frequencies --   1522.1514              1527.9618              1530.3647
 Red. masses --      1.0925                 1.0926                 1.0970
 Frc consts  --      1.4914                 1.5029                 1.5137
 IR Inten    --      4.4711                 0.8924                 3.9782

                     61                     62                     63
                      A                      A                      A
 Frequencies --   1687.7181              1777.3311              3004.9694
 Red. masses --      7.5911                10.3792                 1.0706
 Frc consts  --     12.7396                19.3174                 5.6956
 IR Inten    --    120.3637               101.6279                24.5285

                     64                     65                     66
                      A                      A                      A
 Frequencies --   3011.3974              3019.4793              3032.1632
 Red. masses --      1.0797                 1.0663                 1.0637
 Frc consts  --      5.7690                 5.7280                 5.7620
 IR Inten    --      8.5565                26.2762                15.0788

                     67                     68                     69
                      A                      A                      A
 Frequencies --   3035.5073              3038.4574              3041.7108
 Red. masses --      1.0653                 1.0657                 1.0659
 Frc consts  --      5.7836                 5.7969                 5.8106
 IR Inten    --     18.5486                12.4742                46.0401

                     70                     71                     72
                      A                      A                      A
 Frequencies --   3044.6202              3056.9427              3064.8066
 Red. masses --      1.0732                 1.0807                 1.0947
 Frc consts  --      5.8612                 5.9502                 6.0584
 IR Inten    --     11.6745                37.3140                44.2745

                     73                     74                     75
                      A                      A                      A
 Frequencies --   3075.6190              3080.5458              3082.8439
 Red. masses --      1.0994                 1.1004                 1.1010
 Frc consts  --      6.1271                 6.1524                 6.1652
 IR Inten    --     20.5381                65.1240                71.8721

                     76                     77                     78
                      A                      A                      A
 Frequencies --   3092.4403              3122.7842              3186.4457
 Red. masses --      1.1042                 1.0954                 1.0887
 Frc consts  --      6.2216                 6.2938                 6.5127
 IR Inten    --     56.7015                20.3055                 3.3008

 - Thermochemistry -
 -------------------
 Temperature   298.150 Kelvin.  Pressure   1.00000 Atm.
 Atom     1 has atomic number  6 and mass  12.00000

 Molecular mass:   164.12012 amu.
 Principal axes and moments of inertia in atomic units:
                           1         2         3
     Eigenvalues --  1309.935082162.411273129.36193
           X            0.99944  -0.03329   0.00128
           Y            0.03329   0.99944  -0.00235
           Z           -0.00120   0.00239   1.00000
 This molecule is an asymmetric top.
 Rotational symmetry number  1.
 Warning -- assumption of classical behavior for rotation
           may cause significant error
 Rotational temperatures (Kelvin)      0.06612     0.04005     0.02768
 Rotational constants (GHZ):           1.37773     0.83460     0.57671
 Zero-point vibrational energy     661275.8 (Joules/Mol)
                                  158.04870 (Kcal/Mol)
 Warning -- explicit consideration of  16 degrees of freedom as
           vibrations may cause significant error
 Vibrational temperatures:     81.55   174.28   224.24   278.10   347.99
          (Kelvin)            399.81   428.24   434.63   517.05   533.27
                              644.69   681.40   749.57   779.97   838.80
                              868.59  1053.23  1100.45  1178.75  1201.97
                             1213.35  1227.59  1261.21  1355.92  1374.35
                             1376.38  1382.63  1423.84  1464.00  1510.32
                             1538.32  1581.03  1591.88  1606.05  1618.80
                             1669.15  1728.13  1735.71  1754.51  1827.54
                             1855.00  1869.27  1890.11  1929.69  1940.09
                             1969.13  1986.48  2003.63  2006.23  2014.38
                             2021.31  2032.06  2053.54  2150.90  2163.93
                             2177.45  2183.47  2190.04  2198.40  2201.85
                             2428.25  2557.18  4323.48  4332.73  4344.36
                             4362.61  4367.42  4371.66  4376.34  4380.53
                             4398.26  4409.57  4425.13  4432.22  4435.52
                             4449.33  4492.99  4584.58

 Zero-point correction=                           0.251867 (Hartree/Particle)
 Thermal correction to Energy=                    0.262292
 Thermal correction to Enthalpy=                  0.263236
 Thermal correction to Gibbs Free Energy=         0.216125
 Sum of electronic and zero-point Energies=           -503.829886
 Sum of electronic and thermal Energies=              -503.819461
 Sum of electronic and thermal Enthalpies=            -503.818517
 Sum of electronic and thermal Free Energies=         -503.865627

                     E (Thermal)             CV                S
                      KCal/Mol        Cal/Mol-Kelvin    Cal/Mol-Kelvin
 Total                  164.590             42.337             99.153
 Electronic               0.000              0.000              0.000
 Translational            0.889              2.981             41.195
 Rotational               0.889              2.981             30.562
 Vibrational            162.813             36.375             27.397
 Vibration     1          0.596              1.975              4.570
 Vibration     2          0.609              1.932              3.082
 Vibration     3          0.620              1.896              2.600
 Vibration     4          0.635              1.849              2.196
 Vibration     5          0.658              1.776              1.789
 Vibration     6          0.679              1.714              1.547
 Vibration     7          0.691              1.678              1.430
 Vibration     8          0.694              1.670              1.405
 Vibration     9          0.734              1.556              1.125
 Vibration    10          0.743              1.533              1.077
 Vibration    11          0.807              1.365              0.802
 Vibration    12          0.830              1.309              0.728
 Vibration    13          0.876              1.204              0.608
 Vibration    14          0.897              1.157              0.561
 Vibration    15          0.940              1.068              0.480
 Vibration    16          0.962              1.024              0.443

 Optimization completed.
    -- Stationary point found.
 Normal termination of Gaussian 16 at Wed Dec  9 17:29:20 2020.

 ----------------------------------------------------------------------
 # B3LYP/6-311++G(d,p) empiricaldispersion=gd3bj scf=xqc pop=npa geom=c
 heck
 ----------------------------------------------------------------------

 --------------------------------------
 CID_13029107_JID_2451_Energie_neutraal
 --------------------------------------
 Structure from the checkpoint file:  "JID_2451.chk"
 Charge =  0 Multiplicity = 1

 SCF Done:  E(RB3LYP) =  -504.217297170     A.U. after   14 cycles
 Normal termination of Gaussian 16 at Wed Dec  9 17:32:19 2020.

 ----------------------------------------------------------------------
 # B3LYP/6-311++G(d,p) empiricaldispersion=gd3bj scf=xqc pop=npa geom=c
 heck
 ----------------------------------------------------------------------

 ------------------------------------
 CID_13029107_JID_2451_Energie_kation
 ------------------------------------
 Structure from the checkpoint file:  "JID_2451.chk"
 Charge =  1 Multiplicity = 2

 SCF Done:  E(UB3LYP) =  -503.900214835     A.U. after   22 cycles
 Normal termination of Gaussian 16 at Wed Dec  9 17:38:27 2020.
 Gaussian 16:  ES64L-G16RevA.03 25-Dec-2016

 ----------------------------------------------------------------------
 # B3LYP/6-311++G(d,p) empiricaldispersion=gd3bj scf=xqc pop=npa geom=c
 heck
 ----------------------------------------------------------------------

 -----------------------------------
 CID_13029107_JID_2451_Energie_anion
 -----------------------------------
 Structure from the checkpoint file:  "JID_2451.chk"
 Charge = -1 Multiplicity = 2

                         Standard orientation:
 ---------------------------------------------------------------------
 Center     Atomic      Atomic             Coordinates (Angstroms)
 Number     Number       Type             X           Y           Z
 ---------------------------------------------------------------------
      1          6           0        1.774122   -1.873517   -0.291256
      2          6           0        2.576089   -0.587580   -0.521378
      3          6           0        2.326537    0.531668    0.513948
      4          6           0        1.090835    1.366846    0.211941
      5          8           0        1.207709    2.562658   -0.021136
      6          6           0       -0.242685    0.684634    0.167080
      7          6           0       -1.282124    1.398358   -0.301431
      8          6           0       -2.681654    0.881496   -0.450018
      9          6           0       -2.766712   -0.640444   -0.282531
     10          6           0       -1.869745   -1.089451    0.874380
     11          6           0       -0.387146   -0.762018    0.608781
     12          6           0        0.251234   -1.743899   -0.405602
     13          1           0        2.115808   -2.631332   -1.008282
     14          1           0        2.020048   -2.264354    0.707248
     15          1           0        2.380508   -0.198102   -1.529895
     16          1           0        3.643189   -0.838908   -0.494096
     17          1           0        2.247125    0.088378    1.516527
     18          1           0        3.166190    1.231155    0.527334
     19          1           0       -1.087360    2.430129   -0.586142
     20          1           0       -3.316658    1.381673    0.299113
     21          1           0       -3.085794    1.192853   -1.422878
     22          1           0       -3.804794   -0.946308   -0.110241
     23          1           0       -2.443362   -1.130494   -1.209622
     24          1           0       -2.189409   -0.575778    1.791291
     25          1           0       -1.979884   -2.164861    1.057466
     26          1           0        0.146900   -0.892364    1.561226
     27          1           0       -0.186972   -2.738532   -0.248361
     28          1           0       -0.019715   -1.440988   -1.425083
 ---------------------------------------------------------------------

 SCF Done:  E(UB3LYP) =  -504.213277535     A.U. after   33 cycles
 SCF Done:  E(UB3LYP) =  -504.213277535     a.u. after    1 cycles

 The electronic state is 2-A.
 Alpha  occ. eigenvalues --  -18.92441 -10.07005 -10.05248 -10.04878 -10.04772
 Alpha  occ. eigenvalues --  -10.04752 -10.04111 -10.04081 -10.03934 -10.02705
 Alpha  occ. eigenvalues --  -10.01485 -10.00921  -0.86292  -0.71707  -0.67631
 Alpha  occ. eigenvalues --   -0.62873  -0.61647  -0.59528  -0.52685  -0.49707
 Alpha  occ. eigenvalues --   -0.46603  -0.45306  -0.41063  -0.37367  -0.34978
 Alpha  occ. eigenvalues --   -0.33331  -0.32556  -0.31371  -0.30034  -0.29324
 Alpha  occ. eigenvalues --   -0.27615  -0.27139  -0.26585  -0.25633  -0.24703
 Alpha  occ. eigenvalues --   -0.23627  -0.22963  -0.20717  -0.20385  -0.19555
 Alpha  occ. eigenvalues --   -0.19173  -0.18216  -0.17847  -0.10637  -0.08268
 Alpha  occ. eigenvalues --    0.05246
 Alpha virt. eigenvalues --    0.07635   0.08535   0.09270   0.09337   0.10722
 Alpha virt. eigenvalues --    0.10996   0.11438   0.12031   0.12444   0.13576
 Alpha virt. eigenvalues --    0.13747   0.14017   0.14588   0.15027   0.15820

  Beta  occ. eigenvalues --  -18.92104 -10.06718 -10.05245 -10.04874 -10.04785
  Beta  occ. eigenvalues --  -10.04775 -10.04088 -10.04066 -10.03891 -10.02728
  Beta  occ. eigenvalues --  -10.01503 -10.00535  -0.85648  -0.71588  -0.67532
  Beta  occ. eigenvalues --   -0.62737  -0.61346  -0.59341  -0.52582  -0.49488
  Beta  occ. eigenvalues --   -0.46421  -0.45083  -0.40673  -0.37251  -0.34803
  Beta  occ. eigenvalues --   -0.33157  -0.32450  -0.31238  -0.29874  -0.29101
  Beta  occ. eigenvalues --   -0.27377  -0.26963  -0.26329  -0.25512  -0.24531
  Beta  occ. eigenvalues --   -0.23311  -0.22645  -0.20633  -0.19851  -0.19306
  Beta  occ. eigenvalues --   -0.19062  -0.17763  -0.17642  -0.09194  -0.07931
  Beta virt. eigenvalues --    0.07712   0.08553   0.09420   0.09638   0.10743
  Beta virt. eigenvalues --    0.10873   0.11397   0.11908   0.12144   0.12501
  Beta virt. eigenvalues --    0.13672   0.13844   0.14060   0.14707   0.14981

 Mulliken charges and spin densities:
               1          2
     1  C    0.552159  -0.989973
     2  C   -0.029836  -0.194609
     3  C   -0.051956  -0.043218
     4  C   -0.403284  -0.047261
     5  O   -0.377845   0.126714
     6  C   -0.040853  -0.135025
     7  C    0.503879   0.339790
     8  C   -0.907705  -0.012733
     9  C   -0.216816   0.033225
    10  C   -0.131874  -0.405722
    11  C    0.417369   0.290174
    12  C   -0.624759   0.081761
    13  H   -0.380891   0.526615
    14  H   -0.207782   0.343825
    15  H    0.176138  -0.061106
    16  H   -0.368728   0.532809
    17  H   -0.014414   0.119485
    18  H    0.122927   0.051624
    19  H    0.195573  -0.019116
    20  H    0.095860   0.029279
    21  H    0.120328   0.012126
    22  H    0.144004  -0.003378
    23  H    0.112842   0.007975
    24  H    0.128599  -0.015282
    25  H   -0.002020   0.146164
    26  H    0.125824   0.094915
    27  H   -0.077729   0.207372
    28  H    0.140990  -0.016430
 Sum of Mulliken charges =  -1.00000   1.00000

 Dipole moment (field-independent basis, Debye):
    X=             -5.3217    Y=             -1.2885    Z=             -0.3125  Tot=              5.4844
 Quadrupole moment (field-independent basis, Debye-Ang):
   XX=           -110.8694   YY=           -118.3695   ZZ=            -87.7096
   XY=              3.4122   XZ=             -0.6615   YZ=              0.6219

 Summary of Natural Population Analysis:

                                       Natural Population
                Natural  -----------------------------------------------
    Atom  No    Charge         Core      Valence    Rydberg      Total
 -----------------------------------------------------------------------
      C    1   -0.18554      0.99962     2.17655    0.00937     3.18554
      C    2   -0.18500      0.99962     2.17649    0.00889     3.18500
      C    3   -0.23299      0.99960     2.22438    0.00901     3.23299
      C    4    0.30963      0.99960     1.66766    0.02311     2.69037
      O    5   -0.28091      0.99988     3.27498    0.00605     4.28091
      C    6   -0.08373      0.99942     2.07181    0.01251     3.08373
      C    7    0.01201      0.99949     1.98087    0.00763     2.98799
      C    8   -0.20614      0.99963     2.20005    0.00646     3.20614
      C    9   -0.18744      0.99964     2.18148    0.00633     3.18744
      C   10   -0.18356      0.99963     2.17369    0.01025     3.18356
      C   11   -0.12008      0.99957     2.11018    0.01034     3.12008
      C   12   -0.18540      0.99961     2.17600    0.00980     3.18540
      H   13    0.09420      0.00000     0.40478    0.00102     0.40580
      H   14    0.09211      0.00000     0.40581    0.00208     0.40789
      H   15    0.09333      0.00000     0.40559    0.00108     0.40667
      H   16    0.09705      0.00000     0.40135    0.00160     0.40295
      H   17    0.09902      0.00000     0.39957    0.00141     0.40098
      H   18    0.10405      0.00000     0.39480    0.00116     0.39595
      H   19    0.10030      0.00000     0.39842    0.00128     0.39970
      H   20    0.09773      0.00000     0.40095    0.00131     0.40227
      H   21    0.09714      0.00000     0.40169    0.00117     0.40286
      H   22    0.08972      0.00000     0.40922    0.00107     0.41028
      H   23    0.09285      0.00000     0.40589    0.00127     0.40715
      H   24    0.09293      0.00000     0.40607    0.00100     0.40707
      H   25    0.09335      0.00000     0.40557    0.00109     0.40665
      H   26    0.09788      0.00000     0.40043    0.00169     0.40212
      H   27    0.09334      0.00000     0.40541    0.00126     0.40666
      H   28    0.09419      0.00000     0.40464    0.00116     0.40581
 =======================================================================
   * Total *    0.00000     11.99529    32.86431    0.14040    45.00000

 Normal termination of Gaussian 16 at Wed Dec  9 17:48:01 2020.
