 Gaussian 16, Revision A.03,

 -----------------------------------------------------------
 # opt freq B3LYP/6-31G(d) empiricaldispersion=gd3bj scf=xqc
 -----------------------------------------------------------

 -------------------------------
 CID_127002621_JID_4749_neutraal
 -------------------------------
 Symbolic Z-matrix:
 Charge =  0 Multiplicity = 1

 SCF Done:  E(RB3LYP) =  -953.743660786     A.U. after   15 cycles
 SCF Done:  E(RB3LYP) =  -953.755290199     A.U. after   12 cycles
 SCF Done:  E(RB3LYP) =  -953.757676806     A.U. after   12 cycles
 SCF Done:  E(RB3LYP) =  -953.758952798     A.U. after   12 cycles
 SCF Done:  E(RB3LYP) =  -953.759752467     A.U. after   12 cycles
 SCF Done:  E(RB3LYP) =  -953.760455778     A.U. after   12 cycles
 SCF Done:  E(RB3LYP) =  -953.760706896     A.U. after   12 cycles
 SCF Done:  E(RB3LYP) =  -953.760956351     A.U. after   11 cycles
 SCF Done:  E(RB3LYP) =  -953.761234703     A.U. after   11 cycles
 SCF Done:  E(RB3LYP) =  -953.761274427     A.U. after   11 cycles
 SCF Done:  E(RB3LYP) =  -953.761687675     A.U. after    9 cycles
 SCF Done:  E(RB3LYP) =  -953.761690002     A.U. after    9 cycles
 SCF Done:  E(RB3LYP) =  -953.761691279     A.U. after    9 cycles
 SCF Done:  E(RB3LYP) =  -953.761691680     A.U. after    8 cycles
 SCF Done:  E(RB3LYP) =  -953.761691788     A.U. after    7 cycles
 Optimization completed.
    -- Stationary point found.
 Normal termination of Gaussian 16 at Thu Dec 10 10:34:49 2020.

 --------------------------------------------------------------------
 #N Geom=AllCheck Guess=TCheck SCRF=Check GenChk RB3LYP/6-31G(d) Freq
 --------------------------------------------------------------------

 Structure from the checkpoint file:  "JID_4749.chk"
 -------------------------------
 CID_127002621_JID_4749_neutraal
 -------------------------------
 Charge =  0 Multiplicity = 1

 SCF Done:  E(RB3LYP) =  -953.761691788     A.U. after    1 cycles

  Exact polarizability: 191.788  -1.818 117.482   2.103  13.351 114.038
 Approx polarizability: 249.823  -6.668 173.014   1.458  37.861 196.274

                      1                      2                      3
                      A                      A                      A
 Frequencies --     35.2871                38.2771                63.0419
 Red. masses --      4.0350                 6.1260                 2.5597
 Frc consts  --      0.0030                 0.0053                 0.0060
 IR Inten    --      0.2593                 1.1344                 0.1615

                      4                      5                      6
                      A                      A                      A
 Frequencies --     73.0754               114.2962               131.5659
 Red. masses --      2.9639                 2.4349                 3.0492
 Frc consts  --      0.0093                 0.0187                 0.0311
 IR Inten    --      0.6249                 0.2000                 1.1193

                      7                      8                      9
                      A                      A                      A
 Frequencies --    153.7752               171.1112               178.0412
 Red. masses --      3.0848                 2.0930                 1.2246
 Frc consts  --      0.0430                 0.0361                 0.0229
 IR Inten    --      3.0454                12.5572                47.3296

                     10                     11                     12
                      A                      A                      A
 Frequencies --    235.1048               249.6747               265.4913
 Red. masses --      1.6962                 2.6042                 2.4310
 Frc consts  --      0.0552                 0.0956                 0.1010
 IR Inten    --      1.3895                 1.1225                 3.4335

                     13                     14                     15
                      A                      A                      A
 Frequencies --    312.5694               342.2809               364.2625
 Red. masses --      3.5270                 3.3124                 2.0900
 Frc consts  --      0.2030                 0.2286                 0.1634
 IR Inten    --      2.5046                 6.6531                16.6462

                     16                     17                     18
                      A                      A                      A
 Frequencies --    369.9865               430.3108               492.6488
 Red. masses --      3.7345                 2.1667                 2.8195
 Frc consts  --      0.3012                 0.2364                 0.4032
 IR Inten    --      8.5299                49.9707                89.6801

                     19                     20                     21
                      A                      A                      A
 Frequencies --    522.6288               535.2086               564.4247
 Red. masses --      3.7734                 4.2299                 3.6688
 Frc consts  --      0.6073                 0.7139                 0.6886
 IR Inten    --      9.9095                 8.9752                 7.3115

                     22                     23                     24
                      A                      A                      A
 Frequencies --    617.5337               636.8886               666.1422
 Red. masses --      8.1728                 1.9907                 3.8463
 Frc consts  --      1.8363                 0.4757                 1.0056
 IR Inten    --      6.3826                 2.8148                34.9847

                     25                     26                     27
                      A                      A                      A
 Frequencies --    724.8074               756.0791               781.7683
 Red. masses --      5.6402                 1.5029                 1.5540
 Frc consts  --      1.7458                 0.5062                 0.5596
 IR Inten    --     58.9041                29.2786               116.8204

                     28                     29                     30
                      A                      A                      A
 Frequencies --    793.5409               813.1550               825.6009
 Red. masses --      1.2386                 1.6203                 1.4492
 Frc consts  --      0.4596                 0.6312                 0.5820
 IR Inten    --      4.1677                13.1019                72.8313

                     31                     32                     33
                      A                      A                      A
 Frequencies --    861.8766               899.1437               918.2216
 Red. masses --      2.4116                 1.9115                 1.9597
 Frc consts  --      1.0555                 0.9105                 0.9735
 IR Inten    --      6.2977                 8.5456                 4.1452

                     34                     35                     36
                      A                      A                      A
 Frequencies --    945.1147               970.3480               987.4156
 Red. masses --      2.0926                 1.6091                 2.3541
 Frc consts  --      1.1013                 0.8927                 1.3523
 IR Inten    --      1.1352                 0.3592                 2.9710

                     37                     38                     39
                      A                      A                      A
 Frequencies --   1034.0027              1049.0785              1055.0880
 Red. masses --      3.0327                 1.5978                 2.0359
 Frc consts  --      1.9104                 1.0361                 1.3353
 IR Inten    --      4.6985                 0.3299                 1.1346

                     40                     41                     42
                      A                      A                      A
 Frequencies --   1096.2558              1114.5934              1135.6147
 Red. masses --      2.4305                 2.4931                 1.7425
 Frc consts  --      1.7209                 1.8248                 1.3240
 IR Inten    --      1.8066                 8.7611                 9.2677

                     43                     44                     45
                      A                      A                      A
 Frequencies --   1154.2089              1168.8472              1211.0573
 Red. masses --      2.0724                 2.2194                 1.9770
 Frc consts  --      1.6267                 1.7865                 1.7084
 IR Inten    --      9.3923               159.5234                 4.0346

                     46                     47                     48
                      A                      A                      A
 Frequencies --   1219.2323              1253.5851              1266.4494
 Red. masses --      1.3831                 1.4421                 3.8773
 Frc consts  --      1.2114                 1.3353                 3.6640
 IR Inten    --      8.2292                 3.3736                14.4045

                     49                     50                     51
                      A                      A                      A
 Frequencies --   1270.8594              1273.2647              1278.2792
 Red. masses --      1.3369                 2.1850                 1.1917
 Frc consts  --      1.2721                 2.0871                 1.1473
 IR Inten    --      2.0565                80.9011                 1.7064

                     52                     53                     54
                      A                      A                      A
 Frequencies --   1288.9779              1307.1580              1310.1134
 Red. masses --      1.4464                 1.4104                 1.3333
 Frc consts  --      1.4159                 1.4198                 1.3483
 IR Inten    --      5.1474                 2.5925                 4.8285

                     55                     56                     57
                      A                      A                      A
 Frequencies --   1334.7361              1355.6648              1365.3087
 Red. masses --      1.5155                 1.6497                 1.2015
 Frc consts  --      1.5907                 1.7864                 1.3195
 IR Inten    --      2.6077                29.4869                 6.6855

                     58                     59                     60
                      A                      A                      A
 Frequencies --   1408.0258              1418.7783              1442.0965
 Red. masses --      1.4208                 1.5455                 1.2559
 Frc consts  --      1.6596                 1.8330                 1.5389
 IR Inten    --      2.0308                 0.9124                 4.0537

                     61                     62                     63
                      A                      A                      A
 Frequencies --   1506.7738              1514.5494              1516.2248
 Red. masses --      1.0893                 1.0791                 1.0841
 Frc consts  --      1.4571                 1.4583                 1.4684
 IR Inten    --      0.6864                 1.9256                 5.2991

                     64                     65                     66
                      A                      A                      A
 Frequencies --   1527.1678              1532.0796              1536.1638
 Red. masses --      1.3625                 1.1019                 1.0856
 Frc consts  --      1.8722                 1.5239                 1.5094
 IR Inten    --    163.2388                27.4159                 5.6167

                     67                     68                     69
                      A                      A                      A
 Frequencies --   1543.9496              1610.5178              1622.8897
 Red. masses --      1.1240                 7.6820                 4.6569
 Frc consts  --      1.5786                11.7396                 7.2264
 IR Inten    --      9.1521               364.0935                20.3693

                     70                     71                     72
                      A                      A                      A
 Frequencies --   1682.8426              3016.7350              3025.8633
 Red. masses --      1.2104                 1.0827                 1.0696
 Frc consts  --      2.0197                 5.8055                 5.7698
 IR Inten    --     31.3964                10.7573                37.0850

                     73                     74                     75
                      A                      A                      A
 Frequencies --   3052.2766              3067.3413              3069.8589
 Red. masses --      1.0373                 1.0579                 1.0585
 Frc consts  --      5.6936                 5.8642                 5.8770
 IR Inten    --     22.7758                59.0533                56.4134

                     76                     77                     78
                      A                      A                      A
 Frequencies --   3074.6771              3080.4742              3093.7669
 Red. masses --      1.0649                 1.0819                 1.0947
 Frc consts  --      5.9317                 6.0486                 6.1733
 IR Inten    --      9.4887                20.0106                 6.0643

                     79                     80                     81
                      A                      A                      A
 Frequencies --   3110.4271              3112.9549              3120.3708
 Red. masses --      1.1058                 1.1027                 1.1084
 Frc consts  --      6.3033                 6.2957                 6.3587
 IR Inten    --     18.4901                24.2098                26.2674

                     82                     83                     84
                      A                      A                      A
 Frequencies --   3131.7535              3134.1694              3212.5867
 Red. masses --      1.1065                 1.1018                 1.0927
 Frc consts  --      6.3941                 6.3766                 6.6446
 IR Inten    --     44.2826                70.0149                25.8412

                     85                     86                     87
                      A                      A                      A
 Frequencies --   3481.0201              3584.9287              3585.6840
 Red. masses --      1.0509                 1.0894                 1.0784
 Frc consts  --      7.5031                 8.2490                 8.1692
 IR Inten    --      1.7529                18.4539                 6.4774

 - Thermochemistry -
 -------------------
 Temperature   298.150 Kelvin.  Pressure   1.00000 Atm.
 Atom     1 has atomic number  6 and mass  12.00000

 Molecular mass:   211.11432 amu.
 Principal axes and moments of inertia in atomic units:
                           1         2         3
     Eigenvalues --  1414.701976302.216797038.68882
           X            0.99999   0.00392   0.00241
           Y           -0.00388   0.99986  -0.01611
           Z           -0.00247   0.01610   0.99987
 This molecule is an asymmetric top.
 Rotational symmetry number  1.
 Warning -- assumption of classical behavior for rotation
           may cause significant error
 Rotational temperatures (Kelvin)      0.06122     0.01374     0.01231
 Rotational constants (GHZ):           1.27570     0.28637     0.25640
 Zero-point vibrational energy     701011.8 (Joules/Mol)
                                  167.54584 (Kcal/Mol)
 Warning -- explicit consideration of  22 degrees of freedom as
           vibrations may cause significant error
 Vibrational temperatures:     50.77    55.07    90.70   105.14   164.45
          (Kelvin)            189.29   221.25   246.19   256.16   338.26
                              359.23   381.98   449.72   492.47   524.09
                              532.33   619.12   708.81   751.95   770.05
                              812.08   888.49   916.34   958.43  1042.84
                             1087.83  1124.79  1141.73  1169.95  1187.86
                             1240.05  1293.67  1321.12  1359.81  1396.11
                             1420.67  1487.70  1509.39  1518.04  1577.27
                             1603.65  1633.90  1660.65  1681.71  1742.44
                             1754.20  1803.63  1822.14  1828.48  1831.94
                             1839.16  1854.55  1880.71  1884.96  1920.39
                             1950.50  1964.37  2025.84  2041.31  2074.86
                             2167.91  2179.10  2181.51  2197.25  2204.32
                             2210.20  2221.40  2317.18  2334.98  2421.24
                             4340.41  4353.54  4391.55  4413.22  4416.84
                             4423.77  4432.12  4451.24  4475.21  4478.85
                             4489.52  4505.89  4509.37  4622.20  5008.41
                             5157.91  5159.00

 Zero-point correction=                           0.267001 (Hartree/Particle)
 Thermal correction to Energy=                    0.282030
 Thermal correction to Enthalpy=                  0.282975
 Thermal correction to Gibbs Free Energy=         0.223728
 Sum of electronic and zero-point Energies=           -953.494690
 Sum of electronic and thermal Energies=              -953.479661
 Sum of electronic and thermal Enthalpies=            -953.478717
 Sum of electronic and thermal Free Energies=         -953.537964

                     E (Thermal)             CV                S
                      KCal/Mol        Cal/Mol-Kelvin    Cal/Mol-Kelvin
 Total                  176.977             56.031            124.695
 Electronic               0.000              0.000              0.000
 Translational            0.889              2.981             41.945
 Rotational               0.889              2.981             32.506
 Vibrational            175.199             50.069             50.244
 Vibration     1          0.594              1.982              5.508
 Vibration     2          0.594              1.982              5.346
 Vibration     3          0.597              1.972              4.360
 Vibration     4          0.599              1.967              4.069
 Vibration     5          0.607              1.938              3.195
 Vibration     6          0.612              1.922              2.923
 Vibration     7          0.619              1.898              2.625
 Vibration     8          0.626              1.878              2.423
 Vibration     9          0.628              1.869              2.349
 Vibration    10          0.655              1.787              1.840
 Vibration    11          0.662              1.763              1.733
 Vibration    12          0.671              1.736              1.625
 Vibration    13          0.701              1.650              1.349
 Vibration    14          0.721              1.591              1.201
 Vibration    15          0.738              1.546              1.104
 Vibration    16          0.742              1.534              1.080
 Vibration    17          0.792              1.404              0.858
 Vibration    18          0.848              1.266              0.677
 Vibration    19          0.878              1.200              0.604
 Vibration    20          0.890              1.172              0.576
 Vibration    21          0.920              1.108              0.515
 Vibration    22          0.977              0.995              0.420

 Optimization completed.
    -- Stationary point found.
 Normal termination of Gaussian 16 at Thu Dec 10 10:43:21 2020.

 ----------------------------------------------------------------------
 # B3LYP/6-311++G(d,p) empiricaldispersion=gd3bj scf=xqc pop=npa geom=c
 heck
 ----------------------------------------------------------------------

 ---------------------------------------
 CID_127002621_JID_4749_Energie_neutraal
 ---------------------------------------
 Structure from the checkpoint file:  "JID_4749.chk"
 Charge =  0 Multiplicity = 1

 SCF Done:  E(RB3LYP) =  -953.948388740     A.U. after   14 cycles
 Normal termination of Gaussian 16 at Thu Dec 10 10:46:40 2020.

 ----------------------------------------------------------------------
 # B3LYP/6-311++G(d,p) empiricaldispersion=gd3bj scf=xqc pop=npa geom=c
 heck
 ----------------------------------------------------------------------

 -------------------------------------
 CID_127002621_JID_4749_Energie_kation
 -------------------------------------
 Structure from the checkpoint file:  "JID_4749.chk"
 Charge =  1 Multiplicity = 2

 SCF Done:  E(UB3LYP) =  -953.688488051     A.U. after   22 cycles
 Normal termination of Gaussian 16 at Thu Dec 10 10:53:52 2020.
 Gaussian 16:  ES64L-G16RevA.03 25-Dec-2016

 ----------------------------------------------------------------------
 # B3LYP/6-311++G(d,p) empiricaldispersion=gd3bj scf=xqc pop=npa geom=c
 heck
 ----------------------------------------------------------------------

 ------------------------------------
 CID_127002621_JID_4749_Energie_anion
 ------------------------------------
 Structure from the checkpoint file:  "JID_4749.chk"
 Charge = -1 Multiplicity = 2

                         Standard orientation:
 ---------------------------------------------------------------------
 Center     Atomic      Atomic             Coordinates (Angstroms)
 Number     Number       Type             X           Y           Z
 ---------------------------------------------------------------------
      1          6           0       -2.263281    2.755381   -0.189583
      2          6           0       -1.236149    1.763683   -0.742338
      3          6           0       -1.272320    0.371987   -0.087326
      4          6           0       -2.546263   -0.425141   -0.350523
      5          6           0       -2.641903   -1.845055    0.269896
      6          6           0       -4.138565   -1.576432    0.573308
      7          6           0       -3.859566   -0.061512    0.401040
      8          7           0       -0.135839   -0.452677   -0.526301
      9          6           0        1.128410   -0.161008   -0.079581
     10          7           0        1.401914    0.604035    0.936181
     11          6           0        2.769398    0.679848    1.142228
     12          6           0        3.566089   -0.026755    0.295258
     13         16           0        2.545700   -0.901100   -0.863820
     14          7           0        4.954237   -0.238836    0.297379
     15          1           0       -3.290922    2.452502   -0.410986
     16          1           0       -2.110458    3.750191   -0.622281
     17          1           0       -2.168695    2.849581    0.898724
     18          1           0       -1.374507    1.646715   -1.827215
     19          1           0       -0.229806    2.168465   -0.590333
     20          1           0       -1.147049    0.490964    0.994486
     21          1           0       -2.735572   -0.468318   -1.433392
     22          1           0       -2.389814   -2.698538   -0.366330
     23          1           0       -2.041998   -1.907539    1.183903
     24          1           0       -4.529622   -1.912804    1.538152
     25          1           0       -4.790210   -1.960484   -0.218621
     26          1           0       -3.644781    0.424049    1.359091
     27          1           0       -4.604675    0.536412   -0.131897
     28          1           0       -0.192272   -0.786930   -1.480352
     29          1           0        3.143360    1.295373    1.954001
     30          1           0        5.420260    0.165591   -0.512150
     31          1           0        5.378275    0.134749    1.141233
 ---------------------------------------------------------------------

 SCF Done:  E(UB3LYP) =  -953.935964241     A.U. after   33 cycles
 SCF Done:  E(UB3LYP) =  -953.935964241     a.u. after    1 cycles

 The electronic state is 2-A.
 Alpha  occ. eigenvalues --  -88.77249 -14.23736 -14.21913 -14.19823 -10.16409
 Alpha  occ. eigenvalues --  -10.12696 -10.11322 -10.08871 -10.08332 -10.07895
 Alpha  occ. eigenvalues --  -10.07756 -10.07427 -10.07302 -10.07205  -7.85914
 Alpha  occ. eigenvalues --   -5.82206  -5.81892  -5.81427  -0.88233  -0.82783
 Alpha  occ. eigenvalues --   -0.80151  -0.75672  -0.69236  -0.67443  -0.63010
 Alpha  occ. eigenvalues --   -0.59701  -0.56968  -0.54949  -0.50294  -0.49630
 Alpha  occ. eigenvalues --   -0.46522  -0.45934  -0.42300  -0.39983  -0.39591
 Alpha  occ. eigenvalues --   -0.39403  -0.37164  -0.34961  -0.34738  -0.33527
 Alpha  occ. eigenvalues --   -0.32427  -0.31235  -0.29863  -0.28859  -0.28049
 Alpha  occ. eigenvalues --   -0.27114  -0.26666  -0.25829  -0.24733  -0.22781
 Alpha  occ. eigenvalues --   -0.22695  -0.21934  -0.20823  -0.18499  -0.17432
 Alpha  occ. eigenvalues --   -0.16184  -0.09364   0.04121
 Alpha virt. eigenvalues --    0.05289   0.06608   0.06939   0.07860   0.08269
 Alpha virt. eigenvalues --    0.08859   0.09141   0.09608   0.09675   0.10431
 Alpha virt. eigenvalues --    0.10817   0.11577   0.11931   0.12397   0.12593

  Beta  occ. eigenvalues --  -88.77242 -14.23719 -14.21841 -14.19822 -10.16402
  Beta  occ. eigenvalues --  -10.12684 -10.11320 -10.08860 -10.08314 -10.07884
  Beta  occ. eigenvalues --  -10.07740 -10.07419 -10.07289 -10.07196  -7.85904
  Beta  occ. eigenvalues --   -5.82198  -5.81885  -5.81420  -0.88216  -0.82735
  Beta  occ. eigenvalues --   -0.80076  -0.75644  -0.69216  -0.67403  -0.62982
  Beta  occ. eigenvalues --   -0.59666  -0.56938  -0.54912  -0.50251  -0.49585
  Beta  occ. eigenvalues --   -0.46462  -0.45889  -0.42260  -0.39933  -0.39524
  Beta  occ. eigenvalues --   -0.39344  -0.37137  -0.34933  -0.34719  -0.33495
  Beta  occ. eigenvalues --   -0.32390  -0.31207  -0.29845  -0.28837  -0.28018
  Beta  occ. eigenvalues --   -0.27088  -0.26635  -0.25809  -0.24704  -0.22746
  Beta  occ. eigenvalues --   -0.22657  -0.21904  -0.20797  -0.18482  -0.17423
  Beta  occ. eigenvalues --   -0.16147  -0.09325
  Beta virt. eigenvalues --    0.06193   0.06967   0.07027   0.07157   0.08212
  Beta virt. eigenvalues --    0.08696   0.09049   0.09431   0.09754   0.09994
  Beta virt. eigenvalues --    0.10754   0.11119   0.11785   0.12332   0.12451

 Mulliken charges and spin densities:
               1          2
     1  C   -0.277659  -0.390682
     2  C    0.491152  -0.406027
     3  C   -0.330524  -0.280382
     4  C   -0.369828   0.696803
     5  C   -0.090098  -0.275479
     6  C    0.551956  -1.017854
     7  C    0.111151  -0.530932
     8  N    0.350891   0.012120
     9  C    0.120134  -0.294660
    10  N   -0.034605   0.008376
    11  C    0.831407  -0.738650
    12  C   -0.120549  -0.560373
    13  S   -0.651023   0.537425
    14  N   -0.425823   0.129805
    15  H   -0.016317   0.172545
    16  H   -0.062361   0.211044
    17  H    0.158630  -0.025189
    18  H   -0.085429   0.214751
    19  H    0.162478   0.014854
    20  H    0.137925   0.067502
    21  H   -0.489427   0.698285
    22  H   -0.008367   0.156998
    23  H    0.130255   0.021828
    24  H    0.074306   0.055571
    25  H   -0.259780   0.407377
    26  H    0.104752   0.044649
    27  H   -0.065741   0.192106
    28  H    0.015680   0.256025
    29  H   -0.236789   0.401875
    30  H   -0.387766   0.642158
    31  H   -0.328630   0.578129
 Sum of Mulliken charges =  -1.00000   1.00000

 Dipole moment (field-independent basis, Debye):
    X=             -5.0387    Y=              0.1509    Z=              1.6230  Tot=              5.2958
 Quadrupole moment (field-independent basis, Debye-Ang):
   XX=           -213.9687   YY=           -126.3845   ZZ=           -124.4052
   XY=             -7.4883   XZ=            -15.2564   YZ=             -1.9759

 Summary of Natural Population Analysis:

                                       Natural Population
                Natural  -----------------------------------------------
    Atom  No    Charge         Core      Valence    Rydberg      Total
 -----------------------------------------------------------------------
      C    1   -0.28628      0.99966     2.28182    0.00479     3.28628
      C    2   -0.19534      0.99961     2.18767    0.00807     3.19534
      C    3   -0.00877      0.99955     1.99596    0.01326     3.00877
      C    4   -0.11118      0.99958     2.09879    0.01281     3.11118
      C    5   -0.18391      0.99963     2.17533    0.00894     3.18391
      C    6   -0.19127      0.99965     2.18342    0.00820     3.19127
      C    7   -0.18540      0.99963     2.17733    0.00844     3.18540
      N    8   -0.32073      0.99965     2.80874    0.01234     3.82073
      C    9    0.14586      0.99960     1.83468    0.01987     2.85414
      N   10   -0.27958      0.99963     2.76973    0.01022     3.77958
      C   11   -0.04657      0.99944     2.03138    0.01575     3.04657
      C   12   -0.01172      0.99947     1.99691    0.01534     3.01172
      S   13    0.14595      4.99943     2.83670    0.01792     7.85405
      N   14   -0.41028      0.99971     2.89788    0.01268     3.91028
      H   15    0.09799      0.00000     0.40095    0.00107     0.40201
      H   16    0.09818      0.00000     0.40112    0.00070     0.40182
      H   17    0.09588      0.00000     0.40333    0.00079     0.40412
      H   18    0.09415      0.00000     0.40455    0.00129     0.40585
      H   19    0.10543      0.00000     0.39314    0.00143     0.39457
      H   20    0.10271      0.00000     0.39500    0.00230     0.39729
      H   21    0.09918      0.00000     0.39775    0.00308     0.40082
      H   22    0.09897      0.00000     0.40009    0.00093     0.40103
      H   23    0.09728      0.00000     0.40164    0.00108     0.40272
      H   24    0.09249      0.00000     0.40676    0.00075     0.40751
      H   25    0.09773      0.00000     0.40068    0.00159     0.40227
      H   26    0.09467      0.00000     0.40426    0.00107     0.40533
      H   27    0.09868      0.00000     0.40026    0.00106     0.40132
      H   28    0.19058      0.00000     0.30725    0.00216     0.30942
      H   29    0.09851      0.00000     0.40008    0.00141     0.40149
      H   30    0.18669      0.00000     0.30693    0.00638     0.31331
      H   31    0.19011      0.00000     0.30372    0.00616     0.30989
 =======================================================================
   * Total *    0.00000     17.99424    38.80386    0.20189    57.00000

 Normal termination of Gaussian 16 at Thu Dec 10 11:08:56 2020.
