 Gaussian 16, Revision A.03,

 -----------------------------------------------------------
 # opt freq B3LYP/6-31G(d) empiricaldispersion=gd3bj scf=xqc
 -----------------------------------------------------------

 -------------------------------
 CID_43390425_JID_10042_neutraal
 -------------------------------
 Symbolic Z-matrix:
 Charge =  0 Multiplicity = 1

 SCF Done:  E(RB3LYP) =  -882.988126108     A.U. after   15 cycles
 SCF Done:  E(RB3LYP) =  -882.974416040     A.U. after   14 cycles
 SCF Done:  E(RB3LYP) =  -882.995459762     A.U. after   12 cycles
 SCF Done:  E(RB3LYP) =  -882.996941284     A.U. after   12 cycles
 SCF Done:  E(RB3LYP) =  -882.997020753     A.U. after   12 cycles
 SCF Done:  E(RB3LYP) =  -882.997089003     A.U. after   12 cycles
 SCF Done:  E(RB3LYP) =  -882.998250085     A.U. after   12 cycles
 SCF Done:  E(RB3LYP) =  -882.998638599     A.U. after   12 cycles
 SCF Done:  E(RB3LYP) =  -882.998755555     A.U. after   12 cycles
 SCF Done:  E(RB3LYP) =  -882.998901414     A.U. after   11 cycles
 SCF Done:  E(RB3LYP) =  -882.999016926     A.U. after    7 cycles
 SCF Done:  E(RB3LYP) =  -882.999017096     A.U. after    7 cycles
 SCF Done:  E(RB3LYP) =  -882.999017183     A.U. after    7 cycles
 SCF Done:  E(RB3LYP) =  -882.999017217     A.U. after    7 cycles
 SCF Done:  E(RB3LYP) =  -882.999017249     A.U. after    7 cycles
 Optimization completed.
    -- Stationary point found.
 Normal termination of Gaussian 16 at Sat Dec 12 15:10:10 2020.

 --------------------------------------------------------------------
 #N Geom=AllCheck Guess=TCheck SCRF=Check GenChk RB3LYP/6-31G(d) Freq
 --------------------------------------------------------------------

 Structure from the checkpoint file:  "JID_10042.chk"
 -------------------------------
 CID_43390425_JID_10042_neutraal
 -------------------------------
 Charge =  0 Multiplicity = 1

 SCF Done:  E(RB3LYP) =  -882.999017249     A.U. after    1 cycles

  Exact polarizability: 226.423   3.009 189.344 -30.282  -1.586 128.696
 Approx polarizability: 307.219   6.313 318.179 -62.163  -5.734 209.677

                      1                      2                      3
                      A                      A                      A
 Frequencies --     17.6192                31.5771                55.6665
 Red. masses --      4.4363                 5.0653                 4.7324
 Frc consts  --      0.0008                 0.0030                 0.0086
 IR Inten    --      0.6287                 1.2346                 0.8556

                      4                      5                      6
                      A                      A                      A
 Frequencies --     69.4955                73.1309                80.9860
 Red. masses --      4.9637                 5.3219                 4.5819
 Frc consts  --      0.0141                 0.0168                 0.0177
 IR Inten    --      2.1105                 1.2216                 2.0766

                      7                      8                      9
                      A                      A                      A
 Frequencies --    106.4605               159.7776               169.6576
 Red. masses --      5.4463                 2.9823                 3.7614
 Frc consts  --      0.0364                 0.0449                 0.0638
 IR Inten    --      1.0588                 4.2577                 3.3132

                     10                     11                     12
                      A                      A                      A
 Frequencies --    200.0289               234.9574               245.7347
 Red. masses --      2.9355                 3.8530                 1.7243
 Frc consts  --      0.0692                 0.1253                 0.0613
 IR Inten    --      3.7525                 6.9440                 1.9879

                     13                     14                     15
                      A                      A                      A
 Frequencies --    250.4262               254.2679               279.5687
 Red. masses --      2.3040                 1.6468                 2.9302
 Frc consts  --      0.0851                 0.0627                 0.1349
 IR Inten    --      0.7150                 3.5424                 7.3842

                     16                     17                     18
                      A                      A                      A
 Frequencies --    290.1735               333.2115               343.8684
 Red. masses --      3.4168                 2.1491                 1.9941
 Frc consts  --      0.1695                 0.1406                 0.1389
 IR Inten    --      3.3747                21.3153                 3.1846

                     19                     20                     21
                      A                      A                      A
 Frequencies --    358.9179               364.7155               398.1686
 Red. masses --      1.2843                 1.9761                 2.1897
 Frc consts  --      0.0975                 0.1549                 0.2045
 IR Inten    --      2.5335                30.5328                28.7516

                     22                     23                     24
                      A                      A                      A
 Frequencies --    410.0974               436.1058               445.6258
 Red. masses --      2.3192                 2.9596                 2.3592
 Frc consts  --      0.2298                 0.3316                 0.2760
 IR Inten    --     11.3966                 0.9404                 7.6719

                     25                     26                     27
                      A                      A                      A
 Frequencies --    472.3267               483.9278               536.5502
 Red. masses --      2.9279                 1.3020                 2.1897
 Frc consts  --      0.3848                 0.1796                 0.3714
 IR Inten    --     24.2196               142.7933                24.5902

                     28                     29                     30
                      A                      A                      A
 Frequencies --    540.6845               554.2951               577.8474
 Red. masses --      3.7924                 3.7978                 3.0811
 Frc consts  --      0.6532                 0.6875                 0.6061
 IR Inten    --      7.4681                 6.2749                27.5999

                     31                     32                     33
                      A                      A                      A
 Frequencies --    582.2442               590.8118               634.7153
 Red. masses --      3.9112                 3.2664                 3.6605
 Frc consts  --      0.7812                 0.6718                 0.8688
 IR Inten    --      5.3412                 7.3403                 0.6471

                     34                     35                     36
                      A                      A                      A
 Frequencies --    655.8099               703.0154               751.2791
 Red. masses --      3.3071                 3.4420                 2.2824
 Frc consts  --      0.8380                 1.0023                 0.7590
 IR Inten    --      1.4185                 2.2563                 7.6699

                     37                     38                     39
                      A                      A                      A
 Frequencies --    754.3160               778.9650               787.8714
 Red. masses --      1.6092                 3.9268                 4.1458
 Frc consts  --      0.5395                 1.4039                 1.5162
 IR Inten    --     50.4541                 7.3804                 3.5379

                     40                     41                     42
                      A                      A                      A
 Frequencies --    815.9364               836.7464               845.0145
 Red. masses --      2.0850                 1.5757                 1.5751
 Frc consts  --      0.8179                 0.6500                 0.6627
 IR Inten    --     22.5352                57.9613                21.4377

                     43                     44                     45
                      A                      A                      A
 Frequencies --    857.2390               867.6516               890.5123
 Red. masses --      1.4953                 2.2517                 3.7871
 Frc consts  --      0.6474                 0.9987                 1.7694
 IR Inten    --      6.6108                34.3502                 1.0365

                     46                     47                     48
                      A                      A                      A
 Frequencies --    900.8412               909.9549               920.6239
 Red. masses --      2.6904                 1.9653                 1.3496
 Frc consts  --      1.2864                 0.9588                 0.6739
 IR Inten    --      5.3375                 6.2004                 1.5211

                     49                     50                     51
                      A                      A                      A
 Frequencies --    962.9830               965.0615               972.4704
 Red. masses --      1.2230                 1.5131                 1.5802
 Frc consts  --      0.6682                 0.8303                 0.8805
 IR Inten    --      0.0118                 0.9476                 7.9325

                     52                     53                     54
                      A                      A                      A
 Frequencies --    991.2470              1033.9475              1038.8176
 Red. masses --      1.7192                 1.9421                 2.1416
 Frc consts  --      0.9953                 1.2233                 1.3616
 IR Inten    --      6.6415                17.8706                 0.3651

                     55                     56                     57
                      A                      A                      A
 Frequencies --   1045.9988              1050.0437              1091.0974
 Red. masses --      2.0940                 1.4578                 3.1164
 Frc consts  --      1.3498                 0.9471                 2.1859
 IR Inten    --      7.3126                 6.8301                16.7973

                     58                     59                     60
                      A                      A                      A
 Frequencies --   1094.6208              1105.8554              1124.0624
 Red. masses --      3.7384                 2.9899                 1.6901
 Frc consts  --      2.6391                 2.1543                 1.2582
 IR Inten    --     46.1388                14.9489                20.9075

                     61                     62                     63
                      A                      A                      A
 Frequencies --   1156.1520              1179.4470              1193.6778
 Red. masses --      1.4660                 1.2254                 1.3948
 Frc consts  --      1.1545                 1.0044                 1.1709
 IR Inten    --      7.4578                 5.2649                 7.2632

                     64                     65                     66
                      A                      A                      A
 Frequencies --   1194.8405              1202.1748              1223.6108
 Red. masses --      1.2959                 1.3573                 1.7204
 Frc consts  --      1.0900                 1.1558                 1.5176
 IR Inten    --      7.6551                 1.0551                 4.1048

                     67                     68                     69
                      A                      A                      A
 Frequencies --   1248.7775              1259.6952              1280.8130
 Red. masses --      2.3648                 2.2239                 2.2064
 Frc consts  --      2.1728                 2.0792                 2.1326
 IR Inten    --     12.6838                13.3938               194.9955

                     70                     71                     72
                      A                      A                      A
 Frequencies --   1287.7333              1310.3128              1324.5110
 Red. masses --      1.6684                 1.4652                 1.7473
 Frc consts  --      1.6301                 1.4821                 1.8060
 IR Inten    --     51.9377                 8.9630                13.9057

                     73                     74                     75
                      A                      A                      A
 Frequencies --   1337.1205              1377.5411              1389.3934
 Red. masses --      2.0841                 1.9961                 1.8952
 Frc consts  --      2.1954                 2.2318                 2.1555
 IR Inten    --     15.0819                21.2380                11.4851

                     76                     77                     78
                      A                      A                      A
 Frequencies --   1393.4844              1408.0748              1408.7191
 Red. masses --      3.0504                 1.6584                 1.2703
 Frc consts  --      3.4899                 1.9373                 1.4853
 IR Inten    --     20.7544                 2.0309                 0.7930

                     79                     80                     81
                      A                      A                      A
 Frequencies --   1421.2416              1429.6157              1436.9095
 Red. masses --      1.4399                 1.2673                 1.5029
 Frc consts  --      1.7136                 1.5261                 1.8282
 IR Inten    --     23.3618                 5.5591                84.8823

                     82                     83                     84
                      A                      A                      A
 Frequencies --   1450.8015              1462.5468              1483.5058
 Red. masses --      1.2395                 2.5285                 1.1264
 Frc consts  --      1.5371                 3.1867                 1.4605
 IR Inten    --     27.2853                25.5001                13.3720

                     85                     86                     87
                      A                      A                      A
 Frequencies --   1494.4736              1500.9028              1508.3916
 Red. masses --      1.2268                 2.5820                 1.0935
 Frc consts  --      1.6144                 3.4270                 1.4659
 IR Inten    --      7.1396                24.7631                 8.9408

                     88                     89                     90
                      A                      A                      A
 Frequencies --   1517.8312              1519.5408              1521.2231
 Red. masses --      1.0887                 1.0990                 1.0508
 Frc consts  --      1.4778                 1.4951                 1.4327
 IR Inten    --      2.8523                 4.3941                 1.8116

                     91                     92                     93
                      A                      A                      A
 Frequencies --   1534.7272              1535.3573              1541.1054
 Red. masses --      1.0652                 1.1182                 2.8850
 Frc consts  --      1.4782                 1.5531                 4.0370
 IR Inten    --      1.1590                 1.9454                 3.6075

                     94                     95                     96
                      A                      A                      A
 Frequencies --   1558.3552              1609.7807              1634.8681
 Red. masses --      1.0624                 5.4587                 5.6959
 Frc consts  --      1.5201                 8.3344                 8.9697
 IR Inten    --      5.3651                 5.8001                 0.5362

                     97                     98                     99
                      A                      A                      A
 Frequencies --   1680.7077              1752.4950              3003.8561
 Red. masses --      6.1281                 6.5926                 1.0692
 Frc consts  --     10.1991                11.9294                 5.6840
 IR Inten    --      3.0216               217.6968                71.1747

                    100                    101                    102
                      A                      A                      A
 Frequencies --   3037.2779              3044.7743              3049.7877
 Red. masses --      1.0670                 1.0735                 1.0372
 Frc consts  --      5.7995                 5.8636                 5.6841
 IR Inten    --     35.3490                14.8301                27.3177

                    103                    104                    105
                      A                      A                      A
 Frequencies --   3065.6126              3066.2926              3092.9083
 Red. masses --      1.0398                 1.0660                 1.0930
 Frc consts  --      5.7575                 5.9055                 6.1601
 IR Inten    --     14.2218                15.4290                32.6806

                    106                    107                    108
                      A                      A                      A
 Frequencies --   3099.2747              3115.0819              3117.9740
 Red. masses --      1.0955                 1.1001                 1.1006
 Frc consts  --      6.1998                 6.2898                 6.3042
 IR Inten    --     17.1058                33.2864                26.6163

                    109                    110                    111
                      A                      A                      A
 Frequencies --   3129.1667              3138.2089              3161.6001
 Red. masses --      1.1002                 1.1022                 1.1022
 Frc consts  --      6.3472                 6.3957                 6.4913
 IR Inten    --     20.6372                25.7352                 5.2380

                    112                    113                    114
                      A                      A                      A
 Frequencies --   3179.0830              3180.3546              3185.6844
 Red. masses --      1.0849                 1.0847                 1.0882
 Frc consts  --      6.4603                 6.4642                 6.5066
 IR Inten    --      2.4892                 3.4269                 5.3291

                    115                    116                    117
                      A                      A                      A
 Frequencies --   3196.3426              3208.2470              3270.7205
 Red. masses --      1.0933                 1.0969                 1.0981
 Frc consts  --      6.5808                 6.6518                 6.9212
 IR Inten    --     39.0811                30.7335                18.6072

                    118                    119                    120
                      A                      A                      A
 Frequencies --   3490.3361              3673.8244              3723.8349
 Red. masses --      1.0731                 1.0799                 1.0665
 Frc consts  --      7.7021                 8.5872                 8.7139
 IR Inten    --      2.3201                50.9315                35.0127

 - Thermochemistry -
 -------------------
 Temperature   298.150 Kelvin.  Pressure   1.00000 Atm.
 Atom     1 has atomic number  6 and mass  12.00000

 Molecular mass:   274.16813 amu.
 Principal axes and moments of inertia in atomic units:
                           1         2         3
     Eigenvalues --  2831.979989291.05615**********
           X            0.99985   0.01724   0.00201
           Y           -0.01726   0.99977   0.01308
           Z           -0.00178  -0.01311   0.99991
 This molecule is an asymmetric top.
 Rotational symmetry number  1.
 Warning -- assumption of classical behavior for rotation
           may cause significant error
 Rotational temperatures (Kelvin)      0.03058     0.00932     0.00831
 Rotational constants (GHZ):           0.63727     0.19425     0.17313
 Zero-point vibrational energy     953042.9 (Joules/Mol)
                                  227.78272 (Kcal/Mol)
 Warning -- explicit consideration of  32 degrees of freedom as
           vibrations may cause significant error
 Vibrational temperatures:     25.35    45.43    80.09    99.99   105.22
          (Kelvin)            116.52   153.17   229.88   244.10   287.80
                              338.05   353.56   360.31   365.83   402.24
                              417.49   479.42   494.75   516.40   524.74
                              572.88   590.04   627.46   641.16   679.57
                              696.26   771.98   777.92   797.51   831.39
                              837.72   850.05   913.21   943.56  1011.48
                             1080.92  1085.29  1120.76  1133.57  1173.95
                             1203.89  1215.79  1233.38  1248.36  1281.25
                             1296.11  1309.22  1324.57  1385.52  1388.51
                             1399.17  1426.18  1487.62  1494.63  1504.96
                             1510.78  1569.85  1574.92  1591.08  1617.28
                             1663.44  1696.96  1717.44  1719.11  1729.66
                             1760.50  1796.71  1812.42  1842.80  1852.76
                             1885.25  1905.68  1923.82  1981.97  1999.03
                             2004.91  2025.91  2026.83  2044.85  2056.90
                             2067.39  2087.38  2104.28  2134.43  2150.21
                             2159.46  2170.24  2183.82  2186.28  2188.70
                             2208.13  2209.04  2217.31  2242.13  2316.12
                             2352.21  2418.16  2521.45  4321.88  4369.97
                             4380.75  4387.96  4410.73  4411.71  4450.01
                             4459.16  4481.91  4486.07  4502.17  4515.18
                             4548.84  4573.99  4575.82  4583.49  4598.82
                             4615.95  4705.84  5021.82  5285.81  5357.77

 Zero-point correction=                           0.362995 (Hartree/Particle)
 Thermal correction to Energy=                    0.382303
 Thermal correction to Enthalpy=                  0.383247
 Thermal correction to Gibbs Free Energy=         0.314624
 Sum of electronic and zero-point Energies=           -882.636022
 Sum of electronic and thermal Energies=              -882.616714
 Sum of electronic and thermal Enthalpies=            -882.615770
 Sum of electronic and thermal Free Energies=         -882.684393

                     E (Thermal)             CV                S
                      KCal/Mol        Cal/Mol-Kelvin    Cal/Mol-Kelvin
 Total                  239.899             75.814            144.428
 Electronic               0.000              0.000              0.000
 Translational            0.889              2.981             42.724
 Rotational               0.889              2.981             33.972
 Vibrational            238.121             69.852             67.732
 Vibration     1          0.593              1.986              6.886
 Vibration     2          0.594              1.983              5.728
 Vibration     3          0.596              1.975              4.605
 Vibration     4          0.598              1.969              4.168
 Vibration     5          0.599              1.967              4.067
 Vibration     6          0.600              1.962              3.867
 Vibration     7          0.605              1.944              3.332
 Vibration     8          0.622              1.892              2.552
 Vibration     9          0.625              1.880              2.439
 Vibration    10          0.638              1.840              2.133
 Vibration    11          0.655              1.787              1.841
 Vibration    12          0.660              1.770              1.761
 Vibration    13          0.663              1.762              1.728
 Vibration    14          0.665              1.756              1.701
 Vibration    15          0.680              1.711              1.536
 Vibration    16          0.686              1.692              1.473
 Vibration    17          0.715              1.609              1.244
 Vibration    18          0.723              1.588              1.194
 Vibration    19          0.734              1.557              1.127
 Vibration    20          0.738              1.545              1.102
 Vibration    21          0.764              1.474              0.969
 Vibration    22          0.774              1.448              0.926
 Vibration    23          0.797              1.392              0.839
 Vibration    24          0.805              1.371              0.809
 Vibration    25          0.829              1.311              0.731
 Vibration    26          0.840              1.286              0.700
 Vibration    27          0.892              1.169              0.573
 Vibration    28          0.896              1.160              0.564
 Vibration    29          0.910              1.130              0.535
 Vibration    30          0.934              1.079              0.489
 Vibration    31          0.939              1.070              0.481
 Vibration    32          0.948              1.051              0.466

                           ! Non-Optimized Parameters !
 Normal termination of Gaussian 16 at Sat Dec 12 15:33:30 2020.

 ----------------------------------------------------------------------
 # B3LYP/6-311++G(d,p) empiricaldispersion=gd3bj scf=xqc pop=npa geom=c
 heck
 ----------------------------------------------------------------------

 ---------------------------------------
 CID_43390425_JID_10042_Energie_neutraal
 ---------------------------------------
 Structure from the checkpoint file:  "JID_10042.chk"
 Charge =  0 Multiplicity = 1

 SCF Done:  E(RB3LYP) =  -883.252698499     A.U. after   16 cycles
 Normal termination of Gaussian 16 at Sat Dec 12 15:43:41 2020.

 ----------------------------------------------------------------------
 # B3LYP/6-311++G(d,p) empiricaldispersion=gd3bj scf=xqc pop=npa geom=c
 heck
 ----------------------------------------------------------------------

 -------------------------------------
 CID_43390425_JID_10042_Energie_kation
 -------------------------------------
 Structure from the checkpoint file:  "JID_10042.chk"
 Charge =  1 Multiplicity = 2

 SCF Done:  E(UB3LYP) =  -882.985960081     A.U. after   24 cycles
 Normal termination of Gaussian 16 at Sat Dec 12 16:05:04 2020.
 Gaussian 16:  ES64L-G16RevA.03 25-Dec-2016

 ----------------------------------------------------------------------
 # B3LYP/6-311++G(d,p) empiricaldispersion=gd3bj scf=xqc pop=npa geom=c
 heck
 ----------------------------------------------------------------------

 ------------------------------------
 CID_43390425_JID_10042_Energie_anion
 ------------------------------------
 Structure from the checkpoint file:  "JID_10042.chk"
 Charge = -1 Multiplicity = 2

                         Standard orientation:
 ---------------------------------------------------------------------
 Center     Atomic      Atomic             Coordinates (Angstroms)
 Number     Number       Type             X           Y           Z
 ---------------------------------------------------------------------
      1          6           0       -1.918494   -1.548913   -1.168112
      2          6           0       -3.180488   -0.927347   -0.566030
      3          6           0       -4.415465   -1.444311   -1.315530
      4          6           0       -3.300524   -1.312765    0.930980
      5          8           0       -2.298039   -0.720963    1.741351
      6          7           0       -3.223841    0.553391   -0.651371
      7          6           0       -2.247060    1.476483   -0.271950
      8          8           0       -2.557140    2.379317    0.502567
      9          6           0       -0.901779    1.467492   -0.979831
     10          6           0        0.134790    2.365120   -0.303795
     11          6           0        0.655963    1.786939    1.027882
     12          6           0        1.366153    0.474861    0.872040
     13          6           0        0.917507   -0.761167    1.269083
     14          7           0        1.840355   -1.733153    0.912539
     15          6           0        2.913265   -1.136731    0.282058
     16          6           0        4.083279   -1.689658   -0.245750
     17          6           0        4.997566   -0.820979   -0.831433
     18          6           0        4.754273    0.566207   -0.887766
     19          6           0        3.589997    1.111423   -0.361046
     20          6           0        2.644298    0.260811    0.235066
     21          1           0       -1.041551   -1.383385   -0.539762
     22          1           0       -1.724213   -1.157075   -2.170475
     23          1           0       -2.068240   -2.630823   -1.251386
     24          1           0       -4.510027   -2.529554   -1.200098
     25          1           0       -5.334947   -0.983600   -0.934486
     26          1           0       -4.336707   -1.213450   -2.381900
     27          1           0       -4.304715   -1.040357    1.292444
     28          1           0       -3.189960   -2.396067    1.046624
     29          1           0       -2.479081    0.231872    1.798993
     30          1           0       -4.098180    0.883128   -0.243938
     31          1           0       -0.509066    0.457413   -1.084428
     32          1           0       -1.106588    1.819481   -2.000652
     33          1           0        0.976439    2.497707   -0.993383
     34          1           0       -0.304359    3.350179   -0.121220
     35          1           0        1.332140    2.522852    1.483570
     36          1           0       -0.185677    1.675060    1.720213
     37          1           0       -0.007832   -1.023767    1.763215
     38          1           0        1.762217   -2.714007    1.128214
     39          1           0        4.273274   -2.758805   -0.199994
     40          1           0        5.916888   -1.219248   -1.251300
     41          1           0        5.491704    1.216216   -1.350112
     42          1           0        3.414620    2.182946   -0.404848
 ---------------------------------------------------------------------

 SCF Done:  E(UB3LYP) =  -883.245151107     A.U. after   33 cycles
 SCF Done:  E(UB3LYP) =  -883.245151107     a.u. after    1 cycles

 The electronic state is 2-A.
 Alpha  occ. eigenvalues --  -19.04253 -19.01174 -14.26084 -14.23957 -10.19090
 Alpha  occ. eigenvalues --  -10.13633 -10.12903 -10.11666 -10.10579 -10.08807
 Alpha  occ. eigenvalues --  -10.08731 -10.08724 -10.08583 -10.08401 -10.08334
 Alpha  occ. eigenvalues --  -10.08198 -10.08090 -10.07484 -10.07429 -10.06924
 Alpha  occ. eigenvalues --   -0.96121  -0.94345  -0.88667  -0.83204  -0.75615
 Alpha  occ. eigenvalues --   -0.72672  -0.70381  -0.68780  -0.65170  -0.64081
 Alpha  occ. eigenvalues --   -0.61803  -0.60247  -0.59389  -0.54262  -0.53424
 Alpha  occ. eigenvalues --   -0.50740  -0.50572  -0.47280  -0.45770  -0.44194
 Alpha  occ. eigenvalues --   -0.43522  -0.40446  -0.40002  -0.39692  -0.38749
 Alpha  occ. eigenvalues --   -0.38511  -0.36805  -0.36515  -0.34907  -0.34710
 Alpha  occ. eigenvalues --   -0.34221  -0.33352  -0.32265  -0.31750  -0.31453
 Alpha  occ. eigenvalues --   -0.30738  -0.30090  -0.29917  -0.28815  -0.27955
 Alpha  occ. eigenvalues --   -0.27760  -0.26812  -0.26530  -0.25904  -0.25170
 Alpha  occ. eigenvalues --   -0.25022  -0.24289  -0.24178  -0.20586  -0.18951
 Alpha  occ. eigenvalues --   -0.18527  -0.16149  -0.14020  -0.11808   0.03796
 Alpha virt. eigenvalues --    0.05638   0.06156   0.06281   0.06987   0.07466
 Alpha virt. eigenvalues --    0.07761   0.08562   0.08846   0.09084   0.09573
 Alpha virt. eigenvalues --    0.09694   0.10047   0.10313   0.10959   0.11243

  Beta  occ. eigenvalues --  -19.04246 -19.01164 -14.26042 -14.23942 -10.19080
  Beta  occ. eigenvalues --  -10.13633 -10.12872 -10.11667 -10.10575 -10.08792
  Beta  occ. eigenvalues --  -10.08723 -10.08721 -10.08581 -10.08400 -10.08332
  Beta  occ. eigenvalues --  -10.08194 -10.08088 -10.07484 -10.07384 -10.06889
  Beta  occ. eigenvalues --   -0.96101  -0.94330  -0.88626  -0.83178  -0.75599
  Beta  occ. eigenvalues --   -0.72661  -0.70349  -0.68758  -0.65149  -0.64066
  Beta  occ. eigenvalues --   -0.61768  -0.60188  -0.59319  -0.54225  -0.53402
  Beta  occ. eigenvalues --   -0.50713  -0.50529  -0.47256  -0.45730  -0.44151
  Beta  occ. eigenvalues --   -0.43495  -0.40418  -0.39974  -0.39658  -0.38735
  Beta  occ. eigenvalues --   -0.38472  -0.36766  -0.36492  -0.34881  -0.34686
  Beta  occ. eigenvalues --   -0.34202  -0.33328  -0.32242  -0.31728  -0.31416
  Beta  occ. eigenvalues --   -0.30701  -0.30072  -0.29871  -0.28785  -0.27939
  Beta  occ. eigenvalues --   -0.27739  -0.26787  -0.26507  -0.25883  -0.25152
  Beta  occ. eigenvalues --   -0.25004  -0.24264  -0.24167  -0.20565  -0.18941
  Beta  occ. eigenvalues --   -0.18512  -0.16120  -0.14010  -0.11796
  Beta virt. eigenvalues --    0.05926   0.06161   0.06443   0.06859   0.07470
  Beta virt. eigenvalues --    0.07761   0.08353   0.08877   0.09121   0.09570
  Beta virt. eigenvalues --    0.09688   0.09736   0.10301   0.10732   0.11229

 Mulliken charges and spin densities:
               1          2
     1  C    1.089231  -1.577986
     2  C   -2.149091   2.046172
     3  C    0.861118  -1.206888
     4  C    0.596722  -1.196851
     5  O   -0.157694   0.012256
     6  N   -0.028804   0.027769
     7  C   -0.258967  -0.417912
     8  O   -0.252500   0.009738
     9  C    0.184418   0.216774
    10  C   -0.496265  -0.150693
    11  C   -0.082794  -0.045933
    12  C    1.138515  -0.625765
    13  C   -0.760814   0.246747
    14  N   -0.074504   0.070354
    15  C    0.010644  -0.570134
    16  C   -1.367424   0.837464
    17  C    0.112124  -0.301572
    18  C   -0.482906   0.014985
    19  C   -0.309769   0.161068
    20  C    1.750369  -0.983166
    21  H    0.251431  -0.026604
    22  H   -0.017836   0.191764
    23  H   -0.376280   0.553003
    24  H   -0.107217   0.264192
    25  H   -0.427513   0.557750
    26  H   -0.146091   0.325442
    27  H   -0.135145   0.311155
    28  H   -0.257711   0.462341
    29  H    0.171464   0.057792
    30  H    0.145609   0.146708
    31  H    0.337984  -0.203111
    32  H   -0.026860   0.233323
    33  H    0.139658   0.005027
    34  H    0.167655   0.014382
    35  H    0.173437  -0.000666
    36  H    0.181099  -0.019028
    37  H    0.149671   0.124549
    38  H   -0.361051   0.688889
    39  H   -0.495355   0.652538
    40  H    0.128441   0.015769
    41  H    0.096086   0.043083
    42  H    0.086910   0.035276
 Sum of Mulliken charges =  -1.00000   1.00000

 Dipole moment (field-independent basis, Debye):
    X=              4.4025    Y=              6.5584    Z=             -0.2156  Tot=              7.9020
 Quadrupole moment (field-independent basis, Debye-Ang):
   XX=           -209.1625   YY=           -181.5649   ZZ=           -154.6106
   XY=              3.7148   XZ=             -5.5181   YZ=             -0.4353

 Summary of Natural Population Analysis:

                                       Natural Population
                Natural  -----------------------------------------------
    Atom  No    Charge         Core      Valence    Rydberg      Total
 -----------------------------------------------------------------------
      C    1   -0.29508      0.99960     2.28778    0.00770     3.29508
      C    2    0.04653      0.99956     1.93973    0.01418     2.95347
      C    3   -0.28619      0.99961     2.27913    0.00745     3.28619
      C    4   -0.01063      0.99951     1.99729    0.01383     3.01063
      O    5   -0.37208      0.99990     3.36553    0.00666     4.37208
      N    6   -0.33660      0.99966     2.82454    0.01240     3.83660
      C    7    0.34830      0.99968     1.62727    0.02476     2.65170
      O    8   -0.32593      0.99988     3.32040    0.00565     4.32593
      C    9   -0.24106      0.99956     2.23318    0.00833     3.24106
      C   10   -0.18507      0.99963     2.17772    0.00772     3.18507
      C   11   -0.19615      0.99960     2.18887    0.00769     3.19615
      C   12   -0.06081      0.99948     2.05048    0.01085     3.06081
      C   13    0.00148      0.99949     1.98695    0.01208     2.99852
      N   14   -0.26928      0.99966     2.75956    0.01007     3.76928
      C   15    0.07918      0.99948     1.90900    0.01234     2.92082
      C   16   -0.11352      0.99952     2.10429    0.00970     3.11352
      C   17   -0.11078      0.99958     2.10188    0.00932     3.11078
      C   18   -0.11934      0.99958     2.10981    0.00994     3.11934
      C   19   -0.09834      0.99953     2.09109    0.00772     3.09834
      C   20   -0.04526      0.99946     2.03621    0.00959     3.04526
      H   21    0.10809      0.00000     0.38982    0.00209     0.39191
      H   22    0.10370      0.00000     0.39521    0.00109     0.39630
      H   23    0.10894      0.00000     0.38955    0.00150     0.39106
      H   24    0.10544      0.00000     0.39305    0.00152     0.39456
      H   25    0.10099      0.00000     0.39734    0.00167     0.39901
      H   26    0.10619      0.00000     0.39255    0.00126     0.39381
      H   27    0.08011      0.00000     0.41837    0.00152     0.41989
      H   28    0.09463      0.00000     0.40373    0.00165     0.40537
      H   29    0.23485      0.00000     0.26201    0.00314     0.26515
      H   30    0.18782      0.00000     0.30955    0.00263     0.31218
      H   31    0.11712      0.00000     0.38114    0.00174     0.38288
      H   32    0.11385      0.00000     0.38525    0.00090     0.38615
      H   33    0.09653      0.00000     0.40228    0.00119     0.40347
      H   34    0.10456      0.00000     0.39437    0.00107     0.39544
      H   35    0.09968      0.00000     0.39933    0.00099     0.40032
      H   36    0.10491      0.00000     0.39392    0.00117     0.39509
      H   37    0.11760      0.00000     0.38099    0.00141     0.38240
      H   38    0.20694      0.00000     0.28400    0.00906     0.29306
      H   39    0.10541      0.00000     0.39342    0.00118     0.39459
      H   40    0.09799      0.00000     0.40129    0.00072     0.40201
      H   41    0.09697      0.00000     0.40228    0.00076     0.40303
      H   42    0.09834      0.00000     0.40031    0.00135     0.40166
 =======================================================================
   * Total *    0.00000     19.99196    53.76045    0.24759    74.00000

 Normal termination of Gaussian 16 at Sat Dec 12 16:33:45 2020.
