 Gaussian 16, Revision A.03,

 -----------------------------------------------------------
 # opt freq B3LYP/6-31G(d) empiricaldispersion=gd3bj scf=xqc
 -----------------------------------------------------------

 ------------------------------
 CID_149381283_JID_562_neutraal
 ------------------------------
 Symbolic Z-matrix:
 Charge =  0 Multiplicity = 1

 SCF Done:  E(RB3LYP) =  -823.835171960     A.U. after   13 cycles
 SCF Done:  E(RB3LYP) =  -823.838225026     A.U. after   11 cycles
 SCF Done:  E(RB3LYP) =  -823.838231448     A.U. after   11 cycles
 SCF Done:  E(RB3LYP) =  -823.838574056     A.U. after   10 cycles
 SCF Done:  E(RB3LYP) =  -823.838581169     A.U. after   10 cycles
 SCF Done:  E(RB3LYP) =  -823.838617148     A.U. after    9 cycles
 SCF Done:  E(RB3LYP) =  -823.838624656     A.U. after    8 cycles
 SCF Done:  E(RB3LYP) =  -823.838626724     A.U. after    8 cycles
 SCF Done:  E(RB3LYP) =  -823.838627120     A.U. after    7 cycles
 Optimization completed.
    -- Stationary point found.
 Normal termination of Gaussian 16 at Mon Dec 14 13:09:09 2020.

 --------------------------------------------------------------------
 #N Geom=AllCheck Guess=TCheck SCRF=Check GenChk RB3LYP/6-31G(d) Freq
 --------------------------------------------------------------------

 Structure from the checkpoint file:  "JID_562.chk"
 ------------------------------
 CID_149381283_JID_562_neutraal
 ------------------------------
 Charge =  0 Multiplicity = 1

 SCF Done:  E(RB3LYP) =  -823.838627120     A.U. after    1 cycles

  Exact polarizability:  99.604   6.583  99.253  -3.800   0.366  82.112
 Approx polarizability: 140.202   8.112 139.324  -8.239   4.729 126.939

                      1                      2                      3
                      A                      A                      A
 Frequencies --     94.2105               108.0372               161.8018
 Red. masses --      3.4183                 5.4300                 1.8260
 Frc consts  --      0.0179                 0.0373                 0.0282
 IR Inten    --      1.1695                 4.1557                 2.9266

                      4                      5                      6
                      A                      A                      A
 Frequencies --    209.3638               223.9632               244.6487
 Red. masses --      2.7188                 2.5499                 1.2211
 Frc consts  --      0.0702                 0.0754                 0.0431
 IR Inten    --      0.6860                 4.2978                 0.3765

                      7                      8                      9
                      A                      A                      A
 Frequencies --    277.7996               296.5239               304.7364
 Red. masses --      1.5826                 2.6237                 2.2230
 Frc consts  --      0.0720                 0.1359                 0.1216
 IR Inten    --      1.7658                 1.6806                 3.7796

                     10                     11                     12
                      A                      A                      A
 Frequencies --    351.5653               384.3523               413.9330
 Red. masses --      4.7698                 2.3782                 2.3561
 Frc consts  --      0.3473                 0.2070                 0.2379
 IR Inten    --      0.8688                 0.5588                 0.7080

                     13                     14                     15
                      A                      A                      A
 Frequencies --    432.8154               468.4891               502.0988
 Red. masses --      2.9050                 1.1173                 3.0864
 Frc consts  --      0.3206                 0.1445                 0.4584
 IR Inten    --      6.1072                70.8192                 5.3281

                     16                     17                     18
                      A                      A                      A
 Frequencies --    556.7260               637.9240               716.4657
 Red. masses --      3.5702                 4.1100                 4.1046
 Frc consts  --      0.6520                 0.9854                 1.2414
 IR Inten    --     13.0227                 1.3077                10.8101

                     19                     20                     21
                      A                      A                      A
 Frequencies --    729.5855               757.8136               825.9933
 Red. masses --      4.0792                 4.0529                 2.2499
 Frc consts  --      1.2793                 1.3713                 0.9044
 IR Inten    --     11.8208                 7.0180                 3.7726

                     22                     23                     24
                      A                      A                      A
 Frequencies --    860.4825               901.3211               941.0847
 Red. masses --      1.9376                 2.1237                 1.9909
 Frc consts  --      0.8453                 1.0165                 1.0388
 IR Inten    --      0.4894                 5.1644                16.2655

                     25                     26                     27
                      A                      A                      A
 Frequencies --    947.8283               991.6134              1022.4854
 Red. masses --      1.4872                 1.8731                 1.5957
 Frc consts  --      0.7872                 1.0852                 0.9829
 IR Inten    --      0.3913                19.6926                 7.3009

                     28                     29                     30
                      A                      A                      A
 Frequencies --   1040.6273              1072.1314              1099.6212
 Red. masses --      1.4358                 2.2367                 3.8317
 Frc consts  --      0.9161                 1.5148                 2.7298
 IR Inten    --      1.3625                39.3288                88.5552

                     31                     32                     33
                      A                      A                      A
 Frequencies --   1136.2440              1152.1301              1211.5588
 Red. masses --      2.5499                 1.5333                 2.3316
 Frc consts  --      1.9396                 1.1992                 2.0165
 IR Inten    --     52.8105                12.1395                35.0480

                     34                     35                     36
                      A                      A                      A
 Frequencies --   1235.5285              1246.0892              1261.0616
 Red. masses --      1.4017                 1.2995                 1.6923
 Frc consts  --      1.2607                 1.1889                 1.5856
 IR Inten    --     34.6474                16.1140                 6.1618

                     37                     38                     39
                      A                      A                      A
 Frequencies --   1286.5149              1301.1539              1329.0166
 Red. masses --      1.5215                 1.6576                 1.4285
 Frc consts  --      1.4837                 1.6534                 1.4866
 IR Inten    --      5.5245                15.5647                 6.6239

                     40                     41                     42
                      A                      A                      A
 Frequencies --   1349.1248              1382.2934              1417.4827
 Red. masses --      1.3556                 1.3094                 1.1974
 Frc consts  --      1.4538                 1.4741                 1.4175
 IR Inten    --      2.0622                53.5060                 3.7541

                     43                     44                     45
                      A                      A                      A
 Frequencies --   1427.2355              1445.7656              1467.6819
 Red. masses --      1.2713                 1.2368                 1.3133
 Frc consts  --      1.5257                 1.5231                 1.6668
 IR Inten    --     13.1464                18.9658                42.3419

                     46                     47                     48
                      A                      A                      A
 Frequencies --   1480.9674              1491.1706              1511.1647
 Red. masses --      1.0929                 1.0922                 1.0534
 Frc consts  --      1.4123                 1.4309                 1.4173
 IR Inten    --      2.3813                19.4111                 2.9780

                     49                     50                     51
                      A                      A                      A
 Frequencies --   1513.7048              1528.2216              1536.3902
 Red. masses --      1.0522                 1.0542                 1.0598
 Frc consts  --      1.4204                 1.4505                 1.4739
 IR Inten    --      2.6051                 1.2793                 7.8866

                     52                     53                     54
                      A                      A                      A
 Frequencies --   1561.6287              3039.7118              3049.2871
 Red. masses --      1.0792                 1.0641                 1.0777
 Frc consts  --      1.5506                 5.7928                 5.9038
 IR Inten    --      2.8488                19.8891                22.1844

                     55                     56                     57
                      A                      A                      A
 Frequencies --   3058.7031              3062.6660              3068.2055
 Red. masses --      1.0377                 1.0550                 1.0629
 Frc consts  --      5.7201                 5.8306                 5.8956
 IR Inten    --      6.2465                35.7958                 5.4884

                     58                     59                     60
                      A                      A                      A
 Frequencies --   3069.0858              3081.8163              3124.4667
 Red. masses --      1.0471                 1.1020                 1.1043
 Frc consts  --      5.8113                 6.1665                 6.3519
 IR Inten    --     20.0774                84.9923                 9.6998

                     61                     62                     63
                      A                      A                      A
 Frequencies --   3127.6664              3129.0698              3136.2882
 Red. masses --      1.1026                 1.1013                 1.1015
 Frc consts  --      6.3551                 6.3531                 6.3839
 IR Inten    --      1.7656                 1.9014                35.8659

                     64                     65                     66
                      A                      A                      A
 Frequencies --   3140.1297              3163.3840              3693.7630
 Red. masses --      1.1031                 1.1005                 1.0649
 Frc consts  --      6.4088                 6.4883                 8.5603
 IR Inten    --     30.6226                13.9068                41.0717

 - Thermochemistry -
 -------------------
 Temperature   298.150 Kelvin.  Pressure   1.00000 Atm.
 Atom     1 has atomic number  6 and mass  12.00000

 Molecular mass:   162.07145 amu.
 Principal axes and moments of inertia in atomic units:
                           1         2         3
     Eigenvalues --  1375.131401564.713242285.37809
           X            0.94932   0.31427   0.00496
           Y           -0.31398   0.94893  -0.03087
           Z           -0.01441   0.02775   0.99951
 This molecule is an asymmetric top.
 Rotational symmetry number  1.
 Warning -- assumption of classical behavior for rotation
           may cause significant error
 Rotational temperatures (Kelvin)      0.06299     0.05535     0.03790
 Rotational constants (GHZ):           1.31241     1.15340     0.78969
 Zero-point vibrational energy     549040.6 (Joules/Mol)
                                  131.22385 (Kcal/Mol)
 Warning -- explicit consideration of  16 degrees of freedom as
           vibrations may cause significant error
 Vibrational temperatures:    135.55   155.44   232.80   301.23   322.23
          (Kelvin)            351.99   399.69   426.63   438.45   505.82
                              553.00   595.56   622.72   674.05   722.41
                              801.00   917.83  1030.83  1049.71  1090.32
                             1188.42  1238.04  1296.80  1354.01  1363.71
                             1426.71  1471.13  1497.23  1542.56  1582.11
                             1634.80  1657.66  1743.16  1777.65  1792.84
                             1814.39  1851.01  1872.07  1912.16  1941.09
                             1988.81  2039.44  2053.47  2080.13  2111.67
                             2130.78  2145.46  2174.23  2177.88  2198.77
                             2210.52  2246.84  4373.47  4387.24  4400.79
                             4406.49  4414.46  4415.73  4434.05  4495.41
                             4500.01  4502.03  4512.42  4517.95  4551.40
                             5314.50

 Zero-point correction=                           0.209119 (Hartree/Particle)
 Thermal correction to Energy=                    0.219888
 Thermal correction to Enthalpy=                  0.220832
 Thermal correction to Gibbs Free Energy=         0.173632
 Sum of electronic and zero-point Energies=           -823.629509
 Sum of electronic and thermal Energies=              -823.618739
 Sum of electronic and thermal Enthalpies=            -823.617795
 Sum of electronic and thermal Free Energies=         -823.664995

                     E (Thermal)             CV                S
                      KCal/Mol        Cal/Mol-Kelvin    Cal/Mol-Kelvin
 Total                  137.982             42.023             99.340
 Electronic               0.000              0.000              0.000
 Translational            0.889              2.981             41.157
 Rotational               0.889              2.981             29.976
 Vibrational            136.204             36.062             28.207
 Vibration     1          0.603              1.953              3.571
 Vibration     2          0.606              1.943              3.304
 Vibration     3          0.622              1.889              2.529
 Vibration     4          0.642              1.826              2.049
 Vibration     5          0.649              1.805              1.927
 Vibration     6          0.660              1.772              1.769
 Vibration     7          0.679              1.715              1.547
 Vibration     8          0.690              1.680              1.436
 Vibration     9          0.696              1.665              1.391
 Vibration    10          0.728              1.572              1.159
 Vibration    11          0.753              1.504              1.022
 Vibration    12          0.778              1.440              0.913
 Vibration    13          0.794              1.399              0.850
 Vibration    14          0.826              1.320              0.742
 Vibration    15          0.857              1.245              0.653
 Vibration    16          0.912              1.125              0.530

                           ! Non-Optimized Parameters !
 Normal termination of Gaussian 16 at Mon Dec 14 13:13:42 2020.

 ----------------------------------------------------------------------
 # B3LYP/6-311++G(d,p) empiricaldispersion=gd3bj scf=xqc pop=npa geom=c
 heck
 ----------------------------------------------------------------------

 --------------------------------------
 CID_149381283_JID_562_Energie_neutraal
 --------------------------------------
 Structure from the checkpoint file:  "JID_562.chk"
 Charge =  0 Multiplicity = 1

 SCF Done:  E(RB3LYP) =  -823.998067723     A.U. after   13 cycles
 Normal termination of Gaussian 16 at Mon Dec 14 13:15:14 2020.

 ----------------------------------------------------------------------
 # B3LYP/6-311++G(d,p) empiricaldispersion=gd3bj scf=xqc pop=npa geom=c
 heck
 ----------------------------------------------------------------------

 ------------------------------------
 CID_149381283_JID_562_Energie_kation
 ------------------------------------
 Structure from the checkpoint file:  "JID_562.chk"
 Charge =  1 Multiplicity = 2

 SCF Done:  E(UB3LYP) =  -823.689245865     A.U. after   20 cycles
 Normal termination of Gaussian 16 at Mon Dec 14 13:18:21 2020.
 Gaussian 16:  ES64L-G16RevA.03 25-Dec-2016

 ----------------------------------------------------------------------
 # B3LYP/6-311++G(d,p) empiricaldispersion=gd3bj scf=xqc pop=npa geom=c
 heck
 ----------------------------------------------------------------------

 -----------------------------------
 CID_149381283_JID_562_Energie_anion
 -----------------------------------
 Structure from the checkpoint file:  "JID_562.chk"
 Charge = -1 Multiplicity = 2

                         Standard orientation:
 ---------------------------------------------------------------------
 Center     Atomic      Atomic             Coordinates (Angstroms)
 Number     Number       Type             X           Y           Z
 ---------------------------------------------------------------------
      1          6           0       -0.537663   -1.318281    1.392248
      2          6           0       -0.918003   -0.886615   -0.030320
      3          6           0       -1.766323    0.394420   -0.020876
      4         16           0       -0.841083    1.872969    0.530898
      5          6           0        0.431580    1.737761   -0.776391
      6          6           0        1.135129    0.383024   -0.786120
      7          8           0        0.240021   -0.736425   -0.890996
      8          6           0        2.136584    0.179747    0.355889
      9          8           0        2.665893   -1.133280    0.311473
     10          6           0       -1.708460   -2.002703   -0.719229
     11          1           0       -1.428186   -1.679808    1.918166
     12          1           0       -0.119342   -0.493319    1.971300
     13          1           0        0.193049   -2.131487    1.362736
     14          1           0       -2.160278    0.584693   -1.025564
     15          1           0       -2.613294    0.274901    0.660645
     16          1           0        1.160987    2.535508   -0.605896
     17          1           0       -0.046560    1.915768   -1.745609
     18          1           0        1.702791    0.312673   -1.722530
     19          1           0        2.969253    0.882017    0.226496
     20          1           0        1.671262    0.395219    1.326751
     21          1           0        1.943560   -1.681806   -0.040916
     22          1           0       -1.114241   -2.921712   -0.742921
     23          1           0       -2.641028   -2.205552   -0.182519
     24          1           0       -1.945029   -1.721062   -1.749535
 ---------------------------------------------------------------------

 SCF Done:  E(UB3LYP) =  -823.982350278     A.U. after   29 cycles

 The electronic state is 2-A.
 Alpha  occ. eigenvalues --  -88.73838 -19.02690 -19.01626 -10.13677 -10.12767
 Alpha  occ. eigenvalues --  -10.11133 -10.09910 -10.09367 -10.05717 -10.05416
 Alpha  occ. eigenvalues --   -7.82476  -5.78848  -5.78532  -5.77835  -0.94295
 Alpha  occ. eigenvalues --   -0.91280  -0.71681  -0.71018  -0.62851  -0.59145
 Alpha  occ. eigenvalues --   -0.58433  -0.53398  -0.51131  -0.43334  -0.40436
 Alpha  occ. eigenvalues --   -0.39695  -0.37754  -0.34940  -0.34762  -0.33794
 Alpha  occ. eigenvalues --   -0.32893  -0.31952  -0.29909  -0.28462  -0.27782
 Alpha  occ. eigenvalues --   -0.26887  -0.25744  -0.24211  -0.23389  -0.23111
 Alpha  occ. eigenvalues --   -0.19232  -0.18275  -0.16917  -0.12361   0.04808
 Alpha virt. eigenvalues --    0.06636   0.08326   0.08700   0.09676   0.09778
 Alpha virt. eigenvalues --    0.10142   0.10966   0.11637   0.12590   0.13099
 Alpha virt. eigenvalues --    0.13449   0.13816   0.14092   0.15007   0.15465

  Beta  occ. eigenvalues --  -88.73834 -19.02680 -19.01617 -10.13677 -10.12752
  Beta  occ. eigenvalues --  -10.11119 -10.09880 -10.09327 -10.05686 -10.05370
  Beta  occ. eigenvalues --   -7.82472  -5.78845  -5.78526  -5.77831  -0.94275
  Beta  occ. eigenvalues --   -0.91262  -0.71650  -0.70976  -0.62805  -0.59076
  Beta  occ. eigenvalues --   -0.58369  -0.53353  -0.51070  -0.43275  -0.40390
  Beta  occ. eigenvalues --   -0.39638  -0.37714  -0.34903  -0.34721  -0.33749
  Beta  occ. eigenvalues --   -0.32835  -0.31913  -0.29867  -0.28418  -0.27732
  Beta  occ. eigenvalues --   -0.26848  -0.25706  -0.24179  -0.23338  -0.23088
  Beta  occ. eigenvalues --   -0.19196  -0.18257  -0.16900  -0.12336
  Beta virt. eigenvalues --    0.07369   0.07867   0.08982   0.09373   0.10181
  Beta virt. eigenvalues --    0.10429   0.10872   0.11288   0.11930   0.12995
  Beta virt. eigenvalues --    0.13558   0.13946   0.14303   0.14461   0.15176

 Mulliken charges and spin densities:
               1          2
     1  C    0.907511  -1.464341
     2  C   -1.620616   1.899113
     3  C    0.518435  -1.317803
     4  S   -0.003488   0.133551
     5  C    0.697948  -1.537952
     6  C   -0.371871   0.903252
     7  O   -0.086348  -0.014134
     8  C    0.456671  -1.089475
     9  O   -0.263264   0.033597
    10  C    1.125013  -1.476122
    11  H   -0.185305   0.343249
    12  H   -0.016941   0.168090
    13  H    0.059279   0.062642
    14  H   -0.176865   0.395798
    15  H   -0.226862   0.464244
    16  H   -0.280939   0.482717
    17  H   -0.321243   0.546573
    18  H   -0.495195   0.727479
    19  H   -0.144734   0.294869
    20  H    0.196154  -0.035122
    21  H    0.200990   0.048020
    22  H   -0.289544   0.441628
    23  H   -0.342319   0.492434
    24  H   -0.336468   0.497691
 Sum of Mulliken charges =  -1.00000   1.00000

 Dipole moment (field-independent basis, Debye):
    X=              1.9084    Y=              0.9297    Z=              2.4484  Tot=              3.2406
 Quadrupole moment (field-independent basis, Debye-Ang):
   XX=           -124.8949   YY=           -112.2087   ZZ=           -106.7517
   XY=             -5.7975   XZ=              2.4111   YZ=              4.3166

 Summary of Natural Population Analysis:

                                       Natural Population
                Natural  -----------------------------------------------
    Atom  No    Charge         Core      Valence    Rydberg      Total
 -----------------------------------------------------------------------
      C    1   -0.30442      0.99960     2.29714    0.00768     3.30442
      C    2    0.12828      0.99950     1.85409    0.01814     2.87172
      C    3   -0.26060      0.99951     2.24852    0.01257     3.26060
      S    4    0.08618      4.99963     2.89718    0.01700     7.91382
      C    5   -0.26187      0.99956     2.25067    0.01163     3.26187
      C    6    0.04934      0.99951     1.93417    0.01698     2.95066
      O    7   -0.32511      0.99987     3.31234    0.01290     4.32511
      C    8   -0.02152      0.99956     2.00982    0.01213     3.02152
      O    9   -0.37275      0.99990     3.36643    0.00642     4.37275
      C   10   -0.28646      0.99960     2.27873    0.00814     3.28646
      H   11    0.10628      0.00000     0.39242    0.00129     0.39372
      H   12    0.10518      0.00000     0.39328    0.00153     0.39482
      H   13    0.10180      0.00000     0.39712    0.00108     0.39820
      H   14    0.10794      0.00000     0.38987    0.00219     0.39206
      H   15    0.11508      0.00000     0.38306    0.00186     0.38492
      H   16    0.11246      0.00000     0.38573    0.00180     0.38754
      H   17    0.10836      0.00000     0.38954    0.00209     0.39164
      H   18    0.09828      0.00000     0.39963    0.00209     0.40172
      H   19    0.08670      0.00000     0.41192    0.00138     0.41330
      H   20    0.08015      0.00000     0.41810    0.00176     0.41985
      H   21    0.23378      0.00000     0.26265    0.00357     0.26622
      H   22    0.10304      0.00000     0.39563    0.00133     0.39696
      H   23    0.10382      0.00000     0.39391    0.00227     0.39618
      H   24    0.10605      0.00000     0.39227    0.00168     0.39395
 =======================================================================
   * Total *   -0.00000     13.99624    29.85423    0.14952    44.00000

 Normal termination of Gaussian 16 at Mon Dec 14 13:22:46 2020.
