 Gaussian 16, Revision A.03,

 -----------------------------------------------------------
 # opt freq B3LYP/6-31G(d) empiricaldispersion=gd3bj scf=xqc
 -----------------------------------------------------------

 ------------------------------
 CID_79288101_JID_8917_neutraal
 ------------------------------
 Symbolic Z-matrix:
 Charge =  0 Multiplicity = 1

 SCF Done:  E(RB3LYP) =  -798.102256067     A.U. after   15 cycles
 SCF Done:  E(RB3LYP) =  -798.108649559     A.U. after   13 cycles
 SCF Done:  E(RB3LYP) =  -798.109466707     A.U. after   12 cycles
 SCF Done:  E(RB3LYP) =  -798.109937286     A.U. after   12 cycles
 SCF Done:  E(RB3LYP) =  -798.110225807     A.U. after   11 cycles
 SCF Done:  E(RB3LYP) =  -798.110440292     A.U. after   12 cycles
 SCF Done:  E(RB3LYP) =  -798.110508801     A.U. after   11 cycles
 SCF Done:  E(RB3LYP) =  -798.110574450     A.U. after   11 cycles
 SCF Done:  E(RB3LYP) =  -798.110603330     A.U. after   11 cycles
 SCF Done:  E(RB3LYP) =  -798.110614467     A.U. after   10 cycles
 SCF Done:  E(RB3LYP) =  -798.110621585     A.U. after   10 cycles
 SCF Done:  E(RB3LYP) =  -798.110626785     A.U. after   10 cycles
 SCF Done:  E(RB3LYP) =  -798.110628134     A.U. after    8 cycles
 SCF Done:  E(RB3LYP) =  -798.110628354     A.U. after    8 cycles
 Optimization completed.
    -- Stationary point found.
 Normal termination of Gaussian 16 at Sun Dec 13 20:14:45 2020.

 --------------------------------------------------------------------
 #N Geom=AllCheck Guess=TCheck SCRF=Check GenChk RB3LYP/6-31G(d) Freq
 --------------------------------------------------------------------

 Structure from the checkpoint file:  "JID_8917.chk"
 ------------------------------
 CID_79288101_JID_8917_neutraal
 ------------------------------
 Charge =  0 Multiplicity = 1

 SCF Done:  E(RB3LYP) =  -798.110628354     A.U. after    1 cycles

  Exact polarizability: 167.548  31.696 176.105  -8.968   7.739 121.782
 Approx polarizability: 239.966  64.462 295.523 -18.604  29.289 205.598

 ******    1 imaginary frequencies (negative Signs) ******

                      1                      2                      3
                      A                      A                      A
 Frequencies --    -64.7578                22.3628                38.7250
 Red. masses --      1.0215                 5.2761                 5.1480
 Frc consts  --      0.0025                 0.0016                 0.0045
 IR Inten    --      0.1358                 0.1630                 0.1555

                      4                      5                      6
                      A                      A                      A
 Frequencies --     65.8787                97.2433               140.4598
 Red. masses --      4.5915                 4.5886                 4.3549
 Frc consts  --      0.0117                 0.0256                 0.0506
 IR Inten    --      0.5123                 1.1663                 0.6471

                      7                      8                      9
                      A                      A                      A
 Frequencies --    154.1323               174.8704               222.6143
 Red. masses --      4.4523                 4.8340                 3.1732
 Frc consts  --      0.0623                 0.0871                 0.0927
 IR Inten    --      4.2344                 1.6358                 3.8620

                     10                     11                     12
                      A                      A                      A
 Frequencies --    231.6207               270.2486               288.6521
 Red. masses --      4.2576                 3.0319                 1.9671
 Frc consts  --      0.1346                 0.1305                 0.0966
 IR Inten    --      2.7159                 4.6054                15.2379

                     13                     14                     15
                      A                      A                      A
 Frequencies --    309.1498               332.0814               352.3872
 Red. masses --      1.6788                 2.2516                 3.0219
 Frc consts  --      0.0945                 0.1463                 0.2211
 IR Inten    --     14.2212                23.8296                 7.8198

                     16                     17                     18
                      A                      A                      A
 Frequencies --    376.4178               491.2885               493.3325
 Red. masses --      4.4730                 6.0044                 3.3024
 Frc consts  --      0.3734                 0.8539                 0.4735
 IR Inten    --      4.2083                 1.2705                18.9216

                     19                     20                     21
                      A                      A                      A
 Frequencies --    547.1389               566.2922               602.7034
 Red. masses --      4.7401                 4.0288                 3.9195
 Frc consts  --      0.8360                 0.7612                 0.8389
 IR Inten    --     20.8790                10.7392                 0.4166

                     22                     23                     24
                      A                      A                      A
 Frequencies --    611.5726               613.8761               622.0561
 Red. masses --      4.6545                 3.6056                 4.3063
 Frc consts  --      1.0257                 0.8005                 0.9818
 IR Inten    --     28.3117                 3.2435                13.6715

                     25                     26                     27
                      A                      A                      A
 Frequencies --    642.5103               661.4408               673.7906
 Red. masses --      4.5451                 3.1141                 2.0915
 Frc consts  --      1.1055                 0.8027                 0.5594
 IR Inten    --      0.9058                26.6831               109.1195

                     28                     29                     30
                      A                      A                      A
 Frequencies --    723.9377               731.5832               760.1834
 Red. masses --      4.4602                 1.3647                 2.9584
 Frc consts  --      1.3772                 0.4304                 1.0073
 IR Inten    --     11.7308                40.8506               149.1746

                     31                     32                     33
                      A                      A                      A
 Frequencies --    790.1000               830.2969               830.9552
 Red. masses --      9.0324                 1.2175                 1.2285
 Frc consts  --      3.3221                 0.4945                 0.4998
 IR Inten    --      4.4156                18.1735                21.9124

                     34                     35                     36
                      A                      A                      A
 Frequencies --    863.1865               890.1104               902.3956
 Red. masses --      3.6206                 1.3187                 7.0413
 Frc consts  --      1.5894                 0.6156                 3.3783
 IR Inten    --      9.5470                16.1052                 1.2804

                     37                     38                     39
                      A                      A                      A
 Frequencies --    909.1898               928.1895               946.0692
 Red. masses --      5.5780                 2.9080                 1.3185
 Frc consts  --      2.7167                 1.4761                 0.6953
 IR Inten    --      2.5486                15.6798                 0.0869

                     40                     41                     42
                      A                      A                      A
 Frequencies --    965.8316               988.3610              1008.4612
 Red. masses --      2.1820                 2.1636                 1.8612
 Frc consts  --      1.1992                 1.2452                 1.1152
 IR Inten    --     14.0605                 0.1755                 0.5636

                     43                     44                     45
                      A                      A                      A
 Frequencies --   1045.2645              1065.8820              1071.8166
 Red. masses --      1.5673                 2.4426                 1.5155
 Frc consts  --      1.0089                 1.6350                 1.0257
 IR Inten    --     26.1058                 5.6146                 1.6645

                     46                     47                     48
                      A                      A                      A
 Frequencies --   1105.4355              1122.0446              1134.7546
 Red. masses --      2.4021                 2.6536                 1.8383
 Frc consts  --      1.7295                 1.9684                 1.3947
 IR Inten    --      2.0096                 0.8617                 8.0210

                     49                     50                     51
                      A                      A                      A
 Frequencies --   1142.5422              1175.9453              1224.8698
 Red. masses --      1.6758                 1.7559                 3.4504
 Frc consts  --      1.2889                 1.4306                 3.0500
 IR Inten    --     19.6547                 7.5030                20.5601

                     52                     53                     54
                      A                      A                      A
 Frequencies --   1232.1914              1269.9322              1280.3184
 Red. masses --      3.5273                 1.7116                 3.2299
 Frc consts  --      3.1553                 1.6263                 3.1195
 IR Inten    --     12.1246                19.6182                14.1194

                     55                     56                     57
                      A                      A                      A
 Frequencies --   1283.1983              1302.0102              1307.6191
 Red. masses --      1.4734                 1.4490                 1.9693
 Frc consts  --      1.4294                 1.4473                 1.9839
 IR Inten    --      9.8208                 6.8530                34.5524

                     58                     59                     60
                      A                      A                      A
 Frequencies --   1350.2704              1396.9917              1408.8092
 Red. masses --      3.6490                 1.8316                 2.6972
 Frc consts  --      3.9198                 2.1060                 3.1541
 IR Inten    --     24.7787                 9.3001                57.7668

                     61                     62                     63
                      A                      A                      A
 Frequencies --   1411.4248              1435.5376              1442.2253
 Red. masses --      1.5218                 1.3191                 3.3396
 Frc consts  --      1.7862                 1.6016                 4.0927
 IR Inten    --     36.4996                 0.9882                37.8095

                     64                     65                     66
                      A                      A                      A
 Frequencies --   1450.0570              1497.4474              1511.8032
 Red. masses --      2.2579                 2.2089                 1.1517
 Frc consts  --      2.7972                 2.9184                 1.5509
 IR Inten    --     38.7383                73.6753                 0.6051

                     67                     68                     69
                      A                      A                      A
 Frequencies --   1514.4075              1521.4857              1535.1866
 Red. masses --      1.1320                 1.0455                 1.4272
 Frc consts  --      1.5296                 1.4259                 1.9818
 IR Inten    --     12.6783                 6.1794                56.6843

                     70                     71                     72
                      A                      A                      A
 Frequencies --   1541.6255              1556.8680              1590.2827
 Red. masses --      2.8701                 4.5588                 3.3072
 Frc consts  --      4.0189                 6.5103                 4.9279
 IR Inten    --      1.2741                 9.6785               154.1721

                     73                     74                     75
                      A                      A                      A
 Frequencies --   1648.6175              1653.6109              1658.0336
 Red. masses --      5.1631                 5.8883                 3.2965
 Frc consts  --      8.2680                 9.4865                 5.3395
 IR Inten    --     18.8904                 7.3698                67.5827

                     76                     77                     78
                      A                      A                      A
 Frequencies --   1695.2328              3022.9627              3048.9581
 Red. masses --      2.0302                 1.0694                 1.0391
 Frc consts  --      3.4375                 5.7578                 5.6911
 IR Inten    --    265.1311                24.6177                34.5992

                     79                     80                     81
                      A                      A                      A
 Frequencies --   3050.4489              3085.9198              3099.7545
 Red. masses --      1.0705                 1.0922                 1.1007
 Frc consts  --      5.8691                 6.1281                 6.2315
 IR Inten    --     63.4478                 4.1603                17.6408

                     82                     83                     84
                      A                      A                      A
 Frequencies --   3133.9296              3152.7009              3179.9445
 Red. masses --      1.0946                 1.0996                 1.0870
 Frc consts  --      6.3341                 6.4395                 6.4764
 IR Inten    --      3.4793                 5.7705                 9.5457

                     85                     86                     87
                      A                      A                      A
 Frequencies --   3198.4615              3264.5558              3275.4179
 Red. masses --      1.0947                 1.0911                 1.0982
 Frc consts  --      6.5980                 6.8511                 6.9415
 IR Inten    --     36.3104                 4.2707                 7.4982

                     88                     89                     90
                      A                      A                      A
 Frequencies --   3301.6339              3537.7642              3641.0551
 Red. masses --      1.1047                 1.0483                 1.0973
 Frc consts  --      7.0951                 7.7300                 8.5711
 IR Inten    --      3.6492                26.0421                24.2825

 - Thermochemistry -
 -------------------
 Temperature   298.150 Kelvin.  Pressure   1.00000 Atm.
 Atom     1 has atomic number  6 and mass  12.00000

 Molecular mass:   242.11676 amu.
 Principal axes and moments of inertia in atomic units:
                           1         2         3
     Eigenvalues --  2785.557705658.469716807.96729
           X            0.99974   0.01618  -0.01580
           Y           -0.01645   0.99972  -0.01680
           Z            0.01552   0.01706   0.99973
 This molecule is an asymmetric top.
 Rotational symmetry number  1.
 Warning -- assumption of classical behavior for rotation
           may cause significant error
 Rotational temperatures (Kelvin)      0.03109     0.01531     0.01272
 Rotational constants (GHZ):           0.64789     0.31895     0.26509
    1 imaginary frequencies ignored.
 Zero-point vibrational energy     683360.5 (Joules/Mol)
                                  163.32707 (Kcal/Mol)
 Warning -- explicit consideration of  22 degrees of freedom as
           vibrations may cause significant error
 Vibrational temperatures:     32.18    55.72    94.78   139.91   202.09
          (Kelvin)            221.76   251.60   320.29   333.25   388.83
                              415.31   444.80   477.79   507.01   541.58
                              706.85   709.80   787.21   814.77   867.16
                              879.92   883.23   895.00   924.43   951.67
                              969.43  1041.58  1052.59  1093.73  1136.78
                             1194.61  1195.56  1241.93  1280.67  1298.35
                             1308.12  1335.46  1361.18  1389.62  1422.03
                             1450.95  1503.90  1533.57  1542.11  1590.48
                             1614.37  1632.66  1643.86  1691.92  1762.31
                             1772.85  1827.15  1842.09  1846.24  1873.30
                             1881.37  1942.74  2009.96  2026.96  2030.73
                             2065.42  2075.04  2086.31  2154.49  2175.15
                             2178.89  2189.08  2208.79  2218.06  2239.99
                             2288.06  2371.99  2379.18  2385.54  2439.06
                             4349.37  4386.77  4388.92  4439.95  4459.86
                             4509.03  4536.03  4575.23  4601.87  4696.97
                             4712.60  4750.31  5090.05  5238.67

 Zero-point correction=                           0.260278 (Hartree/Particle)
 Thermal correction to Energy=                    0.274880
 Thermal correction to Enthalpy=                  0.275824
 Thermal correction to Gibbs Free Energy=         0.217360
 Sum of electronic and zero-point Energies=           -797.850350
 Sum of electronic and thermal Energies=              -797.835749
 Sum of electronic and thermal Enthalpies=            -797.834804
 Sum of electronic and thermal Free Energies=         -797.893269

                     E (Thermal)             CV                S
                      KCal/Mol        Cal/Mol-Kelvin    Cal/Mol-Kelvin
 Total                  172.490             57.478            123.049
 Electronic               0.000              0.000              0.000
 Translational            0.889              2.981             42.354
 Rotational               0.889              2.981             33.039
 Vibrational            170.712             51.516             47.656
 Vibration     1          0.593              1.985              6.412
 Vibration     2          0.594              1.981              5.323
 Vibration     3          0.597              1.971              4.273
 Vibration     4          0.603              1.951              3.509
 Vibration     5          0.615              1.913              2.798
 Vibration     6          0.620              1.898              2.621
 Vibration     7          0.627              1.873              2.382
 Vibration     8          0.648              1.807              1.938
 Vibration     9          0.653              1.793              1.866
 Vibration    10          0.674              1.728              1.595
 Vibration    11          0.685              1.695              1.482
 Vibration    12          0.699              1.656              1.367
 Vibration    13          0.714              1.611              1.250
 Vibration    14          0.729              1.570              1.156
 Vibration    15          0.747              1.520              1.054
 Vibration    16          0.847              1.269              0.680
 Vibration    17          0.849              1.265              0.675
 Vibration    18          0.902              1.146              0.550
 Vibration    19          0.922              1.104              0.511
 Vibration    20          0.961              1.026              0.445
 Vibration    21          0.971              1.007              0.430
 Vibration    22          0.973              1.003              0.426

                           ! Non-Optimized Parameters !
 Normal termination of Gaussian 16 at Sun Dec 13 20:27:46 2020.

 ----------------------------------------------------------------------
 # B3LYP/6-311++G(d,p) empiricaldispersion=gd3bj scf=xqc pop=npa geom=c
 heck
 ----------------------------------------------------------------------

 --------------------------------------
 CID_79288101_JID_8917_Energie_neutraal
 --------------------------------------
 Structure from the checkpoint file:  "JID_8917.chk"
 Charge =  0 Multiplicity = 1

 SCF Done:  E(RB3LYP) =  -798.325903268     A.U. after   16 cycles
 Normal termination of Gaussian 16 at Sun Dec 13 20:34:32 2020.

 ----------------------------------------------------------------------
 # B3LYP/6-311++G(d,p) empiricaldispersion=gd3bj scf=xqc pop=npa geom=c
 heck
 ----------------------------------------------------------------------

 ------------------------------------
 CID_79288101_JID_8917_Energie_kation
 ------------------------------------
 Structure from the checkpoint file:  "JID_8917.chk"
 Charge =  1 Multiplicity = 2

 SCF Done:  E(UB3LYP) =  -798.049292056     A.U. after   30 cycles
 Normal termination of Gaussian 16 at Sun Dec 13 20:52:23 2020.
 Gaussian 16:  ES64L-G16RevA.03 25-Dec-2016

 ----------------------------------------------------------------------
 # B3LYP/6-311++G(d,p) empiricaldispersion=gd3bj scf=xqc pop=npa geom=c
 heck
 ----------------------------------------------------------------------

 -----------------------------------
 CID_79288101_JID_8917_Energie_anion
 -----------------------------------
 Structure from the checkpoint file:  "JID_8917.chk"
 Charge = -1 Multiplicity = 2

                         Standard orientation:
 ---------------------------------------------------------------------
 Center     Atomic      Atomic             Coordinates (Angstroms)
 Number     Number       Type             X           Y           Z
 ---------------------------------------------------------------------
      1          6           0       -4.027171   -0.422176    1.570628
      2          6           0       -2.982407   -0.636724    0.510320
      3          6           0       -1.969020    0.293907    0.275721
      4          6           0       -1.023942    0.009563   -0.738821
      5          7           0       -0.973449   -1.053886   -1.524006
      6          6           0       -1.958494   -1.942625   -1.285124
      7          6           0       -2.948077   -1.775918   -0.311371
      8          7           0       -0.150167    1.093944   -0.743513
      9          6           0       -0.617941    1.951323    0.237317
     10          7           0       -1.692289    1.522113    0.863511
     11          7           0        0.051020    3.122396    0.539013
     12          6           0        1.046112    1.221419   -1.560000
     13          6           0        2.350950    1.169714   -0.754905
     14          6           0        2.588691   -0.142538   -0.085456
     15          6           0        2.086857   -1.401987   -0.234332
     16          6           0        2.776478   -2.229323    0.716461
     17          6           0        3.646793   -1.415261    1.370471
     18          8           0        3.547215   -0.137297    0.896381
     19          1           0       -5.034244   -0.417297    1.136503
     20          1           0       -3.864647    0.530023    2.080693
     21          1           0       -3.999913   -1.224893    2.317302
     22          1           0       -1.951377   -2.834213   -1.907243
     23          1           0       -3.703190   -2.548032   -0.190953
     24          1           0        0.386298    3.647253   -0.261290
     25          1           0       -0.497437    3.699544    1.166739
     26          1           0        0.999643    0.406611   -2.286715
     27          1           0        1.003683    2.161570   -2.124290
     28          1           0        3.176029    1.402691   -1.444312
     29          1           0        2.347012    1.961428    0.002978
     30          1           0        1.303979   -1.701720   -0.916406
     31          1           0        2.630357   -3.286852    0.886028
     32          1           0        4.367309   -1.565953    2.159437
 ---------------------------------------------------------------------

 SCF Done:  E(UB3LYP) =  -798.318217464     A.U. after   33 cycles
 SCF Done:  E(UB3LYP) =  -798.318217464     a.u. after    1 cycles

 The electronic state is 2-A.
 Alpha  occ. eigenvalues --  -19.09459 -14.26167 -14.22099 -14.20607 -14.18649
 Alpha  occ. eigenvalues --  -10.16816 -10.13211 -10.13050 -10.12942 -10.11641
 Alpha  occ. eigenvalues --  -10.10181 -10.09432 -10.08834 -10.08538 -10.08366
 Alpha  occ. eigenvalues --  -10.07689 -10.07310 -10.07065  -1.01792  -0.93120
 Alpha  occ. eigenvalues --   -0.84287  -0.80321  -0.79319  -0.71502  -0.70856
 Alpha  occ. eigenvalues --   -0.69686  -0.64418  -0.63148  -0.61007  -0.56408
 Alpha  occ. eigenvalues --   -0.53224  -0.52105  -0.50890  -0.46909  -0.45729
 Alpha  occ. eigenvalues --   -0.44329  -0.43048  -0.41974  -0.39901  -0.38173
 Alpha  occ. eigenvalues --   -0.37063  -0.36940  -0.36058  -0.35420  -0.34016
 Alpha  occ. eigenvalues --   -0.33012  -0.32452  -0.31018  -0.30651  -0.30348
 Alpha  occ. eigenvalues --   -0.29555  -0.28950  -0.28690  -0.27424  -0.27000
 Alpha  occ. eigenvalues --   -0.26137  -0.20434  -0.20237  -0.20080  -0.19073
 Alpha  occ. eigenvalues --   -0.15828  -0.14147  -0.13400  -0.11192   0.04519
 Alpha virt. eigenvalues --    0.06599   0.06665   0.07008   0.07793   0.08341
 Alpha virt. eigenvalues --    0.08997   0.09299   0.09710   0.09852   0.10217
 Alpha virt. eigenvalues --    0.11285   0.11388   0.12079   0.12460   0.13265

  Beta  occ. eigenvalues --  -19.09455 -14.26173 -14.22003 -14.20526 -14.18642
  Beta  occ. eigenvalues --  -10.16785 -10.13208 -10.13046 -10.12927 -10.11596
  Beta  occ. eigenvalues --  -10.10173 -10.09437 -10.08751 -10.08514 -10.08367
  Beta  occ. eigenvalues --  -10.07693 -10.07313 -10.07058  -1.01785  -0.93083
  Beta  occ. eigenvalues --   -0.84179  -0.80247  -0.79247  -0.71427  -0.70820
  Beta  occ. eigenvalues --   -0.69645  -0.64367  -0.63105  -0.60965  -0.56354
  Beta  occ. eigenvalues --   -0.53188  -0.52006  -0.50880  -0.46866  -0.45689
  Beta  occ. eigenvalues --   -0.44233  -0.42990  -0.41912  -0.39845  -0.38112
  Beta  occ. eigenvalues --   -0.36992  -0.36897  -0.36008  -0.35348  -0.33984
  Beta  occ. eigenvalues --   -0.32928  -0.32430  -0.30998  -0.30629  -0.30295
  Beta  occ. eigenvalues --   -0.29483  -0.28895  -0.28670  -0.27277  -0.26976
  Beta  occ. eigenvalues --   -0.26077  -0.20300  -0.20142  -0.19979  -0.19057
  Beta  occ. eigenvalues --   -0.15759  -0.13982  -0.13374  -0.11031
  Beta virt. eigenvalues --    0.06477   0.06897   0.07253   0.07863   0.08144
  Beta virt. eigenvalues --    0.08931   0.09047   0.09502   0.09821   0.10216
  Beta virt. eigenvalues --    0.10662   0.11353   0.11944   0.12163   0.12694

 Mulliken charges and spin densities:
               1          2
     1  C   -0.112224  -0.256920
     2  C    0.641293   0.064887
     3  C    0.754047  -0.578857
     4  C   -0.570285  -0.531954
     5  N    0.008398   0.002981
     6  C    0.173716  -0.128376
     7  C   -0.993402   0.235890
     8  N    0.216222  -0.094853
     9  C    0.604766  -0.342438
    10  N   -0.102232  -0.058143
    11  N   -0.656224   0.261518
    12  C    0.458473  -0.673402
    13  C   -0.417898  -0.374140
    14  C   -0.472281  -0.374705
    15  C    0.919315   0.253965
    16  C   -0.521663  -0.362250
    17  C    0.187451   0.066461
    18  O    0.011851   0.013286
    19  H    0.082818   0.061821
    20  H    0.145403   0.047137
    21  H    0.144499  -0.002584
    22  H    0.139064   0.014022
    23  H    0.113435   0.016171
    24  H   -0.616307   0.909217
    25  H   -0.313473   0.616618
    26  H    0.215229  -0.036972
    27  H   -1.144665   1.387841
    28  H   -0.434187   0.628764
    29  H    0.133851   0.097972
    30  H    0.178869   0.054394
    31  H    0.134780   0.010318
    32  H    0.091361   0.072331
 Sum of Mulliken charges =  -1.00000   1.00000

 Dipole moment (field-independent basis, Debye):
    X=             -1.7119    Y=            -11.1445    Z=              3.1503  Tot=             11.7070
 Quadrupole moment (field-independent basis, Debye-Ang):
   XX=           -146.0467   YY=           -172.4381   ZZ=           -137.3746
   XY=             -7.5901   XZ=              7.3177   YZ=              7.2342

 Summary of Natural Population Analysis:

                                       Natural Population
                Natural  -----------------------------------------------
    Atom  No    Charge         Core      Valence    Rydberg      Total
 -----------------------------------------------------------------------
      C    1   -0.29719      0.99964     2.29243    0.00512     3.29719
      C    2    0.00544      0.99948     1.98698    0.00810     2.99456
      C    3    0.04642      0.99939     1.94131    0.01288     2.95358
      C    4    0.19375      0.99946     1.79186    0.01493     2.80625
      N    5   -0.24738      0.99967     2.73761    0.01011     3.74738
      C    6    0.01382      0.99960     1.97197    0.01461     2.98618
      C    7   -0.13930      0.99953     2.13108    0.00869     3.13930
      N    8   -0.23130      0.99958     2.72010    0.01161     3.73130
      C    9    0.31274      0.99960     1.66949    0.01816     2.68726
      N   10   -0.28771      0.99967     2.77881    0.00923     3.78771
      N   11   -0.39958      0.99971     2.88982    0.01006     3.89958
      C   12   -0.08532      0.99961     2.07270    0.01300     3.08532
      C   13   -0.21992      0.99958     2.21036    0.00998     3.21992
      C   14    0.15898      0.99947     1.82681    0.01475     2.84102
      C   15   -0.15880      0.99949     2.15194    0.00737     3.15880
      C   16   -0.15059      0.99957     2.14223    0.00879     3.15059
      C   17    0.04942      0.99952     1.93717    0.01389     2.95058
      O   18   -0.23597      0.99986     3.22890    0.00721     4.23597
      H   19    0.10173      0.00000     0.39705    0.00123     0.39827
      H   20    0.11381      0.00000     0.38525    0.00094     0.38619
      H   21    0.10111      0.00000     0.39793    0.00096     0.39889
      H   22    0.08606      0.00000     0.41299    0.00095     0.41394
      H   23    0.09725      0.00000     0.40181    0.00094     0.40275
      H   24    0.20363      0.00000     0.26695    0.02942     0.29637
      H   25    0.19699      0.00000     0.29969    0.00332     0.30301
      H   26    0.11042      0.00000     0.38726    0.00232     0.38958
      H   27    0.11020      0.00000     0.38504    0.00475     0.38980
      H   28    0.11225      0.00000     0.38606    0.00170     0.38775
      H   29    0.11860      0.00000     0.37938    0.00202     0.38140
      H   30    0.12251      0.00000     0.37605    0.00144     0.37749
      H   31    0.10544      0.00000     0.39390    0.00066     0.39456
      H   32    0.09248      0.00000     0.40671    0.00081     0.40752
 =======================================================================
   * Total *   -0.00000     17.99242    45.75764    0.24994    64.00000

 Normal termination of Gaussian 16 at Sun Dec 13 21:11:36 2020.
