 Gaussian 16, Revision A.03,

 -----------------------------------------------------------
 # opt freq B3LYP/6-31G(d) empiricaldispersion=gd3bj scf=xqc
 -----------------------------------------------------------

 -------------------------------
 CID_101809823_JID_1037_neutraal
 -------------------------------
 Symbolic Z-matrix:
 Charge =  0 Multiplicity = 1

 SCF Done:  E(RB3LYP) =  -458.467656017     A.U. after   14 cycles
 SCF Done:  E(RB3LYP) =  -458.470077209     A.U. after   12 cycles
 SCF Done:  E(RB3LYP) =  -458.470616044     A.U. after   12 cycles
 SCF Done:  E(RB3LYP) =  -458.471032395     A.U. after   13 cycles
 SCF Done:  E(RB3LYP) =  -458.471141083     A.U. after   12 cycles
 SCF Done:  E(RB3LYP) =  -458.471277454     A.U. after   11 cycles
 SCF Done:  E(RB3LYP) =  -458.471309765     A.U. after   10 cycles
 SCF Done:  E(RB3LYP) =  -458.471324765     A.U. after   10 cycles
 SCF Done:  E(RB3LYP) =  -458.471357696     A.U. after   10 cycles
 SCF Done:  E(RB3LYP) =  -458.471387012     A.U. after   12 cycles
 SCF Done:  E(RB3LYP) =  -458.471394096     A.U. after   10 cycles
 SCF Done:  E(RB3LYP) =  -458.471402013     A.U. after   10 cycles
 SCF Done:  E(RB3LYP) =  -458.471403215     A.U. after    8 cycles
 SCF Done:  E(RB3LYP) =  -458.471403378     A.U. after    8 cycles
 SCF Done:  E(RB3LYP) =  -458.471403489     A.U. after    7 cycles
 Optimization completed.
    -- Stationary point found.

 1\1\GINC-NODE310\FOpt\RB3LYP\6-31G(d)\C9H10N2\VSC10255\08-Dec-2020\0\\
 # opt freq B3LYP/6-31G(d) empiricaldispersion=gd3bj scf=xqc\\CID_10180
 9823_JID_1037_neutraal\\0,1\C,0.1154492072,-1.0540078013,0.2088913639\
 C,1.391459888,-0.3208205098,-0.110488525\C,1.1140450424,0.7191378646,-
 0.9235332363\C,-0.3285447106,0.7501399153,-1.1910656122\C,-0.931539775
 7,-0.2744445945,-0.5492511867\C,-2.3875918405,-0.6161466782,-0.5461355
 409\N,-2.9402074504,-0.6637895397,0.8070712251\C,-2.8887349873,0.34583
 86659,1.7492389407\C,-3.5070724772,-0.1632063813,2.8653344184\N,-3.933

 Normal termination of Gaussian 16 at Tue Dec  8 19:11:27 2020.

 --------------------------------------------------------------------
 #N Geom=AllCheck Guess=TCheck SCRF=Check GenChk RB3LYP/6-31G(d) Freq
 --------------------------------------------------------------------

 Structure from the checkpoint file:  "JID_1037.chk"
 -------------------------------
 CID_101809823_JID_1037_neutraal
 -------------------------------
 Charge =  0 Multiplicity = 1

 SCF Done:  E(RB3LYP) =  -458.471403489     A.U. after    1 cycles

  Exact polarizability: 120.597  -5.438  81.482 -13.420   2.563  85.749
 Approx polarizability: 169.801 -16.071 131.793 -30.784   8.013 145.095

                      1                      2                      3
                      A                      A                      A
 Frequencies --     35.8676                51.9485                69.9198
 Red. masses --      4.3983                 3.2039                 4.6747
 Frc consts  --      0.0033                 0.0051                 0.0135
 IR Inten    --      3.0580                 0.7291                 0.5765

                      4                      5                      6
                      A                      A                      A
 Frequencies --    208.8817               242.6663               327.4929
 Red. masses --      4.4510                 3.5757                 2.8891
 Frc consts  --      0.1144                 0.1241                 0.1826
 IR Inten    --      0.7749                 0.7875                 5.7943

                      7                      8                      9
                      A                      A                      A
 Frequencies --    353.2505               396.5631               530.1118
 Red. masses --      1.9304                 2.3096                 2.4577
 Frc consts  --      0.1419                 0.2140                 0.4069
 IR Inten    --      0.5077                 7.9947                 0.1017

                     10                     11                     12
                      A                      A                      A
 Frequencies --    624.4692               675.7279               680.7041
 Red. masses --      3.8391                 4.1133                 2.7954
 Frc consts  --      0.8821                 1.1066                 0.7632
 IR Inten    --      4.1302                10.0264                11.3806

                     13                     14                     15
                      A                      A                      A
 Frequencies --    701.4527               724.2752               740.3094
 Red. masses --      1.4999                 1.2320                 3.4922
 Frc consts  --      0.4348                 0.3808                 1.1277
 IR Inten    --     32.9569                18.1151                 4.6381

                     16                     17                     18
                      A                      A                      A
 Frequencies --    797.4721               826.3735               849.7313
 Red. masses --      1.3271                 5.7669                 1.3158
 Frc consts  --      0.4973                 2.3203                 0.5598
 IR Inten    --     26.5464                 6.6341                 2.1322

                     19                     20                     21
                      A                      A                      A
 Frequencies --    879.6556               896.0179               923.2979
 Red. masses --      2.1322                 2.4330                 6.1402
 Frc consts  --      0.9721                 1.1509                 3.0840
 IR Inten    --      0.7242                 2.1769                13.2839

                     22                     23                     24
                      A                      A                      A
 Frequencies --    934.7284               952.9546               964.6551
 Red. masses --      1.5345                 1.3406                 1.9132
 Frc consts  --      0.7899                 0.7173                 1.0489
 IR Inten    --     15.9158                 0.1793                 7.7572

                     25                     26                     27
                      A                      A                      A
 Frequencies --    992.0113              1029.6502              1054.4887
 Red. masses --      1.8831                 1.8160                 3.6103
 Frc consts  --      1.0918                 1.1344                 2.3653
 IR Inten    --      3.2442                 5.1826                24.9385

                     28                     29                     30
                      A                      A                      A
 Frequencies --   1099.2707              1134.7211              1140.2662
 Red. masses --      1.3526                 1.2231                 1.1375
 Frc consts  --      0.9630                 0.9279                 0.8714
 IR Inten    --     25.8884                 0.1747                 0.3834

                     31                     32                     33
                      A                      A                      A
 Frequencies --   1150.8221              1201.9170              1225.6804
 Red. masses --      2.0289                 1.9191                 1.4877
 Frc consts  --      1.5832                 1.6334                 1.3168
 IR Inten    --     11.4254                10.0422                 3.5621

                     34                     35                     36
                      A                      A                      A
 Frequencies --   1267.3908              1279.1800              1311.9776
 Red. masses --      1.9591                 1.4372                 1.8384
 Frc consts  --      1.8541                 1.3855                 1.8644
 IR Inten    --     37.2610                 6.9400                33.2329

                     37                     38                     39
                      A                      A                      A
 Frequencies --   1340.8600              1372.7286              1397.9430
 Red. masses --      3.2320                 1.5822                 5.4272
 Frc consts  --      3.4236                 1.7567                 6.2489
 IR Inten    --      0.7578                13.1409                10.1424

                     40                     41                     42
                      A                      A                      A
 Frequencies --   1410.7411              1431.6538              1447.5732
 Red. masses --      1.8548                 2.4848                 1.1250
 Frc consts  --      2.1749                 3.0006                 1.3890
 IR Inten    --     25.5926                29.0716                 6.4951

                     43                     44                     45
                      A                      A                      A
 Frequencies --   1507.1044              1542.0970              1554.6510
 Red. masses --      1.2458                 2.5938                 3.7059
 Frc consts  --      1.6672                 3.6342                 5.2772
 IR Inten    --     14.4414                39.1988                25.0686

                     46                     47                     48
                      A                      A                      A
 Frequencies --   1600.5054              1686.4493              3035.2585
 Red. masses --      6.1508                 5.9884                 1.0626
 Frc consts  --      9.2831                10.0347                 5.7680
 IR Inten    --      2.4802                 0.3660                 6.1009

                     49                     50                     51
                      A                      A                      A
 Frequencies --   3047.4191              3065.8668              3087.5034
 Red. masses --      1.0588                 1.0971                 1.1054
 Frc consts  --      5.7931                 6.0759                 6.2085
 IR Inten    --     31.8451                 6.7855                17.5966

                     52                     53                     54
                      A                      A                      A
 Frequencies --   3210.8714              3224.9631              3247.4856
 Red. masses --      1.0914                 1.0903                 1.1033
 Frc consts  --      6.6298                 6.6808                 6.8557
 IR Inten    --     13.1210                13.2148                14.2778

                     55                     56                     57
                      A                      A                      A
 Frequencies --   3254.7266              3259.2683              3293.2916
 Red. masses --      1.0949                 1.0934                 1.1027
 Frc consts  --      6.8339                 6.8435                 7.0465
 IR Inten    --      6.0669                 6.1630                 2.0024

 - Thermochemistry -
 -------------------
 Temperature   298.150 Kelvin.  Pressure   1.00000 Atm.
 Atom     1 has atomic number  6 and mass  12.00000

 Molecular mass:   146.08440 amu.
 Principal axes and moments of inertia in atomic units:
                           1         2         3
     Eigenvalues --   600.995592887.916452943.56727
           X            0.99999   0.00458   0.00045
           Y           -0.00458   0.99999   0.00273
           Z           -0.00044  -0.00273   1.00000
 This molecule is an asymmetric top.
 Rotational symmetry number  1.
 Warning -- assumption of classical behavior for rotation
           may cause significant error
 Rotational temperatures (Kelvin)      0.14412     0.02999     0.02942
 Rotational constants (GHZ):           3.00292     0.62493     0.61311
 Zero-point vibrational energy     456344.6 (Joules/Mol)
                                  109.06898 (Kcal/Mol)
 Warning -- explicit consideration of   9 degrees of freedom as
           vibrations may cause significant error
 Vibrational temperatures:     51.61    74.74   100.60   300.53   349.14
          (Kelvin)            471.19   508.25   570.57   762.71   898.47
                              972.22   979.38  1009.23  1042.07  1065.14
                             1147.38  1188.97  1222.57  1265.63  1289.17
                             1328.42  1344.87  1371.09  1387.92  1427.28
                             1481.44  1517.17  1581.61  1632.61  1640.59
                             1655.78  1729.29  1763.48  1823.49  1840.45
                             1887.64  1929.20  1975.05  2011.33  2029.74
                             2059.83  2082.73  2168.39  2218.73  2236.80
                             2302.77  2426.42  4367.06  4384.56  4411.10
                             4442.23  4619.73  4640.00  4672.41  4682.83
                             4689.36  4738.31

 Zero-point correction=                           0.173812 (Hartree/Particle)
 Thermal correction to Energy=                    0.182973
 Thermal correction to Enthalpy=                  0.183917
 Thermal correction to Gibbs Free Energy=         0.137782
 Sum of electronic and zero-point Energies=           -458.297591
 Sum of electronic and thermal Energies=              -458.288430
 Sum of electronic and thermal Enthalpies=            -458.287486
 Sum of electronic and thermal Free Energies=         -458.333621

                     E (Thermal)             CV                S
                      KCal/Mol        Cal/Mol-Kelvin    Cal/Mol-Kelvin
 Total                  114.817             34.930             97.100
 Electronic               0.000              0.000              0.000
 Translational            0.889              2.981             40.848
 Rotational               0.889              2.981             30.014
 Vibrational            113.040             28.969             26.238
 Vibration     1          0.594              1.982              5.475
 Vibration     2          0.596              1.977              4.742
 Vibration     3          0.598              1.968              4.156
 Vibration     4          0.642              1.827              2.053
 Vibration     5          0.659              1.775              1.783
 Vibration     6          0.711              1.621              1.272
 Vibration     7          0.729              1.569              1.152
 Vibration     8          0.763              1.478              0.975
 Vibration     9          0.885              1.183              0.587

 Optimization completed.
    -- Stationary point found.

 1\1\GINC-NODE310\Freq\RB3LYP\6-31G(d)\C9H10N2\VSC10255\08-Dec-2020\0\\
 #N Geom=AllCheck Guess=TCheck SCRF=Check GenChk RB3LYP/6-31G(d) Freq\\
 CID_101809823_JID_1037_neutraal\\0,1\C,0.1154492072,-1.0540078013,0.20
 88913639\C,1.391459888,-0.3208205098,-0.110488525\C,1.1140450424,0.719
 1378646,-0.9235332363\C,-0.3285447106,0.7501399153,-1.1910656122\C,-0.
 9315397757,-0.2744445945,-0.5492511867\C,-2.3875918405,-0.6161466782,-
 0.5461355409\N,-2.9402074504,-0.6637895397,0.8070712251\C,-2.888734987
 3,0.3458386659,1.7492389407\C,-3.5070724772,-0.1632063813,2.8653344184

 Normal termination of Gaussian 16 at Tue Dec  8 19:15:14 2020.

 ----------------------------------------------------------------------
 # B3LYP/6-311++G(d,p) empiricaldispersion=gd3bj scf=xqc pop=npa geom=c
 heck
 ----------------------------------------------------------------------

 ---------------------------------------
 CID_101809823_JID_1037_Energie_neutraal
 ---------------------------------------
 Structure from the checkpoint file:  "JID_1037.chk"
 Charge =  0 Multiplicity = 1

 SCF Done:  E(RB3LYP) =  -458.594276574     A.U. after   14 cycles
 Normal termination of Gaussian 16 at Tue Dec  8 19:16:28 2020.

 ----------------------------------------------------------------------
 # B3LYP/6-311++G(d,p) empiricaldispersion=gd3bj scf=xqc pop=npa geom=c
 heck
 ----------------------------------------------------------------------

 -------------------------------------
 CID_101809823_JID_1037_Energie_kation
 -------------------------------------
 Structure from the checkpoint file:  "JID_1037.chk"
 Charge =  1 Multiplicity = 2

 SCF Done:  E(UB3LYP) =  -458.295609170     A.U. after   23 cycles
 Normal termination of Gaussian 16 at Tue Dec  8 19:19:05 2020.
 Gaussian 16:  ES64L-G16RevA.03 25-Dec-2016

 ------------------------------------
 CID_101809823_JID_1037_Energie_anion
 ------------------------------------
 Structure from the checkpoint file:  "JID_1037.chk"
 Charge = -1 Multiplicity = 2

                         Standard orientation:
 ---------------------------------------------------------------------
 Center     Atomic      Atomic             Coordinates (Angstroms)
 Number     Number       Type             X           Y           Z
 ---------------------------------------------------------------------
      1          6           0        1.485304    0.749902    0.874974
      2          6           0        2.848781    1.124259    0.356748
      3          6           0        3.261399    0.188581   -0.522891
      4          6           0        2.226093   -0.843779   -0.649287
      5          6           0        1.185190   -0.544291    0.158259
      6          6           0       -0.079590   -1.321673    0.339545
      7          7           0       -1.267394   -0.516150    0.058339
      8          6           0       -1.530523    0.176325   -1.108246
      9          6           0       -2.736322    0.800461   -0.899342
     10          7           0       -3.220637    0.516138    0.359856
     11          6           0       -2.315430   -0.271377    0.902733
     12          1           0        0.731902    1.519404    0.653003
     13          1           0        1.477628    0.624653    1.968254
     14          1           0        3.384132    2.016948    0.657400
     15          1           0        4.200032    0.183139   -1.066187
     16          1           0        2.296248   -1.712414   -1.296805
     17          1           0       -0.074769   -2.206523   -0.307423
     18          1           0       -0.187303   -1.674698    1.372688
     19          1           0       -0.841340    0.160440   -1.938792
     20          1           0       -3.283588    1.437839   -1.580684
     21          1           0       -2.356134   -0.699145    1.896216
 ---------------------------------------------------------------------

 SCF Done:  E(UB3LYP) =  -458.584022984     A.U. after   33 cycles
 SCF Done:  E(UB3LYP) =  -458.584022984     a.u. after    1 cycles

 The electronic state is 2-A.
 Alpha  occ. eigenvalues --  -14.25675 -14.18330 -10.10800 -10.09949 -10.08636
 Alpha  occ. eigenvalues --  -10.07604 -10.04891 -10.04082 -10.04011 -10.03785
 Alpha  occ. eigenvalues --  -10.03463  -0.90643  -0.77709  -0.73076  -0.64444
 Alpha  occ. eigenvalues --   -0.62220  -0.57827  -0.55361  -0.48839  -0.46646
 Alpha  occ. eigenvalues --   -0.43309  -0.41553  -0.40637  -0.38040  -0.34384
 Alpha  occ. eigenvalues --   -0.32858  -0.31648  -0.31025  -0.30174  -0.28670
 Alpha  occ. eigenvalues --   -0.27135  -0.24957  -0.23559  -0.22676  -0.18036
 Alpha  occ. eigenvalues --   -0.16662  -0.16277  -0.12488  -0.09866   0.05205
 Alpha virt. eigenvalues --    0.08038   0.08419   0.08753   0.09028   0.10135
 Alpha virt. eigenvalues --    0.10641   0.11682   0.11887   0.12429   0.12857
 Alpha virt. eigenvalues --    0.13583   0.14467   0.16018   0.16591   0.17013

  Beta  occ. eigenvalues --  -14.25665 -14.18326 -10.10772 -10.09927 -10.08628
  Beta  occ. eigenvalues --  -10.07602 -10.04917 -10.04072 -10.03826 -10.03711
  Beta  occ. eigenvalues --  -10.03254  -0.90620  -0.77654  -0.72828  -0.64360
  Beta  occ. eigenvalues --   -0.62058  -0.57623  -0.55172  -0.48813  -0.46565
  Beta  occ. eigenvalues --   -0.43085  -0.41378  -0.40409  -0.37886  -0.34332
  Beta  occ. eigenvalues --   -0.32786  -0.31412  -0.30847  -0.30133  -0.28549
  Beta  occ. eigenvalues --   -0.27021  -0.24787  -0.23416  -0.22563  -0.17425
  Beta  occ. eigenvalues --   -0.16602  -0.16229  -0.12454  -0.08838
  Beta virt. eigenvalues --    0.07913   0.08764   0.09063   0.09266   0.10054
  Beta virt. eigenvalues --    0.10614   0.11091   0.11790   0.12390   0.12857
  Beta virt. eigenvalues --    0.13136   0.13803   0.14479   0.16091   0.16641

 Mulliken charges and spin densities:
               1          2
     1  C   -0.931603   0.040416
     2  C   -0.274007   0.399847
     3  C    0.527964  -0.967760
     4  C   -0.989309   0.761996
     5  C   -0.180496   1.371339
     6  C    2.638065  -3.399258
     7  N   -0.002650   0.134543
     8  C   -0.163992   0.069124
     9  C   -0.062075  -0.217057
    10  N   -0.198762   0.024446
    11  C    0.401880  -0.507270
    12  H    0.152439  -0.005402
    13  H   -0.156323   0.335789
    14  H   -0.031215   0.161501
    15  H   -0.030631   0.141653
    16  H   -0.549464   0.681119
    17  H   -0.233499   0.437350
    18  H   -0.721595   0.917886
    19  H    0.139911  -0.001415
    20  H    0.102077   0.021292
    21  H   -0.436716   0.599861
 Sum of Mulliken charges =  -1.00000   1.00000

 Dipole moment (field-independent basis, Debye):
    X=             -0.4530    Y=              3.7647    Z=             -4.1608  Tot=              5.6294
 Quadrupole moment (field-independent basis, Debye-Ang):
   XX=           -118.9090   YY=            -96.0631   ZZ=            -92.0579
   XY=              4.2385   XZ=              4.7454   YZ=              3.5163

 Summary of Natural Population Analysis:

                                       Natural Population
                Natural  -----------------------------------------------
    Atom  No    Charge         Core      Valence    Rydberg      Total
 -----------------------------------------------------------------------
      C    1   -0.22874      0.99959     2.22074    0.00842     3.22874
      C    2   -0.05451      0.99955     2.04641    0.00854     3.05451
      C    3   -0.12296      0.99953     2.11221    0.01122     3.12296
      C    4   -0.10289      0.99945     2.09323    0.01021     3.10289
      C    5    0.01027      0.99950     1.97843    0.01180     2.98973
      C    6   -0.09251      0.99955     2.07969    0.01327     3.09251
      N    7   -0.20198      0.99965     2.69070    0.01162     3.70198
      C    8   -0.03762      0.99955     2.02619    0.01188     3.03762
      C    9   -0.04165      0.99959     2.02882    0.01323     3.04165
      N   10   -0.26441      0.99973     2.75433    0.01035     3.76441
      C   11    0.10918      0.99962     1.87243    0.01877     2.89082
      H   12    0.11670      0.00000     0.38210    0.00120     0.38330
      H   13    0.12064      0.00000     0.37719    0.00216     0.37936
      H   14    0.08964      0.00000     0.40961    0.00075     0.41036
      H   15    0.09446      0.00000     0.40482    0.00073     0.40554
      H   16    0.09689      0.00000     0.40199    0.00112     0.40311
      H   17    0.10174      0.00000     0.39659    0.00167     0.39826
      H   18    0.11249      0.00000     0.37809    0.00943     0.38751
      H   19    0.10676      0.00000     0.39235    0.00090     0.39324
      H   20    0.09208      0.00000     0.40709    0.00082     0.40792
      H   21    0.09642      0.00000     0.40155    0.00203     0.40358
 =======================================================================
   * Total *   -0.00000     10.99531    27.85456    0.15013    39.00000

 Normal termination of Gaussian 16 at Tue Dec  8 19:22:56 2020.
