 Gaussian 16, Revision A.03,

 -----------------------------------------------------------
 # opt freq B3LYP/6-31G(d) empiricaldispersion=gd3bj scf=xqc
 -----------------------------------------------------------

 ------------------------------
 CID_149161047_JID_177_neutraal
 ------------------------------
 Symbolic Z-matrix:
 Charge =  0 Multiplicity = 1

 SCF Done:  E(RB3LYP) =  -576.008019456     A.U. after   17 cycles
 SCF Done:  E(RB3LYP) =  -576.021072005     A.U. after   16 cycles
 SCF Done:  E(RB3LYP) =  -576.020732924     A.U. after   14 cycles
 SCF Done:  E(RB3LYP) =  -576.023053677     A.U. after   14 cycles
 SCF Done:  E(RB3LYP) =  -576.023383035     A.U. after   13 cycles
 SCF Done:  E(RB3LYP) =  -576.023567659     A.U. after   13 cycles
 SCF Done:  E(RB3LYP) =  -576.023572905     A.U. after   10 cycles
 SCF Done:  E(RB3LYP) =  -576.023573588     A.U. after    9 cycles
 Optimization completed.
    -- Stationary point found.
 Normal termination of Gaussian 16 at Mon Dec 14 13:05:15 2020.

 --------------------------------------------------------------------
 #N Geom=AllCheck Guess=TCheck SCRF=Check GenChk RB3LYP/6-31G(d) Freq
 --------------------------------------------------------------------

 Structure from the checkpoint file:  "JID_177.chk"
 ------------------------------
 CID_149161047_JID_177_neutraal
 ------------------------------
 Charge =  0 Multiplicity = 1

 SCF Done:  E(RB3LYP) =  -576.023573588     A.U. after    1 cycles

  Exact polarizability: 109.540  -1.167  54.034   0.001   0.001  26.300
 Approx polarizability: 200.438 -13.657  88.498   0.003   0.003  38.854

 ******    3 imaginary frequencies (negative Signs) ******

                      1                      2                      3
                      A                      A                      A
 Frequencies --   -316.2621              -161.5329               -60.6495
 Red. masses --     13.9034                13.7750                14.1723
 Frc consts  --      0.8193                 0.2118                 0.0307
 IR Inten    --      0.4185                 5.3023                 0.1856

                      4                      5                      6
                      A                      A                      A
 Frequencies --    101.1480               159.9836               200.1600
 Red. masses --     15.0211                13.6042                10.6048
 Frc consts  --      0.0905                 0.2052                 0.2503
 IR Inten    --      0.0001                 3.6885                 1.8273

                      7                      8                      9
                      A                      A                      A
 Frequencies --    279.9956               356.0511               437.3850
 Red. masses --     10.6637                13.6346                 6.8764
 Frc consts  --      0.4926                 1.0184                 0.7751
 IR Inten    --      7.4387                 9.4104                31.0843

                     10                     11                     12
                      A                      A                      A
 Frequencies --    453.0483               463.8532               467.3601
 Red. masses --      3.5348                13.5923                 1.5494
 Frc consts  --      0.4275                 1.7231                 0.1994
 IR Inten    --     49.4873                 0.7966                46.0098

                     13                     14                     15
                      A                      A                      A
 Frequencies --    471.4387               580.9638               671.5763
 Red. masses --      9.5352                 7.6469                10.7074
 Frc consts  --      1.2486                 1.5207                 2.8453
 IR Inten    --     26.3396                12.7873                49.0985

                     16                     17                     18
                      A                      A                      A
 Frequencies --    699.4242               780.6663              1001.9365
 Red. masses --     10.8706                 6.3226                11.1516
 Frc consts  --      3.1332                 2.2703                 6.5958
 IR Inten    --     53.9568                42.6429                 7.4916

                     19                     20                     21
                      A                      A                      A
 Frequencies --   1131.2959              1170.4656              1212.8701
 Red. masses --      8.2673                12.9388                 2.2009
 Frc consts  --      6.2340                10.4439                 1.9076
 IR Inten    --    110.4024                87.4211               179.5831

                     22                     23                     24
                      A                      A                      A
 Frequencies --   1364.6709              1484.6462              1811.4880
 Red. masses --      6.0613                 5.2566                10.9798
 Frc consts  --      6.6507                 6.8266                21.2283
 IR Inten    --     12.1420               201.5685               195.5245

                     25                     26                     27
                      A                      A                      A
 Frequencies --   2260.0714              2357.6539              3719.6981
 Red. masses --     13.9798                12.6736                 1.0650
 Frc consts  --     42.0723                41.5061                 8.6816
 IR Inten    --    342.0478                86.7408               141.9040

 - Thermochemistry -
 -------------------
 Temperature   298.150 Kelvin.  Pressure   1.00000 Atm.
 Atom     1 has atomic number  6 and mass  12.00000

 Molecular mass:   143.00794 amu.
 Principal axes and moments of inertia in atomic units:
                           1         2         3
     Eigenvalues --   597.992791919.847152517.83993
           X            0.99997   0.00726  -0.00000
           Y           -0.00726   0.99997  -0.00000
           Z            0.00000   0.00000   1.00000
 This molecule is an asymmetric top.
 Rotational symmetry number  1.
 Warning -- assumption of classical behavior for rotation
           may cause significant error
 Rotational temperatures (Kelvin)      0.14484     0.04512     0.03440
 Rotational constants (GHZ):           3.01800     0.94004     0.71678
    3 imaginary frequencies ignored.
 Zero-point vibrational energy     141385.7 (Joules/Mol)
                                   33.79200 (Kcal/Mol)
 Warning -- explicit consideration of  11 degrees of freedom as
           vibrations may cause significant error
 Vibrational temperatures:    145.53   230.18   287.99   402.85   512.28
          (Kelvin)            629.30   651.84   667.38   672.43   678.30
                              835.88   966.25  1006.32  1123.20  1441.56
                             1627.68  1684.04  1745.05  1963.46  2136.07
                             2606.33  3251.74  3392.14  5351.82

 Zero-point correction=                           0.053851 (Hartree/Particle)
 Thermal correction to Energy=                    0.061288
 Thermal correction to Enthalpy=                  0.062232
 Thermal correction to Gibbs Free Energy=         0.021133
 Sum of electronic and zero-point Energies=           -575.969723
 Sum of electronic and thermal Energies=              -575.962286
 Sum of electronic and thermal Enthalpies=            -575.961341
 Sum of electronic and thermal Free Energies=         -576.002441

                     E (Thermal)             CV                S
                      KCal/Mol        Cal/Mol-Kelvin    Cal/Mol-Kelvin
 Total                   38.459             26.375             86.501
 Electronic               0.000              0.000              0.000
 Translational            0.889              2.981             40.784
 Rotational               0.889              2.981             29.448
 Vibrational             36.681             20.413             16.268
 Vibration     1          0.604              1.948              3.432
 Vibration     2          0.622              1.891              2.550
 Vibration     3          0.638              1.840              2.132
 Vibration     4          0.680              1.711              1.534
 Vibration     5          0.732              1.563              1.139
 Vibration     6          0.798              1.389              0.835
 Vibration     7          0.812              1.354              0.787
 Vibration     8          0.821              1.330              0.755
 Vibration     9          0.825              1.322              0.745
 Vibration    10          0.828              1.313              0.734
 Vibration    11          0.938              1.072              0.484

                           ! Non-Optimized Parameters !
 Normal termination of Gaussian 16 at Mon Dec 14 13:06:37 2020.

 ----------------------------------------------------------------------
 # B3LYP/6-311++G(d,p) empiricaldispersion=gd3bj scf=xqc pop=npa geom=c
 heck
 ----------------------------------------------------------------------

 --------------------------------------
 CID_149161047_JID_177_Energie_neutraal
 --------------------------------------
 Structure from the checkpoint file:  "JID_177.chk"
 Charge =  0 Multiplicity = 1

 SCF Done:  E(RB3LYP) =  -576.199910885     A.U. after   16 cycles
 Normal termination of Gaussian 16 at Mon Dec 14 13:07:00 2020.

 ----------------------------------------------------------------------
 # B3LYP/6-311++G(d,p) empiricaldispersion=gd3bj scf=xqc pop=npa geom=c
 heck
 ----------------------------------------------------------------------

 ------------------------------------
 CID_149161047_JID_177_Energie_kation
 ------------------------------------
 Structure from the checkpoint file:  "JID_177.chk"
 Charge =  1 Multiplicity = 2

 SCF Done:  E(UB3LYP) =  -575.852373221     A.U. after   23 cycles
 Normal termination of Gaussian 16 at Mon Dec 14 13:07:47 2020.
 Gaussian 16:  ES64L-G16RevA.03 25-Dec-2016

 ----------------------------------------------------------------------
 # B3LYP/6-311++G(d,p) empiricaldispersion=gd3bj scf=xqc pop=npa geom=c
 heck
 ----------------------------------------------------------------------

 -----------------------------------
 CID_149161047_JID_177_Energie_anion
 -----------------------------------
 Structure from the checkpoint file:  "JID_177.chk"
 Charge = -1 Multiplicity = 2

                         Standard orientation:
 ---------------------------------------------------------------------
 Center     Atomic      Atomic             Coordinates (Angstroms)
 Number     Number       Type             X           Y           Z
 ---------------------------------------------------------------------
      1          6           0        2.291674   -0.717792    0.000035
      2          7           0        3.430261   -0.472133    0.000233
      3          8           0        1.084817   -1.202879   -0.000206
      4          7           0       -0.040177   -0.309675   -0.000034
      5          6           0       -0.063146    1.064896   -0.000013
      6          8           0       -1.112608    1.674888    0.000123
      7          8           0        1.169209    1.594646   -0.000162
      8          7           0       -1.130163   -1.187887    0.000009
      9          7           0       -2.255525   -0.647290    0.000023
     10          7           0       -3.369707   -0.408452    0.000048
     11          1           0        1.054664    2.562202   -0.000127
 ---------------------------------------------------------------------

 SCF Done:  E(UB3LYP) =  -576.223219209     A.U. after   24 cycles

 The electronic state is 2-A.
 Alpha  occ. eigenvalues --  -19.12958 -19.06048 -18.98604 -14.30593 -14.27705
 Alpha  occ. eigenvalues --  -14.23122 -14.19268 -14.18807 -10.21529 -10.14816
 Alpha  occ. eigenvalues --   -1.05525  -1.00186  -0.96900  -0.91132  -0.85674
 Alpha  occ. eigenvalues --   -0.79072  -0.74019  -0.60583  -0.50978  -0.45834
 Alpha  occ. eigenvalues --   -0.39626  -0.39114  -0.36269  -0.33962  -0.33706
 Alpha  occ. eigenvalues --   -0.32942  -0.31147  -0.27972  -0.26055  -0.23853
 Alpha  occ. eigenvalues --   -0.21499  -0.20760  -0.19396  -0.17277  -0.16910
 Alpha  occ. eigenvalues --   -0.07209   0.04376
 Alpha virt. eigenvalues --    0.07834   0.09508   0.11777   0.14011   0.15104
 Alpha virt. eigenvalues --    0.15112   0.16498   0.17191   0.17917   0.18081
 Alpha virt. eigenvalues --    0.18873   0.18984   0.19110   0.21186   0.21527

  Beta  occ. eigenvalues --  -19.12877 -19.05994 -18.98609 -14.30138 -14.27251
  Beta  occ. eigenvalues --  -14.23094 -14.19141 -14.17975 -10.21488 -10.14805
  Beta  occ. eigenvalues --   -1.05174  -1.00057  -0.95983  -0.91005  -0.85059
  Beta  occ. eigenvalues --   -0.78838  -0.73403  -0.60022  -0.50497  -0.45489
  Beta  occ. eigenvalues --   -0.39404  -0.38953  -0.36005  -0.33582  -0.32638
  Beta  occ. eigenvalues --   -0.31868  -0.30899  -0.26221  -0.25729  -0.23565
  Beta  occ. eigenvalues --   -0.20965  -0.20741  -0.18627  -0.16667  -0.15978
  Beta  occ. eigenvalues --   -0.06791
  Beta virt. eigenvalues --    0.08480   0.09953   0.11667   0.13920   0.14278
  Beta virt. eigenvalues --    0.15004   0.15164   0.16579   0.17333   0.18043
  Beta virt. eigenvalues --    0.18230   0.18734   0.19235   0.19339   0.21427

 Mulliken charges and spin densities:
               1          2
     1  C    0.200472   0.026259
     2  N   -0.387415   0.063558
     3  O    0.464389   0.067824
     4  N   -0.775611  -0.078570
     5  C    0.365276  -0.088432
     6  O   -0.353908  -0.006469
     7  O   -0.166891  -0.040317
     8  N    0.371194   0.035592
     9  N   -0.038579   0.021394
    10  N   -0.577128   0.573383
    11  H   -0.101799   0.425777
 Sum of Mulliken charges =  -1.00000   1.00000

 Dipole moment (field-independent basis, Debye):
    X=              2.1425    Y=              0.0499    Z=             -0.0005  Tot=              2.1431
 Quadrupole moment (field-independent basis, Debye-Ang):
   XX=           -108.6507   YY=            -71.0618   ZZ=            -58.6757
   XY=              0.1231   XZ=             -0.0008   YZ=              0.0000

 Summary of Natural Population Analysis:

                                       Natural Population
                Natural  -----------------------------------------------
    Atom  No    Charge         Core      Valence    Rydberg      Total
 -----------------------------------------------------------------------
      C    1    0.28435      0.99955     1.69732    0.01878     2.71565
      N    2   -0.20859      0.99977     2.70101    0.00781     3.70859
      O    3   -0.16540      0.99982     3.15671    0.00888     4.16540
      N    4    0.00837      0.99960     2.47793    0.01410     3.49163
      C    5    0.42768      0.99966     1.54798    0.02468     2.57232
      O    6   -0.32021      0.99987     3.31377    0.00657     4.32021
      O    7   -0.34729      0.99987     3.34067    0.00675     4.34729
      N    8   -0.13841      0.99969     2.62092    0.01780     3.63841
      N    9    0.13366      0.99970     2.35227    0.01436     3.36634
      N   10    0.07803      0.99982     2.40785    0.01431     3.42197
      H   11    0.24782      0.00000     0.24207    0.01012     0.25218
 =======================================================================
   * Total *    0.00000      9.99735    25.85850    0.14415    36.00000

 Normal termination of Gaussian 16 at Mon Dec 14 13:08:37 2020.
