 Gaussian 16, Revision A.03,

 -----------------------------------------------------------
 # opt freq B3LYP/6-31G(d) empiricaldispersion=gd3bj scf=xqc
 -----------------------------------------------------------

 ------------------------------
 CID_76846694_JID_6545_neutraal
 ------------------------------
 Symbolic Z-matrix:
 Charge =  0 Multiplicity = 1

 SCF Done:  E(RB3LYP) =  -726.879460928     A.U. after   14 cycles
 SCF Done:  E(RB3LYP) =  -726.883202990     A.U. after   12 cycles
 SCF Done:  E(RB3LYP) =  -726.883179426     A.U. after   11 cycles
 SCF Done:  E(RB3LYP) =  -726.883635201     A.U. after   11 cycles
 SCF Done:  E(RB3LYP) =  -726.883774757     A.U. after   11 cycles
 SCF Done:  E(RB3LYP) =  -726.883810408     A.U. after   10 cycles
 SCF Done:  E(RB3LYP) =  -726.883871343     A.U. after   11 cycles
 SCF Done:  E(RB3LYP) =  -726.883883057     A.U. after   12 cycles
 SCF Done:  E(RB3LYP) =  -726.883880775     A.U. after   11 cycles
 SCF Done:  E(RB3LYP) =  -726.884132110     A.U. after   12 cycles
 SCF Done:  E(RB3LYP) =  -726.887104158     A.U. after    7 cycles
 SCF Done:  E(RB3LYP) =  -726.887104461     A.U. after    8 cycles
 SCF Done:  E(RB3LYP) =  -726.887104777     A.U. after    8 cycles
 SCF Done:  E(RB3LYP) =  -726.887104924     A.U. after    7 cycles
 SCF Done:  E(RB3LYP) =  -726.887104970     A.U. after    7 cycles
 Optimization completed.
    -- Stationary point found.
 Normal termination of Gaussian 16 at Thu Dec 10 22:53:24 2020.

 --------------------------------------------------------------------
 #N Geom=AllCheck Guess=TCheck SCRF=Check GenChk RB3LYP/6-31G(d) Freq
 --------------------------------------------------------------------

 Structure from the checkpoint file:  "JID_6545.chk"
 ------------------------------
 CID_76846694_JID_6545_neutraal
 ------------------------------
 Charge =  0 Multiplicity = 1

 SCF Done:  E(RB3LYP) =  -726.887104970     A.U. after    1 cycles

  Exact polarizability: 195.244   0.714 145.361   8.770  13.627  92.607
 Approx polarizability: 261.168  -1.664 259.193  17.817  33.912 138.645

                      1                      2                      3
                      A                      A                      A
 Frequencies --     22.0329                49.8748                64.5471
 Red. masses --      4.1020                 3.5328                 2.6333
 Frc consts  --      0.0012                 0.0052                 0.0065
 IR Inten    --      0.2788                 0.4739                 1.3644

                      4                      5                      6
                      A                      A                      A
 Frequencies --     88.9072               111.3791               141.2725
 Red. masses --      3.2359                 4.7786                 2.6361
 Frc consts  --      0.0151                 0.0349                 0.0310
 IR Inten    --      0.6819                 3.9566                 1.3932

                      7                      8                      9
                      A                      A                      A
 Frequencies --    169.0237               187.6352               207.2185
 Red. masses --      3.2356                 2.8017                 3.9517
 Frc consts  --      0.0545                 0.0581                 0.1000
 IR Inten    --      0.9073                 3.7253                 3.0039

                     10                     11                     12
                      A                      A                      A
 Frequencies --    230.9572               241.5232               247.7972
 Red. masses --      1.6237                 3.0423                 1.4806
 Frc consts  --      0.0510                 0.1046                 0.0536
 IR Inten    --      1.0564                 5.6211                 1.0770

                     13                     14                     15
                      A                      A                      A
 Frequencies --    293.5631               307.8346               339.9235
 Red. masses --      1.4755                 1.9813                 3.3024
 Frc consts  --      0.0749                 0.1106                 0.2248
 IR Inten    --     53.5318                41.8220                21.1044

                     16                     17                     18
                      A                      A                      A
 Frequencies --    373.1262               377.3910               402.4397
 Red. masses --      2.5103                 2.3102                 2.2702
 Frc consts  --      0.2059                 0.1939                 0.2166
 IR Inten    --     34.3216                32.2482                40.3315

                     19                     20                     21
                      A                      A                      A
 Frequencies --    449.9715               501.4038               525.0030
 Red. masses --      2.3371                 6.5575                 3.9075
 Frc consts  --      0.2788                 0.9713                 0.6346
 IR Inten    --     29.4420                 2.6892                 2.0004

                     22                     23                     24
                      A                      A                      A
 Frequencies --    558.5442               588.0446               595.1557
 Red. masses --      4.6345                 3.5762                 3.5889
 Frc consts  --      0.8519                 0.7286                 0.7490
 IR Inten    --      0.3903                 0.9867                14.7921

                     25                     26                     27
                      A                      A                      A
 Frequencies --    615.7331               671.0831               705.4441
 Red. masses --      3.5976                 3.8347                 2.9273
 Frc consts  --      0.8036                 1.0175                 0.8583
 IR Inten    --     21.3433                 5.0561                13.6459

                     28                     29                     30
                      A                      A                      A
 Frequencies --    716.6639               745.4965               782.5582
 Red. masses --      4.7801                 1.5606                 1.6717
 Frc consts  --      1.4465                 0.5110                 0.6032
 IR Inten    --      2.3052                23.7229                97.3257

                     31                     32                     33
                      A                      A                      A
 Frequencies --    796.2859               806.6960               858.2765
 Red. masses --      2.2557                 1.6334                 1.4296
 Frc consts  --      0.8427                 0.6263                 0.6205
 IR Inten    --     84.0287                 3.1576                 0.2127

                     34                     35                     36
                      A                      A                      A
 Frequencies --    874.1432               940.6726               942.6333
 Red. masses --      4.7372                 2.8744                 1.2648
 Frc consts  --      2.1327                 1.4986                 0.6622
 IR Inten    --      3.4568                18.5386                 0.3196

                     37                     38                     39
                      A                      A                      A
 Frequencies --    968.2702              1006.5863              1021.4859
 Red. masses --      3.0658                 1.6864                 4.8212
 Frc consts  --      1.6935                 1.0067                 2.9640
 IR Inten    --     12.2469                33.8025                65.1687

                     40                     41                     42
                      A                      A                      A
 Frequencies --   1061.5068              1094.4613              1107.2700
 Red. masses --      3.2918                 1.9300                 3.2323
 Frc consts  --      2.1854                 1.3621                 2.3349
 IR Inten    --     36.7901                 8.4411                52.8447

                     43                     44                     45
                      A                      A                      A
 Frequencies --   1122.5314              1136.3844              1162.8412
 Red. masses --      1.7294                 1.9650                 1.4351
 Frc consts  --      1.2839                 1.4951                 1.1433
 IR Inten    --     46.8241                28.7421                 7.3501

                     46                     47                     48
                      A                      A                      A
 Frequencies --   1176.9092              1187.2122              1198.1786
 Red. masses --      1.7270                 1.2694                 1.9876
 Frc consts  --      1.4094                 1.0542                 1.6812
 IR Inten    --     21.6112                 0.8816                13.3568

                     49                     50                     51
                      A                      A                      A
 Frequencies --   1215.6604              1229.0585              1257.1018
 Red. masses --      1.5881                 1.4875                 1.6708
 Frc consts  --      1.3828                 1.3239                 1.5556
 IR Inten    --     15.4959                 5.4257                24.2908

                     52                     53                     54
                      A                      A                      A
 Frequencies --   1267.3368              1305.0702              1310.4799
 Red. masses --      1.5882                 2.1451                 1.6408
 Frc consts  --      1.5029                 2.1526                 1.6603
 IR Inten    --     13.2958               162.9307                15.6726

                     55                     56                     57
                      A                      A                      A
 Frequencies --   1338.6883              1354.9226              1379.1689
 Red. masses --      2.2354                 1.8722                 1.6632
 Frc consts  --      2.3603                 2.0250                 1.8639
 IR Inten    --     40.1279                31.1102                19.2543

                     58                     59                     60
                      A                      A                      A
 Frequencies --   1410.3958              1421.2482              1443.3783
 Red. masses --      2.7206                 1.9019                 1.4342
 Frc consts  --      3.1886                 2.2634                 1.7604
 IR Inten    --     11.6078                33.5070                49.3569

                     61                     62                     63
                      A                      A                      A
 Frequencies --   1460.5451              1479.4155              1482.1118
 Red. masses --      2.3435                 2.5615                 1.1987
 Frc consts  --      2.9454                 3.3031                 1.5514
 IR Inten    --    116.7940                13.3358                 1.3617

                     64                     65                     66
                      A                      A                      A
 Frequencies --   1502.7823              1516.3679              1517.8269
 Red. masses --      1.2840                 1.1167                 1.0479
 Frc consts  --      1.7085                 1.5129                 1.4223
 IR Inten    --      7.1720                12.9396                 5.4566

                     67                     68                     69
                      A                      A                      A
 Frequencies --   1520.2110              1523.2251              1537.7575
 Red. masses --      1.1710                 1.0670                 1.0545
 Frc consts  --      1.5945                 1.4587                 1.4692
 IR Inten    --      8.3690                10.8407                25.6976

                     70                     71                     72
                      A                      A                      A
 Frequencies --   1550.8807              1554.2629              1598.1212
 Red. masses --      1.0602                 3.2550                 5.4692
 Frc consts  --      1.5024                 4.6328                 8.2300
 IR Inten    --     11.4290                35.8617                 1.4025

                     73                     74                     75
                      A                      A                      A
 Frequencies --   1637.8771              1688.5817              2973.1568
 Red. masses --      5.9632                 7.2792                 1.0583
 Frc consts  --      9.4252                12.2286                 5.5118
 IR Inten    --     72.0861                21.1965                64.4879

                     76                     77                     78
                      A                      A                      A
 Frequencies --   3023.8756              3029.1767              3064.3830
 Red. masses --      1.0691                 1.0341                 1.0810
 Frc consts  --      5.7595                 5.5904                 5.9806
 IR Inten    --     34.3178                60.1016                43.1145

                     79                     80                     81
                      A                      A                      A
 Frequencies --   3074.5649              3088.5317              3097.6568
 Red. masses --      1.0765                 1.1067                 1.0967
 Frc consts  --      5.9956                 6.2202                 6.2001
 IR Inten    --     49.8450                41.0776                35.9425

                     82                     83                     84
                      A                      A                      A
 Frequencies --   3117.2316              3158.5960              3191.3708
 Red. masses --      1.1031                 1.1006                 1.0872
 Frc consts  --      6.3155                 6.4692                 6.5239
 IR Inten    --     32.4174                26.3827                12.3424

                     85                     86                     87
                      A                      A                      A
 Frequencies --   3217.5421              3226.5836              3267.3309
 Red. masses --      1.0924                 1.0921                 1.0961
 Frc consts  --      6.6632                 6.6991                 6.8944
 IR Inten    --     12.6114                12.6286                 1.2519

                     88                     89                     90
                      A                      A                      A
 Frequencies --   3502.8287              3681.7931              3730.6971
 Red. masses --      1.0731                 1.0802                 1.0660
 Frc consts  --      7.7573                 8.6269                 8.7418
 IR Inten    --      1.3184                80.0898                10.4299

 - Thermochemistry -
 -------------------
 Temperature   298.150 Kelvin.  Pressure   1.00000 Atm.
 Atom     1 has atomic number  6 and mass  12.00000

 Molecular mass:   220.12118 amu.
 Principal axes and moments of inertia in atomic units:
                           1         2         3
     Eigenvalues --  1635.551246498.757657219.27458
           X            0.99998   0.00303  -0.00567
           Y           -0.00295   0.99990   0.01400
           Z            0.00571  -0.01398   0.99989
 This molecule is an asymmetric top.
 Rotational symmetry number  1.
 Warning -- assumption of classical behavior for rotation
           may cause significant error
 Rotational temperatures (Kelvin)      0.05296     0.01333     0.01200
 Rotational constants (GHZ):           1.10345     0.27771     0.24999
 Zero-point vibrational energy     710113.4 (Joules/Mol)
                                  169.72118 (Kcal/Mol)
 Warning -- explicit consideration of  25 degrees of freedom as
           vibrations may cause significant error
 Vibrational temperatures:     31.70    71.76    92.87   127.92   160.25
          (Kelvin)            203.26   243.19   269.97   298.14   332.30
                              347.50   356.52   422.37   442.91   489.07
                              536.85   542.98   579.02   647.41   721.41
                              755.36   803.62   846.07   856.30   885.90
                              965.54  1014.98  1031.12  1072.60  1125.93
                             1145.68  1160.66  1234.87  1257.70  1353.42
                             1356.24  1393.12  1448.25  1469.69  1527.27
                             1574.69  1593.11  1615.07  1635.00  1673.07
                             1693.31  1708.13  1723.91  1749.06  1768.34
                             1808.69  1823.41  1877.70  1885.49  1926.07
                             1949.43  1984.32  2029.24  2044.86  2076.70
                             2101.40  2128.55  2132.43  2162.17  2181.72
                             2183.81  2187.24  2191.58  2212.49  2231.37
                             2236.24  2299.34  2356.54  2429.49  4277.71
                             4350.68  4358.31  4408.96  4423.61  4443.71
                             4456.84  4485.00  4544.52  4591.67  4629.33
                             4642.33  4700.96  5039.79  5297.28  5367.64

 Zero-point correction=                           0.270468 (Hartree/Particle)
 Thermal correction to Energy=                    0.286134
 Thermal correction to Enthalpy=                  0.287078
 Thermal correction to Gibbs Free Energy=         0.226796
 Sum of electronic and zero-point Energies=           -726.616637
 Sum of electronic and thermal Energies=              -726.600971
 Sum of electronic and thermal Enthalpies=            -726.600027
 Sum of electronic and thermal Free Energies=         -726.660309

                     E (Thermal)             CV                S
                      KCal/Mol        Cal/Mol-Kelvin    Cal/Mol-Kelvin
 Total                  179.552             59.277            126.875
 Electronic               0.000              0.000              0.000
 Translational            0.889              2.981             42.070
 Rotational               0.889              2.981             32.706
 Vibrational            177.774             53.315             52.099
 Vibration     1          0.593              1.985              6.442
 Vibration     2          0.595              1.978              4.822
 Vibration     3          0.597              1.971              4.313
 Vibration     4          0.602              1.957              3.684
 Vibration     5          0.607              1.940              3.245
 Vibration     6          0.615              1.912              2.787
 Vibration     7          0.625              1.881              2.446
 Vibration     8          0.632              1.857              2.251
 Vibration     9          0.641              1.830              2.068
 Vibration    10          0.653              1.794              1.871
 Vibration    11          0.658              1.777              1.792
 Vibration    12          0.661              1.766              1.746
 Vibration    13          0.688              1.686              1.453
 Vibration    14          0.698              1.659              1.374
 Vibration    15          0.720              1.596              1.213
 Vibration    16          0.745              1.527              1.067
 Vibration    17          0.748              1.518              1.050
 Vibration    18          0.768              1.465              0.954
 Vibration    19          0.809              1.361              0.796
 Vibration    20          0.857              1.247              0.655
 Vibration    21          0.880              1.195              0.598
 Vibration    22          0.914              1.121              0.527
 Vibration    23          0.945              1.057              0.471
 Vibration    24          0.953              1.042              0.458
 Vibration    25          0.975              0.999              0.423

                           ! Non-Optimized Parameters !
 Normal termination of Gaussian 16 at Thu Dec 10 23:03:26 2020.

 ----------------------------------------------------------------------
 # B3LYP/6-311++G(d,p) empiricaldispersion=gd3bj scf=xqc pop=npa geom=c
 heck
 ----------------------------------------------------------------------

 --------------------------------------
 CID_76846694_JID_6545_Energie_neutraal
 --------------------------------------
 Structure from the checkpoint file:  "JID_6545.chk"
 Charge =  0 Multiplicity = 1

 SCF Done:  E(RB3LYP) =  -727.101572677     A.U. after   15 cycles
 Normal termination of Gaussian 16 at Thu Dec 10 23:08:12 2020.

 ----------------------------------------------------------------------
 # B3LYP/6-311++G(d,p) empiricaldispersion=gd3bj scf=xqc pop=npa geom=c
 heck
 ----------------------------------------------------------------------

 ------------------------------------
 CID_76846694_JID_6545_Energie_kation
 ------------------------------------
 Structure from the checkpoint file:  "JID_6545.chk"
 Charge =  1 Multiplicity = 2

 SCF Done:  E(UB3LYP) =  -726.835305427     A.U. after   24 cycles
 Normal termination of Gaussian 16 at Thu Dec 10 23:18:56 2020.
 Gaussian 16:  ES64L-G16RevA.03 25-Dec-2016

 ----------------------------------------------------------------------
 # B3LYP/6-311++G(d,p) empiricaldispersion=gd3bj scf=xqc pop=npa geom=c
 heck
 ----------------------------------------------------------------------

 -----------------------------------
 CID_76846694_JID_6545_Energie_anion
 -----------------------------------
 Structure from the checkpoint file:  "JID_6545.chk"
 Charge = -1 Multiplicity = 2

                         Standard orientation:
 ---------------------------------------------------------------------
 Center     Atomic      Atomic             Coordinates (Angstroms)
 Number     Number       Type             X           Y           Z
 ---------------------------------------------------------------------
      1          6           0       -4.244390   -0.563283    1.752585
      2          7           0       -3.741886   -1.200632    0.538990
      3          6           0       -3.488385   -0.275968   -0.562769
      4          6           0       -2.291975    0.679764   -0.397400
      5          6           0       -0.965105   -0.020799   -0.369272
      6          6           0       -0.679289   -1.328723   -0.702800
      7          7           0        0.675645   -1.557777   -0.573405
      8          6           0        1.288877   -0.394266   -0.159879
      9          6           0        0.293536    0.599482   -0.026131
     10          6           0        0.666575    1.898756    0.369674
     11          6           0        2.004216    2.144653    0.629685
     12          6           0        2.992940    1.139771    0.502621
     13          6           0        2.644143   -0.144372    0.101560
     14          8           0        3.489749   -1.207817   -0.070173
     15          6           0        4.867479   -0.986769    0.184363
     16          8           0       -2.320431    1.695397   -1.415348
     17          1           0       -5.203695   -0.081197    1.531455
     18          1           0       -3.581722    0.199970    2.196913
     19          1           0       -4.425732   -1.331664    2.511596
     20          1           0       -2.882968   -1.700423    0.758713
     21          1           0       -3.351048   -0.856009   -1.486931
     22          1           0       -4.383298    0.338065   -0.711392
     23          1           0       -2.417385    1.243104    0.534473
     24          1           0       -1.335562   -2.125160   -1.024520
     25          1           0        1.154840   -2.427680   -0.741755
     26          1           0       -0.076720    2.685166    0.447646
     27          1           0        2.318888    3.138220    0.935771
     28          1           0        4.026185    1.386668    0.716741
     29          1           0        5.277766   -0.217670   -0.482791
     30          1           0        5.037079   -0.685858    1.226302
     31          1           0        5.367489   -1.938037   -0.005748
     32          1           0       -1.946723    1.291256   -2.214822
 ---------------------------------------------------------------------

 SCF Done:  E(UB3LYP) =  -727.090026825     A.U. after   33 cycles
 SCF Done:  E(UB3LYP) =  -727.090026825     a.u. after    1 cycles

 The electronic state is 2-A.
 Alpha  occ. eigenvalues --  -19.06202 -19.03620 -14.26419 -14.21417 -10.14217
 Alpha  occ. eigenvalues --  -10.13735 -10.12381 -10.11695 -10.10976 -10.10672
 Alpha  occ. eigenvalues --  -10.10597 -10.08009 -10.07862 -10.07858 -10.07614
 Alpha  occ. eigenvalues --  -10.07442  -0.97615  -0.93669  -0.88885  -0.82038
 Alpha  occ. eigenvalues --   -0.75095  -0.70610  -0.65969  -0.65077  -0.62553
 Alpha  occ. eigenvalues --   -0.60331  -0.58644  -0.53675  -0.52615  -0.50595
 Alpha  occ. eigenvalues --   -0.48034  -0.45969  -0.42459  -0.41062  -0.39546
 Alpha  occ. eigenvalues --   -0.39228  -0.37624  -0.37446  -0.37118  -0.36613
 Alpha  occ. eigenvalues --   -0.36046  -0.33888  -0.32785  -0.32081  -0.31684
 Alpha  occ. eigenvalues --   -0.30326  -0.28913  -0.28133  -0.28041  -0.26357
 Alpha  occ. eigenvalues --   -0.26224  -0.24867  -0.24389  -0.23023  -0.20910
 Alpha  occ. eigenvalues --   -0.16904  -0.14036  -0.13381  -0.11212   0.04133
 Alpha virt. eigenvalues --    0.05848   0.06348   0.07243   0.07461   0.07954
 Alpha virt. eigenvalues --    0.08435   0.09080   0.09585   0.09819   0.10233
 Alpha virt. eigenvalues --    0.10404   0.10812   0.11341   0.12014   0.12353

  Beta  occ. eigenvalues --  -19.06188 -19.03614 -14.26387 -14.21407 -10.14218
  Beta  occ. eigenvalues --  -10.13733 -10.12327 -10.11671 -10.10976 -10.10661
  Beta  occ. eigenvalues --  -10.10590 -10.08005 -10.07860 -10.07859 -10.07602
  Beta  occ. eigenvalues --  -10.07441  -0.97594  -0.93657  -0.88849  -0.82022
  Beta  occ. eigenvalues --   -0.75081  -0.70589  -0.65946  -0.65053  -0.62526
  Beta  occ. eigenvalues --   -0.60266  -0.58616  -0.53642  -0.52580  -0.50556
  Beta  occ. eigenvalues --   -0.48001  -0.45927  -0.42426  -0.41033  -0.39519
  Beta  occ. eigenvalues --   -0.39194  -0.37592  -0.37403  -0.37096  -0.36590
  Beta  occ. eigenvalues --   -0.36025  -0.33869  -0.32757  -0.32056  -0.31647
  Beta  occ. eigenvalues --   -0.30307  -0.28894  -0.28115  -0.28022  -0.26340
  Beta  occ. eigenvalues --   -0.26197  -0.24856  -0.24343  -0.23009  -0.20902
  Beta  occ. eigenvalues --   -0.16890  -0.14022  -0.13368  -0.11201
  Beta virt. eigenvalues --    0.06051   0.06717   0.07177   0.07547   0.07633
  Beta virt. eigenvalues --    0.08266   0.08879   0.09296   0.09967   0.10386
  Beta virt. eigenvalues --    0.10482   0.10707   0.10989   0.11556   0.12193

 Mulliken charges and spin densities:
               1          2
     1  C   -0.135222  -0.271814
     2  N   -0.176673   0.100653
     3  C    0.176469  -0.752527
     4  C   -1.105038  -0.210785
     5  C    2.862448  -1.165843
     6  C    0.568086  -0.740620
     7  N   -0.242376   0.103005
     8  C   -1.106673   0.341893
     9  C    1.741230  -0.593853
    10  C   -0.235753  -0.210441
    11  C    0.044210  -0.528241
    12  C   -0.310870   0.422337
    13  C   -2.139767   1.279705
    14  O   -0.222522   0.056144
    15  C    1.477328  -1.742784
    16  O   -0.155414   0.010603
    17  H    0.078454   0.058439
    18  H    0.020161   0.088821
    19  H   -0.069979   0.215634
    20  H    0.164309   0.062824
    21  H    0.089788   0.099649
    22  H    0.155198  -0.003150
    23  H    0.270142  -0.090348
    24  H   -1.081845   1.283802
    25  H   -0.325158   0.673106
    26  H    0.064879   0.058117
    27  H   -0.004281   0.152679
    28  H   -0.113548   0.295534
    29  H   -0.316726   0.467029
    30  H   -0.326467   0.477419
    31  H   -0.833052   1.019631
    32  H    0.188661   0.043379
 Sum of Mulliken charges =  -1.00000   1.00000

 Dipole moment (field-independent basis, Debye):
    X=             -6.5734    Y=              6.0707    Z=              1.0177  Tot=              9.0054
 Quadrupole moment (field-independent basis, Debye-Ang):
   XX=           -194.2189   YY=           -149.2735   ZZ=           -124.0523
   XY=              8.5340   XZ=             -2.0374   YZ=             -2.3427

 Summary of Natural Population Analysis:

                                       Natural Population
                Natural  -----------------------------------------------
    Atom  No    Charge         Core      Valence    Rydberg      Total
 -----------------------------------------------------------------------
      C    1   -0.17840      0.99966     2.17191    0.00683     3.17840
      N    2   -0.33965      0.99976     2.82768    0.01221     3.83965
      C    3   -0.09789      0.99961     2.08368    0.01460     3.09789
      C    4    0.04776      0.99951     1.94026    0.01247     2.95224
      C    5   -0.07948      0.99948     2.06780    0.01220     3.07948
      C    6    0.00386      0.99951     1.98373    0.01290     2.99614
      N    7   -0.26388      0.99966     2.75248    0.01174     3.76388
      C    8    0.06001      0.99944     1.92689    0.01366     2.93999
      C    9   -0.03741      0.99948     2.02718    0.01075     3.03741
      C   10   -0.10946      0.99953     2.10177    0.00817     3.10946
      C   11   -0.10407      0.99959     2.09508    0.00941     3.10407
      C   12   -0.15135      0.99953     2.14280    0.00902     3.15135
      C   13    0.15572      0.99933     1.83175    0.01321     2.84428
      O   14   -0.27266      0.99986     3.26175    0.01106     4.27266
      C   15   -0.09908      0.99960     2.09034    0.00914     3.09908
      O   16   -0.37006      0.99990     3.36438    0.00577     4.37006
      H   17    0.08875      0.00000     0.41020    0.00105     0.41125
      H   18    0.07858      0.00000     0.41986    0.00157     0.42142
      H   19    0.09486      0.00000     0.40422    0.00092     0.40514
      H   20    0.17564      0.00000     0.32060    0.00376     0.32436
      H   21    0.09333      0.00000     0.40532    0.00135     0.40667
      H   22    0.09584      0.00000     0.40302    0.00114     0.40416
      H   23    0.08720      0.00000     0.41031    0.00249     0.41280
      H   24    0.10667      0.00000     0.39056    0.00277     0.39333
      H   25    0.21258      0.00000     0.27939    0.00803     0.28742
      H   26    0.10305      0.00000     0.39572    0.00122     0.39695
      H   27    0.09764      0.00000     0.40158    0.00078     0.40236
      H   28    0.10628      0.00000     0.39253    0.00119     0.39372
      H   29    0.08473      0.00000     0.41323    0.00204     0.41527
      H   30    0.08489      0.00000     0.41303    0.00208     0.41511
      H   31    0.09793      0.00000     0.39953    0.00255     0.40207
      H   32    0.22806      0.00000     0.26916    0.00278     0.27194
 =======================================================================
   * Total *   -0.00000     15.99343    42.79774    0.20883    59.00000

 Normal termination of Gaussian 16 at Thu Dec 10 23:33:32 2020.
