 Gaussian 16, Revision A.03,

 -----------------------------------------------------------
 # opt freq B3LYP/6-31G(d) empiricaldispersion=gd3bj scf=xqc
 -----------------------------------------------------------

 ------------------------------
 CID_13162396_JID_3980_neutraal
 ------------------------------
 Symbolic Z-matrix:
 Charge =  0 Multiplicity = 1

 SCF Done:  E(RB3LYP) =  -917.115652218     A.U. after   15 cycles
 SCF Done:  E(RB3LYP) =  -917.119800654     A.U. after   13 cycles
 SCF Done:  E(RB3LYP) =  -917.119928949     A.U. after   13 cycles
 SCF Done:  E(RB3LYP) =  -917.120136816     A.U. after   13 cycles
 SCF Done:  E(RB3LYP) =  -917.120603979     A.U. after   12 cycles
 SCF Done:  E(RB3LYP) =  -917.120707006     A.U. after   12 cycles
 SCF Done:  E(RB3LYP) =  -917.120876426     A.U. after   13 cycles
 SCF Done:  E(RB3LYP) =  -917.120933788     A.U. after   11 cycles
 SCF Done:  E(RB3LYP) =  -917.121037447     A.U. after   12 cycles
 SCF Done:  E(RB3LYP) =  -917.121102927     A.U. after   12 cycles
 SCF Done:  E(RB3LYP) =  -917.121200936     A.U. after    9 cycles
 SCF Done:  E(RB3LYP) =  -917.121208952     A.U. after   11 cycles
 SCF Done:  E(RB3LYP) =  -917.121209970     A.U. after   10 cycles
 SCF Done:  E(RB3LYP) =  -917.121210388     A.U. after    9 cycles
 SCF Done:  E(RB3LYP) =  -917.121210427     A.U. after    8 cycles
 Optimization completed.
    -- Stationary point found.
 Normal termination of Gaussian 16 at Sun Dec 13 16:05:50 2020.

 --------------------------------------------------------------------
 #N Geom=AllCheck Guess=TCheck SCRF=Check GenChk RB3LYP/6-31G(d) Freq
 --------------------------------------------------------------------

 Structure from the checkpoint file:  "JID_3980.chk"
 ------------------------------
 CID_13162396_JID_3980_neutraal
 ------------------------------
 Charge =  0 Multiplicity = 1

 SCF Done:  E(RB3LYP) =  -917.121210427     A.U. after    1 cycles

  Exact polarizability: 160.335   1.648 126.060  -4.484   6.181  90.331
 Approx polarizability: 212.498   7.201 220.202  -7.142  24.626 146.005

                      1                      2                      3
                      A                      A                      A
 Frequencies --     23.8197                47.3001                60.4431
 Red. masses --      4.4657                 7.0099                 3.6299
 Frc consts  --      0.0015                 0.0092                 0.0078
 IR Inten    --      2.0758                 4.8630                 0.9327

                      4                      5                      6
                      A                      A                      A
 Frequencies --    111.9560               144.9278               155.2102
 Red. masses --      2.9537                 1.0644                 3.5204
 Frc consts  --      0.0218                 0.0132                 0.0500
 IR Inten    --      0.1216                 0.0382                 0.0028

                      7                      8                      9
                      A                      A                      A
 Frequencies --    213.8990               229.9736               303.2295
 Red. masses --      3.8587                 3.2483                 1.8964
 Frc consts  --      0.1040                 0.1012                 0.1027
 IR Inten    --      2.6956                 6.6084                 0.4039

                     10                     11                     12
                      A                      A                      A
 Frequencies --    330.1258               355.3764               396.1391
 Red. masses --      3.2117                 4.8611                 2.1131
 Frc consts  --      0.2062                 0.3617                 0.1954
 IR Inten    --      0.1208                 0.4658                 1.5199

                     13                     14                     15
                      A                      A                      A
 Frequencies --    411.0397               470.3516               495.8457
 Red. masses --      4.0286                 3.5047                 3.3798
 Frc consts  --      0.4010                 0.4568                 0.4896
 IR Inten    --      1.7442                 0.3972                 5.6516

                     16                     17                     18
                      A                      A                      A
 Frequencies --    523.7918               559.0622               602.9166
 Red. masses --      3.9231                 3.5293                 4.0903
 Frc consts  --      0.6342                 0.6499                 0.8760
 IR Inten    --      6.2093                 4.5357                 6.8152

                     19                     20                     21
                      A                      A                      A
 Frequencies --    625.8270               657.3601               691.9757
 Red. masses --      3.7740                 5.4270                 4.5762
 Frc consts  --      0.8709                 1.3817                 1.2910
 IR Inten    --      5.1006                 4.2574                 2.3426

                     22                     23                     24
                      A                      A                      A
 Frequencies --    734.8497               797.2468               841.9393
 Red. masses --      3.3095                 3.6193                 1.4580
 Frc consts  --      1.0530                 1.3554                 0.6089
 IR Inten    --      3.0572                 3.0588                 2.0650

                     25                     26                     27
                      A                      A                      A
 Frequencies --    858.1581               889.7841               918.8208
 Red. masses --      2.7324                 2.0673                 2.2368
 Frc consts  --      1.1856                 0.9643                 1.1126
 IR Inten    --      1.4360                 7.7717                 3.7692

                     28                     29                     30
                      A                      A                      A
 Frequencies --    930.1532               970.7094              1022.3485
 Red. masses --      1.5251                 2.1706                 2.4564
 Frc consts  --      0.7774                 1.2050                 1.5127
 IR Inten    --      0.6159                 1.4322                 2.6579

                     31                     32                     33
                      A                      A                      A
 Frequencies --   1045.8060              1057.1847              1085.9100
 Red. masses --      2.7863                 1.8085                 1.8988
 Frc consts  --      1.7955                 1.1909                 1.3192
 IR Inten    --      6.5988                 0.5814                 1.0406

                     34                     35                     36
                      A                      A                      A
 Frequencies --   1113.3586              1130.0695              1170.1319
 Red. masses --      1.8575                 2.2013                 1.1618
 Frc consts  --      1.3566                 1.6563                 0.9373
 IR Inten    --      0.8144                22.8732                 0.6454

                     37                     38                     39
                      A                      A                      A
 Frequencies --   1176.8999              1205.9167              1215.2804
 Red. masses --      2.2422                 2.3449                 1.8964
 Frc consts  --      1.8298                 2.0091                 1.6502
 IR Inten    --     13.1965               117.6454                 7.7439

                     40                     41                     42
                      A                      A                      A
 Frequencies --   1275.3609              1278.7826              1282.5635
 Red. masses --      1.6493                 1.3201                 1.4922
 Frc consts  --      1.5806                 1.2719                 1.4462
 IR Inten    --     50.9462                 1.3170                 3.4999

                     43                     44                     45
                      A                      A                      A
 Frequencies --   1311.3531              1324.1859              1385.5155
 Red. masses --      1.5400                 1.5088                 1.4659
 Frc consts  --      1.5603                 1.5587                 1.6580
 IR Inten    --     16.9950                 5.4173                 2.2755

                     46                     47                     48
                      A                      A                      A
 Frequencies --   1388.6189              1400.7798              1411.9796
 Red. masses --      1.4122                 1.5690                 2.4345
 Frc consts  --      1.6044                 1.8140                 2.8596
 IR Inten    --      1.9768                 9.5495                 1.9179

                     49                     50                     51
                      A                      A                      A
 Frequencies --   1415.2928              1487.5245              1498.7028
 Red. masses --      1.3440                 1.0869                 1.0628
 Frc consts  --      1.5861                 1.4170                 1.4065
 IR Inten    --     44.1814                 8.0588                11.1417

                     52                     53                     54
                      A                      A                      A
 Frequencies --   1504.1681              1504.7308              1514.2060
 Red. masses --      1.1045                 1.0991                 1.0950
 Frc consts  --      1.4723                 1.4662                 1.4792
 IR Inten    --      2.6407                 5.4815                 5.7081

                     55                     56                     57
                      A                      A                      A
 Frequencies --   1519.2910              1530.0322              1541.5415
 Red. masses --      1.0906                 1.1132                 7.5124
 Frc consts  --      1.4831                 1.5354                10.5182
 IR Inten    --      4.3650                 0.3412                29.6907

                     58                     59                     60
                      A                      A                      A
 Frequencies --   1605.0227              1826.2958              3025.3784
 Red. masses --      6.3233                10.3534                 1.0681
 Frc consts  --      9.5974                20.3459                 5.7601
 IR Inten    --     28.2810               181.1546                28.5219

                     61                     62                     63
                      A                      A                      A
 Frequencies --   3027.4334              3039.1149              3045.5069
 Red. masses --      1.0700                 1.0667                 1.0616
 Frc consts  --      5.7782                 5.8049                 5.8014
 IR Inten    --     21.0729                18.3018                26.2032

                     64                     65                     66
                      A                      A                      A
 Frequencies --   3050.6529              3072.4542              3079.0455
 Red. masses --      1.0412                 1.0930                 1.0597
 Frc consts  --      5.7093                 6.0791                 5.9193
 IR Inten    --      4.3329                33.8275                10.3493

                     67                     68                     69
                      A                      A                      A
 Frequencies --   3081.1927              3091.4201              3094.8610
 Red. masses --      1.0925                 1.0971                 1.1054
 Frc consts  --      6.1110                 6.1775                 6.2384
 IR Inten    --     22.0547                60.8107                49.0508

                     70                     71                     72
                      A                      A                      A
 Frequencies --   3118.0051              3145.5425              3171.4712
 Red. masses --      1.0932                 1.1051                 1.1045
 Frc consts  --      6.2618                 6.4423                 6.5457
 IR Inten    --      4.6128                 3.9026                 7.6521

 - Thermochemistry -
 -------------------
 Temperature   298.150 Kelvin.  Pressure   1.00000 Atm.
 Atom     1 has atomic number  6 and mass  12.00000

 Molecular mass:   195.07179 amu.
 Principal axes and moments of inertia in atomic units:
                           1         2         3
     Eigenvalues --  1152.574824466.269245110.59189
           X            0.99991  -0.01109  -0.00743
           Y            0.01099   0.99985  -0.01361
           Z            0.00758   0.01352   0.99988
 This molecule is an asymmetric top.
 Rotational symmetry number  1.
 Warning -- assumption of classical behavior for rotation
           may cause significant error
 Rotational temperatures (Kelvin)      0.07515     0.01939     0.01695
 Rotational constants (GHZ):           1.56583     0.40408     0.35314
 Zero-point vibrational energy     565972.2 (Joules/Mol)
                                  135.27061 (Kcal/Mol)
 Warning -- explicit consideration of  18 degrees of freedom as
           vibrations may cause significant error
 Vibrational temperatures:     34.27    68.05    86.96   161.08   208.52
          (Kelvin)            223.31   307.75   330.88   436.28   474.98
                              511.31   569.96   591.39   676.73   713.41
                              753.62   804.37   867.46   900.43   945.79
                              995.60  1057.28  1147.06  1211.36  1234.70
                             1280.20  1321.98  1338.28  1396.63  1470.93
                             1504.68  1521.05  1562.38  1601.87  1625.92
                             1683.56  1693.30  1735.05  1748.52  1834.96
                             1839.88  1845.32  1886.74  1905.21  1993.45
                             1997.91  2015.41  2031.52  2036.29  2140.22
                             2156.30  2164.16  2164.97  2178.60  2185.92
                             2201.38  2217.93  2309.27  2627.63  4352.84
                             4355.80  4372.61  4381.81  4389.21  4420.58
                             4430.06  4433.15  4447.86  4452.81  4486.11
                             4525.73  4563.04

 Zero-point correction=                           0.215567 (Hartree/Particle)
 Thermal correction to Energy=                    0.228059
 Thermal correction to Enthalpy=                  0.229003
 Thermal correction to Gibbs Free Energy=         0.175085
 Sum of electronic and zero-point Energies=           -916.905643
 Sum of electronic and thermal Energies=              -916.893152
 Sum of electronic and thermal Enthalpies=            -916.892208
 Sum of electronic and thermal Free Energies=         -916.946126

                     E (Thermal)             CV                S
                      KCal/Mol        Cal/Mol-Kelvin    Cal/Mol-Kelvin
 Total                  143.109             46.700            113.480
 Electronic               0.000              0.000              0.000
 Translational            0.889              2.981             41.710
 Rotational               0.889              2.981             31.643
 Vibrational            141.331             40.739             40.128
 Vibration     1          0.593              1.985              6.287
 Vibration     2          0.595              1.979              4.927
 Vibration     3          0.597              1.973              4.443
 Vibration     4          0.607              1.940              3.235
 Vibration     5          0.616              1.908              2.738
 Vibration     6          0.620              1.897              2.607
 Vibration     7          0.644              1.820              2.010
 Vibration     8          0.652              1.795              1.879
 Vibration     9          0.695              1.668              1.399
 Vibration    10          0.713              1.615              1.259
 Vibration    11          0.731              1.564              1.142
 Vibration    12          0.763              1.478              0.977
 Vibration    13          0.775              1.446              0.923
 Vibration    14          0.827              1.316              0.737
 Vibration    15          0.851              1.259              0.669
 Vibration    16          0.879              1.197              0.601
 Vibration    17          0.915              1.120              0.526
 Vibration    18          0.961              1.026              0.445

 Optimization completed.
    -- Stationary point found.
 Normal termination of Gaussian 16 at Sun Dec 13 16:11:49 2020.

 ----------------------------------------------------------------------
 # B3LYP/6-311++G(d,p) empiricaldispersion=gd3bj scf=xqc pop=npa geom=c
 heck
 ----------------------------------------------------------------------

 --------------------------------------
 CID_13162396_JID_3980_Energie_neutraal
 --------------------------------------
 Structure from the checkpoint file:  "JID_3980.chk"
 Charge =  0 Multiplicity = 1

 SCF Done:  E(RB3LYP) =  -917.288352146     A.U. after   15 cycles
 Normal termination of Gaussian 16 at Sun Dec 13 16:14:46 2020.

 ----------------------------------------------------------------------
 # B3LYP/6-311++G(d,p) empiricaldispersion=gd3bj scf=xqc pop=npa geom=c
 heck
 ----------------------------------------------------------------------

 ------------------------------------
 CID_13162396_JID_3980_Energie_kation
 ------------------------------------
 Structure from the checkpoint file:  "JID_3980.chk"
 Charge =  1 Multiplicity = 2

 SCF Done:  E(UB3LYP) =  -916.991774431     A.U. after   22 cycles
 Normal termination of Gaussian 16 at Sun Dec 13 16:20:43 2020.
 Gaussian 16:  ES64L-G16RevA.03 25-Dec-2016

 ----------------------------------------------------------------------
 # B3LYP/6-311++G(d,p) empiricaldispersion=gd3bj scf=xqc pop=npa geom=c
 heck
 ----------------------------------------------------------------------

 -----------------------------------
 CID_13162396_JID_3980_Energie_anion
 -----------------------------------
 Structure from the checkpoint file:  "JID_3980.chk"
 Charge = -1 Multiplicity = 2

                         Standard orientation:
 ---------------------------------------------------------------------
 Center     Atomic      Atomic             Coordinates (Angstroms)
 Number     Number       Type             X           Y           Z
 ---------------------------------------------------------------------
      1          6           0       -3.245417    1.639694   -0.668005
      2          6           0       -3.256502    0.182581   -0.262411
      3          8           0       -3.831148   -0.681640   -0.890938
      4          6           0       -2.461847   -0.164862    1.010495
      5          6           0       -0.992780   -0.169859    0.704997
      6          7           0       -0.232375    0.887061    0.748099
      7          6           0        1.053780    0.602058    0.331777
      8          6           0        1.286751   -0.695139   -0.040094
      9         16           0       -0.182230   -1.621187    0.124620
     10          6           0        2.603499   -1.239259   -0.513381
     11          6           0        3.728137   -0.246189   -0.165930
     12          6           0        3.332139    1.195226   -0.516631
     13          6           0        2.121057    1.660244    0.308857
     14          1           0       -3.630277    1.750118   -1.683471
     15          1           0       -2.234946    2.052880   -0.584012
     16          1           0       -3.882325    2.209232    0.021913
     17          1           0       -2.642201    0.588971    1.784087
     18          1           0       -2.798502   -1.142594    1.362446
     19          1           0        2.572122   -1.402122   -1.600418
     20          1           0        2.808043   -2.217499   -0.061648
     21          1           0        4.644224   -0.532848   -0.694523
     22          1           0        3.944161   -0.309664    0.908816
     23          1           0        4.177299    1.872835   -0.352094
     24          1           0        3.084328    1.248618   -1.585502
     25          1           0        2.431251    1.887332    1.339157
     26          1           0        1.705418    2.590450   -0.095910
 ---------------------------------------------------------------------

 SCF Done:  E(UB3LYP) =  -917.283801084     A.U. after   33 cycles
 SCF Done:  E(UB3LYP) =  -917.283801085     a.u. after    1 cycles

 The electronic state is 2-A.
 Alpha  occ. eigenvalues --  -88.74022 -18.97323 -14.17190 -10.11750 -10.09486
 Alpha  occ. eigenvalues --  -10.07160 -10.06772 -10.06455 -10.06290 -10.06146
 Alpha  occ. eigenvalues --  -10.06064 -10.05962 -10.05088  -7.82680  -5.78954
 Alpha  occ. eigenvalues --   -5.78619  -5.78288  -0.91032  -0.82920  -0.71893
 Alpha  occ. eigenvalues --   -0.67051  -0.65848  -0.62185  -0.61283  -0.57891
 Alpha  occ. eigenvalues --   -0.50850  -0.48562  -0.44323  -0.41064  -0.39682
 Alpha  occ. eigenvalues --   -0.35524  -0.35051  -0.34073  -0.33740  -0.32524
 Alpha  occ. eigenvalues --   -0.32379  -0.30344  -0.29699  -0.28878  -0.27133
 Alpha  occ. eigenvalues --   -0.26335  -0.25812  -0.24967  -0.24059  -0.22862
 Alpha  occ. eigenvalues --   -0.22773  -0.21866  -0.20388  -0.14954  -0.14442
 Alpha  occ. eigenvalues --   -0.12878  -0.09891   0.04780
 Alpha virt. eigenvalues --    0.06558   0.08351   0.08566   0.09499   0.09902
 Alpha virt. eigenvalues --    0.10470   0.10717   0.11281   0.11529   0.12170
 Alpha virt. eigenvalues --    0.12454   0.12969   0.14077   0.14152   0.14326

  Beta  occ. eigenvalues --  -88.73994 -18.97101 -14.17092 -10.11492 -10.09213
  Beta  occ. eigenvalues --  -10.07196 -10.06773 -10.06302 -10.06268 -10.06130
  Beta  occ. eigenvalues --  -10.06056 -10.06004 -10.05110  -7.82654  -5.78940
  Beta  occ. eigenvalues --   -5.78610  -5.78190  -0.90589  -0.82679  -0.71789
  Beta  occ. eigenvalues --   -0.66850  -0.65592  -0.62108  -0.61112  -0.57810
  Beta  occ. eigenvalues --   -0.50758  -0.48446  -0.43933  -0.40753  -0.39421
  Beta  occ. eigenvalues --   -0.35414  -0.34935  -0.33730  -0.33454  -0.32402
  Beta  occ. eigenvalues --   -0.32289  -0.30118  -0.29557  -0.28666  -0.26966
  Beta  occ. eigenvalues --   -0.26208  -0.25639  -0.24796  -0.23668  -0.22712
  Beta  occ. eigenvalues --   -0.21872  -0.21739  -0.20307  -0.14414  -0.14172
  Beta  occ. eigenvalues --   -0.12554  -0.09199
  Beta virt. eigenvalues --    0.07240   0.08173   0.08885   0.09030   0.09889
  Beta virt. eigenvalues --    0.10187   0.10752   0.11201   0.11558   0.11893
  Beta virt. eigenvalues --    0.12312   0.12865   0.13535   0.14033   0.14110

 Mulliken charges and spin densities:
               1          2
     1  C   -0.522089  -0.066042
     2  C    0.193303   0.172853
     3  O   -0.329175   0.083122
     4  C   -0.256530   0.331970
     5  C    0.664474  -0.511059
     6  N    0.128718   0.067584
     7  C   -1.402164  -0.220748
     8  C    1.917344  -0.412067
     9  S   -0.536732   0.043748
    10  C   -0.115131  -0.039947
    11  C   -0.182511  -0.021814
    12  C    0.131558  -0.317870
    13  C   -0.706291  -0.075940
    14  H    0.131707   0.000914
    15  H    0.183545   0.010635
    16  H    0.063613   0.069947
    17  H    0.037692   0.125085
    18  H    0.059278   0.124829
    19  H   -0.165127   0.339730
    20  H    0.155115  -0.022792
    21  H   -0.591941   0.766620
    22  H    0.181850  -0.072416
    23  H   -0.383931   0.546315
    24  H    0.099509   0.022891
    25  H    0.121055   0.037365
    26  H    0.122865   0.017087
 Sum of Mulliken charges =  -1.00000   1.00000

 Dipole moment (field-independent basis, Debye):
    X=             -0.1092    Y=              0.9514    Z=              2.4162  Tot=              2.5990
 Quadrupole moment (field-independent basis, Debye-Ang):
   XX=           -158.4544   YY=           -106.3909   ZZ=           -105.8042
   XY=             -8.1923   XZ=              4.4135   YZ=             -4.7476

 Summary of Natural Population Analysis:

                                       Natural Population
                Natural  -----------------------------------------------
    Atom  No    Charge         Core      Valence    Rydberg      Total
 -----------------------------------------------------------------------
      C    1   -0.33850      0.99962     2.33454    0.00435     3.33850
      C    2    0.32095      0.99970     1.65603    0.02333     2.67905
      O    3   -0.27550      0.99987     3.26884    0.00679     4.27550
      C    4   -0.25640      0.99954     2.24646    0.01041     3.25640
      C    5    0.08289      0.99960     1.89981    0.01770     2.91711
      N    6   -0.24588      0.99962     2.73622    0.01004     3.74588
      C    7    0.04842      0.99940     1.93758    0.01461     2.95158
      C    8   -0.09283      0.99939     2.08264    0.01080     3.09283
      S    9    0.19123      4.99939     2.79082    0.01856     7.80877
      C   10   -0.20134      0.99958     2.19167    0.01009     3.20134
      C   11   -0.18453      0.99964     2.17589    0.00900     3.18453
      C   12   -0.18875      0.99964     2.18009    0.00903     3.18875
      C   13   -0.19507      0.99959     2.18559    0.00989     3.19507
      H   14    0.10264      0.00000     0.39653    0.00083     0.39736
      H   15    0.11810      0.00000     0.38113    0.00077     0.38190
      H   16    0.10406      0.00000     0.39480    0.00114     0.39594
      H   17    0.11337      0.00000     0.38486    0.00177     0.38663
      H   18    0.11180      0.00000     0.38687    0.00133     0.38820
      H   19    0.10322      0.00000     0.39512    0.00166     0.39678
      H   20    0.09963      0.00000     0.39946    0.00091     0.40037
      H   21    0.09959      0.00000     0.39860    0.00182     0.40041
      H   22    0.09159      0.00000     0.40723    0.00119     0.40841
      H   23    0.09649      0.00000     0.40248    0.00103     0.40351
      H   24    0.09520      0.00000     0.40343    0.00137     0.40480
      H   25    0.09658      0.00000     0.40215    0.00127     0.40342
      H   26    0.10306      0.00000     0.39560    0.00134     0.39694
 =======================================================================
   * Total *    0.00000     16.99457    34.83443    0.17100    52.00000

 Normal termination of Gaussian 16 at Sun Dec 13 16:29:37 2020.
