 Gaussian 16, Revision A.03,

 -----------------------------------------------------------
 # opt freq B3LYP/6-31G(d) empiricaldispersion=gd3bj scf=xqc
 -----------------------------------------------------------

 -------------------------------
 CID_149299712_JID_4795_neutraal
 -------------------------------
 Symbolic Z-matrix:
 Charge =  0 Multiplicity = 1

 SCF Done:  E(RB3LYP) =  -1007.18276023     A.U. after   15 cycles
 SCF Done:  E(RB3LYP) =  -1007.18771343     A.U. after   12 cycles
 SCF Done:  E(RB3LYP) =  -1007.18854752     A.U. after   12 cycles
 SCF Done:  E(RB3LYP) =  -1007.18964697     A.U. after   14 cycles
 SCF Done:  E(RB3LYP) =  -1007.18440102     A.U. after   16 cycles
 SCF Done:  E(RB3LYP) =  -1007.19096548     A.U. after   13 cycles
 SCF Done:  E(RB3LYP) =  -1007.19159436     A.U. after   13 cycles
 SCF Done:  E(RB3LYP) =  -1007.19202838     A.U. after   11 cycles
 SCF Done:  E(RB3LYP) =  -1007.19223015     A.U. after   12 cycles
 SCF Done:  E(RB3LYP) =  -1007.19228445     A.U. after   10 cycles
 SCF Done:  E(RB3LYP) =  -1007.19230245     A.U. after   10 cycles
 SCF Done:  E(RB3LYP) =  -1007.19230980     A.U. after   10 cycles
 SCF Done:  E(RB3LYP) =  -1007.19231114     A.U. after    8 cycles
 SCF Done:  E(RB3LYP) =  -1007.19231171     A.U. after    8 cycles
 SCF Done:  E(RB3LYP) =  -1007.19231178     A.U. after    7 cycles
 Optimization completed.
    -- Stationary point found.
 Normal termination of Gaussian 16 at Thu Dec 10 10:39:00 2020.

 --------------------------------------------------------------------
 #N Geom=AllCheck Guess=TCheck SCRF=Check GenChk RB3LYP/6-31G(d) Freq
 --------------------------------------------------------------------

 Structure from the checkpoint file:  "JID_4795.chk"
 -------------------------------
 CID_149299712_JID_4795_neutraal
 -------------------------------
 Charge =  0 Multiplicity = 1

 SCF Done:  E(RB3LYP) =  -1007.19231178     A.U. after    1 cycles

  Exact polarizability: 173.700  -3.692 144.519   2.629   1.704  67.802
 Approx polarizability: 250.046 -13.661 270.908   7.323   4.354 106.718

                      1                      2                      3
                      A                      A                      A
 Frequencies --     43.0537                72.5312               117.0136
 Red. masses --      3.5888                 4.5361                 2.6360
 Frc consts  --      0.0039                 0.0141                 0.0213
 IR Inten    --      2.0805                 2.1389                 1.0356

                      4                      5                      6
                      A                      A                      A
 Frequencies --    141.4892               153.3018               185.2624
 Red. masses --      1.4133                 4.5504                 5.0813
 Frc consts  --      0.0167                 0.0630                 0.1028
 IR Inten    --      1.0788                 1.4978                 8.3597

                      7                      8                      9
                      A                      A                      A
 Frequencies --    225.2750               236.6254               247.1368
 Red. masses --      3.0544                 3.2126                 1.3509
 Frc consts  --      0.0913                 0.1060                 0.0486
 IR Inten    --      0.3227                 1.9651                 1.2340

                     10                     11                     12
                      A                      A                      A
 Frequencies --    278.2528               316.0580               356.9551
 Red. masses --      4.4196                 6.2889                 3.6900
 Frc consts  --      0.2016                 0.3701                 0.2770
 IR Inten    --      1.8761                 2.0011                 1.7980

                     13                     14                     15
                      A                      A                      A
 Frequencies --    379.8700               390.4708               448.2124
 Red. masses --      1.8702                 2.1521                 4.6256
 Frc consts  --      0.1590                 0.1933                 0.5475
 IR Inten    --     43.8126                99.1114                 1.9547

                     16                     17                     18
                      A                      A                      A
 Frequencies --    451.8666               517.4212               542.0931
 Red. masses --      3.9434                 5.7977                 6.2752
 Frc consts  --      0.4744                 0.9145                 1.0865
 IR Inten    --     17.0785                15.4282                 2.4169

                     19                     20                     21
                      A                      A                      A
 Frequencies --    564.4592               594.4699               638.9562
 Red. masses --      6.6081                 4.9882                 6.2166
 Frc consts  --      1.2405                 1.0386                 1.4954
 IR Inten    --      2.1668                 7.9537                 0.4703

                     22                     23                     24
                      A                      A                      A
 Frequencies --    646.3523               700.1040               749.1303
 Red. masses --      7.0222                 5.3588                 3.7542
 Frc consts  --      1.7285                 1.5475                 1.2413
 IR Inten    --     12.2935                10.1117                 6.9424

                     25                     26                     27
                      A                      A                      A
 Frequencies --    751.0037               792.5702               810.4230
 Red. masses --      1.3190                 7.0053                 1.1694
 Frc consts  --      0.4383                 2.5927                 0.4525
 IR Inten    --     21.2577                 2.8707                81.3788

                     28                     29                     30
                      A                      A                      A
 Frequencies --    845.4546               870.6789               930.8019
 Red. masses --      4.5025                 4.3180                 2.6975
 Frc consts  --      1.8962                 1.9286                 1.3770
 IR Inten    --      9.1355                35.7672                 1.7936

                     31                     32                     33
                      A                      A                      A
 Frequencies --   1019.4118              1040.7931              1064.0267
 Red. masses --      2.1604                 2.6441                 1.6682
 Frc consts  --      1.3228                 1.6875                 1.1128
 IR Inten    --     12.4192                20.6334                35.9354

                     34                     35                     36
                      A                      A                      A
 Frequencies --   1078.9610              1079.3801              1103.4856
 Red. masses --      3.2247                 1.5007                 2.0434
 Frc consts  --      2.2118                 1.0302                 1.4660
 IR Inten    --     20.1636                 3.1456                16.8108

                     37                     38                     39
                      A                      A                      A
 Frequencies --   1146.0297              1184.1304              1228.4995
 Red. masses --      3.1048                 2.1924                 1.8969
 Frc consts  --      2.4026                 1.8112                 1.6867
 IR Inten    --     28.7567                34.8369                64.0068

                     40                     41                     42
                      A                      A                      A
 Frequencies --   1249.9008              1303.7578              1335.9663
 Red. masses --      2.2803                 1.4878                 5.9955
 Frc consts  --      2.0989                 1.4901                 6.3047
 IR Inten    --      3.3941                 3.7257                43.7066

                     43                     44                     45
                      A                      A                      A
 Frequencies --   1359.9891              1420.0629              1430.3629
 Red. masses --      1.5222                 1.2888                 1.7732
 Frc consts  --      1.6588                 1.5312                 2.1375
 IR Inten    --     59.2483                51.1385                 5.8400

                     46                     47                     48
                      A                      A                      A
 Frequencies --   1433.7799              1450.4321              1484.6327
 Red. masses --      1.7015                 1.3576                 3.1494
 Frc consts  --      2.0608                 1.6828                 4.0899
 IR Inten    --     28.1080                 1.1127                30.1396

                     49                     50                     51
                      A                      A                      A
 Frequencies --   1506.0847              1512.6618              1517.9084
 Red. masses --      1.0434                 1.5207                 1.0569
 Frc consts  --      1.3944                 2.0502                 1.4347
 IR Inten    --      5.9495                 1.8618                10.5785

                     52                     53                     54
                      A                      A                      A
 Frequencies --   1523.5355              1527.8966              1597.9443
 Red. masses --      1.1654                 2.8794                 5.1974
 Frc consts  --      1.5937                 3.9605                 7.8191
 IR Inten    --      5.4134                61.4981                36.5372

                     55                     56                     57
                      A                      A                      A
 Frequencies --   1631.6806              1793.4247              3053.1492
 Red. masses --      8.3192                10.1050                 1.0495
 Frc consts  --     13.0497                19.1493                 5.7643
 IR Inten    --    210.1384               532.6635                10.0691

                     58                     59                     60
                      A                      A                      A
 Frequencies --   3061.7394              3065.1718              3124.0397
 Red. masses --      1.0350                 1.0768                 1.1006
 Frc consts  --      5.7166                 5.9606                 6.3289
 IR Inten    --     23.9773                19.0350                 9.5314

                     61                     62                     63
                      A                      A                      A
 Frequencies --   3130.2310              3137.1702              3168.7991
 Red. masses --      1.0960                 1.1042                 1.1020
 Frc consts  --      6.3270                 6.4029                 6.5194
 IR Inten    --     27.2712                18.1099                 8.1984

                     64                     65                     66
                      A                      A                      A
 Frequencies --   3261.4572              3565.6068              3720.1909
 Red. masses --      1.0937                 1.0766                 1.0660
 Frc consts  --      6.8542                 8.0648                 8.6927
 IR Inten    --      1.5128               119.5979                20.6561

 - Thermochemistry -
 -------------------
 Temperature   298.150 Kelvin.  Pressure   1.00000 Atm.
 Atom     1 has atomic number  6 and mass  12.00000

 Molecular mass:   210.04630 amu.
 Principal axes and moments of inertia in atomic units:
                           1         2         3
     Eigenvalues --  1663.084294079.677955657.01199
           X            0.99931   0.03712  -0.00302
           Y           -0.03713   0.99931  -0.00142
           Z            0.00296   0.00153   0.99999
 This molecule is an asymmetric top.
 Rotational symmetry number  1.
 Warning -- assumption of classical behavior for rotation
           may cause significant error
 Rotational temperatures (Kelvin)      0.05208     0.02123     0.01531
 Rotational constants (GHZ):           1.08518     0.44237     0.31903
 Zero-point vibrational energy     486339.3 (Joules/Mol)
                                  116.23789 (Kcal/Mol)
 Warning -- explicit consideration of  20 degrees of freedom as
           vibrations may cause significant error
 Vibrational temperatures:     61.94   104.36   168.36   203.57   220.57
          (Kelvin)            266.55   324.12   340.45   355.57   400.34
                              454.74   513.58   546.55   561.80   644.88
                              650.14   744.45   779.95   812.13   855.31
                              919.32   929.96  1007.29  1077.83  1080.53
                             1140.33  1166.02  1216.42  1252.71  1339.22
                             1466.71  1497.47  1530.90  1552.38  1552.99
                             1587.67  1648.88  1703.70  1767.54  1798.33
                             1875.82  1922.16  1956.72  2043.15  2057.97
                             2062.89  2086.85  2136.06  2166.92  2176.38
                             2183.93  2192.03  2198.30  2299.09  2347.62
                             2580.34  4392.80  4405.16  4410.10  4494.80
                             4503.70  4513.69  4559.20  4692.51  5130.11
                             5352.52

 Zero-point correction=                           0.185237 (Hartree/Particle)
 Thermal correction to Energy=                    0.198175
 Thermal correction to Enthalpy=                  0.199119
 Thermal correction to Gibbs Free Energy=         0.145653
 Sum of electronic and zero-point Energies=          -1007.007075
 Sum of electronic and thermal Energies=             -1006.994137
 Sum of electronic and thermal Enthalpies=           -1006.993193
 Sum of electronic and thermal Free Energies=        -1007.046659

                     E (Thermal)             CV                S
                      KCal/Mol        Cal/Mol-Kelvin    Cal/Mol-Kelvin
 Total                  124.357             49.127            112.529
 Electronic               0.000              0.000              0.000
 Translational            0.889              2.981             41.930
 Rotational               0.889              2.981             32.018
 Vibrational            122.579             43.166             38.581
 Vibration     1          0.595              1.980              5.113
 Vibration     2          0.599              1.967              4.083
 Vibration     3          0.608              1.935              3.149
 Vibration     4          0.615              1.912              2.784
 Vibration     5          0.619              1.899              2.631
 Vibration     6          0.631              1.860              2.275
 Vibration     7          0.650              1.803              1.916
 Vibration     8          0.656              1.785              1.828
 Vibration     9          0.661              1.768              1.751
 Vibration    10          0.679              1.714              1.544
 Vibration    11          0.703              1.643              1.330
 Vibration    12          0.732              1.561              1.135
 Vibration    13          0.750              1.513              1.040
 Vibration    14          0.758              1.491              0.998
 Vibration    15          0.807              1.365              0.801
 Vibration    16          0.811              1.357              0.790
 Vibration    17          0.872              1.211              0.616
 Vibration    18          0.897              1.157              0.561
 Vibration    19          0.920              1.108              0.515
 Vibration    20          0.952              1.044              0.459

 Optimization completed.
    -- Stationary point found.
 Normal termination of Gaussian 16 at Thu Dec 10 10:45:16 2020.

 ----------------------------------------------------------------------
 # B3LYP/6-311++G(d,p) empiricaldispersion=gd3bj scf=xqc pop=npa geom=c
 heck
 ----------------------------------------------------------------------

 ---------------------------------------
 CID_149299712_JID_4795_Energie_neutraal
 ---------------------------------------
 Structure from the checkpoint file:  "JID_4795.chk"
 Charge =  0 Multiplicity = 1

 SCF Done:  E(RB3LYP) =  -1007.39545032     A.U. after   15 cycles
 Normal termination of Gaussian 16 at Thu Dec 10 10:47:31 2020.

 ----------------------------------------------------------------------
 # B3LYP/6-311++G(d,p) empiricaldispersion=gd3bj scf=xqc pop=npa geom=c
 heck
 ----------------------------------------------------------------------

 -------------------------------------
 CID_149299712_JID_4795_Energie_kation
 -------------------------------------
 Structure from the checkpoint file:  "JID_4795.chk"
 Charge =  1 Multiplicity = 2

 SCF Done:  E(UB3LYP) =  -1007.10167711     A.U. after   24 cycles
 Normal termination of Gaussian 16 at Thu Dec 10 10:52:24 2020.
 Gaussian 16:  ES64L-G16RevA.03 25-Dec-2016

 ----------------------------------------------------------------------
 # B3LYP/6-311++G(d,p) empiricaldispersion=gd3bj scf=xqc pop=npa geom=c
 heck
 ----------------------------------------------------------------------

 ------------------------------------
 CID_149299712_JID_4795_Energie_anion
 ------------------------------------
 Structure from the checkpoint file:  "JID_4795.chk"
 Charge = -1 Multiplicity = 2

                         Standard orientation:
 ---------------------------------------------------------------------
 Center     Atomic      Atomic             Coordinates (Angstroms)
 Number     Number       Type             X           Y           Z
 ---------------------------------------------------------------------
      1          6           0        3.471040    1.491445    0.149981
      2          6           0        2.566720    0.295748    0.068145
      3          6           0        2.987105   -1.003825    0.061950
      4         16           0        1.684305   -2.167419   -0.042996
      5          6           0        0.511476   -0.875587   -0.082019
      6          6           0        1.132636    0.371430   -0.015147
      7          6           0        0.299851    1.557690   -0.033370
      8          8           0        0.646755    2.730182    0.021992
      9          7           0       -1.070813    1.218214   -0.125593
     10          6           0       -1.571991   -0.047218   -0.185270
     11          7           0       -0.827956   -1.118322   -0.163605
     12          6           0       -3.085455   -0.157922   -0.331962
     13          6           0       -3.648894   -1.355502    0.423278
     14          8           0       -3.715066    1.071339    0.034463
     15          1           0        3.338267    2.142942   -0.719622
     16          1           0        3.236588    2.100431    1.028875
     17          1           0        4.519221    1.182458    0.203400
     18          1           0        4.008294   -1.357525    0.112949
     19          1           0       -1.738344    1.983820   -0.145084
     20          1           0       -3.299855   -0.267272   -1.402227
     21          1           0       -3.477985   -1.243585    1.501487
     22          1           0       -4.723873   -1.437475    0.239959
     23          1           0       -3.149775   -2.272837    0.104973
     24          1           0       -3.798477    1.078802    1.002450
 ---------------------------------------------------------------------

 SCF Done:  E(UB3LYP) =  -1007.39915691     A.U. after   31 cycles

 The electronic state is 2-A.
 Alpha  occ. eigenvalues --  -88.74190 -19.02124 -18.96378 -14.22300 -14.17649
 Alpha  occ. eigenvalues --  -10.15154 -10.11831 -10.10584 -10.09793 -10.06505
 Alpha  occ. eigenvalues --  -10.06407 -10.05790 -10.05104 -10.04205  -7.82867
 Alpha  occ. eigenvalues --   -5.79160  -5.78823  -5.78439  -0.92772  -0.91536
 Alpha  occ. eigenvalues --   -0.85305  -0.77580  -0.73972  -0.65881  -0.64431
 Alpha  occ. eigenvalues --   -0.61845  -0.56462  -0.54191  -0.50319  -0.48925
 Alpha  occ. eigenvalues --   -0.44441  -0.40861  -0.39932  -0.38291  -0.36059
 Alpha  occ. eigenvalues --   -0.34284  -0.32506  -0.31587  -0.31104  -0.30156
 Alpha  occ. eigenvalues --   -0.29696  -0.27615  -0.27284  -0.26666  -0.26109
 Alpha  occ. eigenvalues --   -0.25485  -0.23666  -0.22524  -0.21751  -0.18901
 Alpha  occ. eigenvalues --   -0.16438  -0.14925  -0.13928  -0.12960  -0.09270
 Alpha  occ. eigenvalues --    0.04338
 Alpha virt. eigenvalues --    0.07591   0.08090   0.08935   0.09877   0.10069
 Alpha virt. eigenvalues --    0.11078   0.11201   0.12047   0.12461   0.12856
 Alpha virt. eigenvalues --    0.13642   0.13921   0.14492   0.14953   0.15580

  Beta  occ. eigenvalues --  -88.74155 -19.02077 -18.96394 -14.22111 -14.17712
  Beta  occ. eigenvalues --  -10.15176 -10.11855 -10.10155 -10.09571 -10.06554
  Beta  occ. eigenvalues --  -10.06245 -10.05787 -10.05044 -10.04077  -7.82836
  Beta  occ. eigenvalues --   -5.79148  -5.78810  -5.78317  -0.92634  -0.91491
  Beta  occ. eigenvalues --   -0.84977  -0.77273  -0.73801  -0.65648  -0.64323
  Beta  occ. eigenvalues --   -0.61639  -0.56183  -0.53964  -0.50157  -0.48619
  Beta  occ. eigenvalues --   -0.44228  -0.40716  -0.39762  -0.38140  -0.35704
  Beta  occ. eigenvalues --   -0.34184  -0.32096  -0.31558  -0.31032  -0.29950
  Beta  occ. eigenvalues --   -0.29625  -0.27516  -0.27148  -0.26568  -0.26023
  Beta  occ. eigenvalues --   -0.24969  -0.23264  -0.22360  -0.21257  -0.18775
  Beta  occ. eigenvalues --   -0.15654  -0.14867  -0.13879  -0.12350  -0.08320
  Beta virt. eigenvalues --    0.07646   0.08066   0.09547   0.09847   0.10008
  Beta virt. eigenvalues --    0.10373   0.11239   0.11381   0.12106   0.12546
  Beta virt. eigenvalues --    0.12984   0.13647   0.13963   0.14843   0.15348

 Mulliken charges and spin densities:
               1          2
     1  C   -0.657182   0.014005
     2  C    0.401691  -0.016087
     3  C   -0.726739   0.069544
     4  S   -0.474621   0.075037
     5  C    0.216859  -0.033416
     6  C    0.655522   0.058831
     7  C   -0.154874  -0.037919
     8  O   -0.401770  -0.000339
     9  N   -0.272697   0.077654
    10  C    1.118799  -0.920848
    11  N   -0.004457   0.017461
    12  C   -1.341724   1.226908
    13  C    0.493866  -1.021424
    14  O   -0.217742  -0.038065
    15  H    0.164517  -0.000122
    16  H    0.165558   0.000774
    17  H    0.103266  -0.000910
    18  H    0.198960  -0.010178
    19  H    0.297412   0.050239
    20  H   -0.141769   0.367864
    21  H   -0.194309   0.344057
    22  H   -0.364489   0.515877
    23  H    0.105230   0.047633
    24  H    0.030694   0.213423
 Sum of Mulliken charges =  -1.00000   1.00000

 Dipole moment (field-independent basis, Debye):
    X=              4.3920    Y=             -0.7276    Z=              0.0881  Tot=              4.4528
 Quadrupole moment (field-independent basis, Debye-Ang):
   XX=           -138.6008   YY=           -122.1790   ZZ=           -102.6495
   XY=             -3.1337   XZ=             -0.6003   YZ=              0.3556

 Summary of Natural Population Analysis:

                                       Natural Population
                Natural  -----------------------------------------------
    Atom  No    Charge         Core      Valence    Rydberg      Total
 -----------------------------------------------------------------------
      C    1   -0.28743      0.99963     2.28319    0.00461     3.28743
      C    2   -0.03847      0.99947     2.02995    0.00905     3.03847
      C    3   -0.16857      0.99946     2.15895    0.01017     3.16857
      S    4    0.19367      4.99944     2.78539    0.02149     7.80633
      C    5    0.06756      0.99944     1.91375    0.01925     2.93244
      C    6   -0.10103      0.99935     2.09215    0.00953     3.10103
      C    7    0.32725      0.99959     1.65125    0.02192     2.67275
      O    8   -0.33934      0.99988     3.33365    0.00582     4.33934
      N    9   -0.27752      0.99963     2.76985    0.00804     3.77752
      C   10    0.29734      0.99959     1.68636    0.01672     2.70266
      N   11   -0.29223      0.99962     2.78210    0.01050     3.79223
      C   12    0.04335      0.99956     1.94243    0.01466     2.95665
      C   13   -0.29526      0.99965     2.28973    0.00588     3.29526
      O   14   -0.37492      0.99990     3.36796    0.00706     4.37492
      H   15    0.10610      0.00000     0.39280    0.00110     0.39390
      H   16    0.10641      0.00000     0.39250    0.00109     0.39359
      H   17    0.09205      0.00000     0.40698    0.00096     0.40795
      H   18    0.09778      0.00000     0.40134    0.00088     0.40222
      H   19    0.20577      0.00000     0.29136    0.00287     0.29423
      H   20    0.09740      0.00000     0.40081    0.00179     0.40260
      H   21    0.09772      0.00000     0.40100    0.00128     0.40228
      H   22    0.09919      0.00000     0.39935    0.00147     0.40081
      H   23    0.11324      0.00000     0.38520    0.00156     0.38676
      H   24    0.22994      0.00000     0.26573    0.00433     0.27006
 =======================================================================
   * Total *    0.00000     17.99421    36.82377    0.18202    55.00000

 Normal termination of Gaussian 16 at Thu Dec 10 10:59:20 2020.
