 Gaussian 16, Revision A.03,

 -----------------------------------------------------------
 # opt freq B3LYP/6-31G(d) empiricaldispersion=gd3bj scf=xqc
 -----------------------------------------------------------

 ------------------------------
 CID_82161623_JID_4717_neutraal
 ------------------------------
 Symbolic Z-matrix:
 Charge =  0 Multiplicity = 1

 SCF Done:  E(RB3LYP) =  -617.403218725     A.U. after   15 cycles
 SCF Done:  E(RB3LYP) =  -617.408834808     A.U. after   13 cycles
 SCF Done:  E(RB3LYP) =  -617.408431898     A.U. after   12 cycles
 SCF Done:  E(RB3LYP) =  -617.409568966     A.U. after   12 cycles
 SCF Done:  E(RB3LYP) =  -617.409617422     A.U. after   13 cycles
 SCF Done:  E(RB3LYP) =  -617.409900452     A.U. after   12 cycles
 SCF Done:  E(RB3LYP) =  -617.409977732     A.U. after   11 cycles
 SCF Done:  E(RB3LYP) =  -617.409990671     A.U. after   10 cycles
 SCF Done:  E(RB3LYP) =  -617.409996002     A.U. after   10 cycles
 SCF Done:  E(RB3LYP) =  -617.409998395     A.U. after    9 cycles
 SCF Done:  E(RB3LYP) =  -617.410534214     A.U. after   11 cycles
 SCF Done:  E(RB3LYP) =  -617.410544207     A.U. after   10 cycles
 SCF Done:  E(RB3LYP) =  -617.410545580     A.U. after    8 cycles
 SCF Done:  E(RB3LYP) =  -617.410545629     A.U. after    8 cycles
 SCF Done:  E(RB3LYP) =  -617.410545620     A.U. after    7 cycles
 Optimization completed.
    -- Stationary point found.
 Normal termination of Gaussian 16 at Thu Dec 10 10:34:27 2020.

 --------------------------------------------------------------------
 #N Geom=AllCheck Guess=TCheck SCRF=Check GenChk RB3LYP/6-31G(d) Freq
 --------------------------------------------------------------------

 Structure from the checkpoint file:  "JID_4717.chk"
 ------------------------------
 CID_82161623_JID_4717_neutraal
 ------------------------------
 Charge =  0 Multiplicity = 1

 SCF Done:  E(RB3LYP) =  -617.410545620     A.U. after    1 cycles

  Exact polarizability: 132.906  12.324 145.502 -14.923   6.386  97.338
 Approx polarizability: 187.395  27.746 220.470 -34.577  16.700 157.563

                      1                      2                      3
                      A                      A                      A
 Frequencies --     42.2516                49.1798                55.5879
 Red. masses --      2.3560                 3.6359                 3.1066
 Frc consts  --      0.0025                 0.0052                 0.0057
 IR Inten    --      0.0521                 0.6278                 1.5559

                      4                      5                      6
                      A                      A                      A
 Frequencies --     74.2319                97.3927               113.6696
 Red. masses --      4.1221                 3.0918                 4.4186
 Frc consts  --      0.0134                 0.0173                 0.0336
 IR Inten    --      3.8657                 0.6955                 0.3266

                      7                      8                      9
                      A                      A                      A
 Frequencies --    133.8093               192.3867               225.6134
 Red. masses --      2.6556                 3.3452                 1.2861
 Frc consts  --      0.0280                 0.0729                 0.0386
 IR Inten    --      0.7660                 3.3293                 1.0595

                     10                     11                     12
                      A                      A                      A
 Frequencies --    255.4151               270.1542               294.2258
 Red. masses --      1.3218                 3.0075                 2.0360
 Frc consts  --      0.0508                 0.1293                 0.1038
 IR Inten    --      0.6340                 0.1517                 2.4185

                     13                     14                     15
                      A                      A                      A
 Frequencies --    335.8731               368.1971               411.7848
 Red. masses --      2.6942                 4.5499                 3.0588
 Frc consts  --      0.1791                 0.3634                 0.3056
 IR Inten    --      5.5938                 1.5979                 2.0166

                     16                     17                     18
                      A                      A                      A
 Frequencies --    452.8965               489.3455               507.2075
 Red. masses --      3.4265                 2.9580                 4.5754
 Frc consts  --      0.4141                 0.4173                 0.6935
 IR Inten    --      5.2952                 7.7505                18.1263

                     19                     20                     21
                      A                      A                      A
 Frequencies --    552.2245               566.2503               596.9559
 Red. masses --      4.6262                 2.9358                 3.5072
 Frc consts  --      0.8312                 0.5546                 0.7364
 IR Inten    --      0.7258                 4.3142                 2.7729

                     22                     23                     24
                      A                      A                      A
 Frequencies --    637.6329               721.2286               761.2880
 Red. masses --      4.0001                 3.7614                 1.8105
 Frc consts  --      0.9582                 1.1528                 0.6182
 IR Inten    --      1.0852                 5.3284                 9.5567

                     25                     26                     27
                      A                      A                      A
 Frequencies --    766.7130               784.3489               813.2176
 Red. masses --      3.1704                 1.5209                 1.3538
 Frc consts  --      1.0981                 0.5513                 0.5275
 IR Inten    --      2.4044                23.3842                 3.6368

                     28                     29                     30
                      A                      A                      A
 Frequencies --    824.1752               861.7130               881.5683
 Red. masses --      1.4089                 3.2037                 1.4410
 Frc consts  --      0.5638                 1.4016                 0.6598
 IR Inten    --      4.9820                 7.0403                 0.3977

                     31                     32                     33
                      A                      A                      A
 Frequencies --    919.3551               929.1748               949.7589
 Red. masses --      2.6185                 1.8573                 1.3935
 Frc consts  --      1.3040                 0.9448                 0.7406
 IR Inten    --     10.6333                15.6762                 0.4180

                     34                     35                     36
                      A                      A                      A
 Frequencies --    980.7927               995.4143              1056.1492
 Red. masses --      1.2513                 2.0732                 4.0368
 Frc consts  --      0.7092                 1.2103                 2.6530
 IR Inten    --      0.0357                 8.4657                71.5460

                     37                     38                     39
                      A                      A                      A
 Frequencies --   1071.7876              1079.4701              1090.2360
 Red. masses --      2.1759                 2.1710                 1.6661
 Frc consts  --      1.4727                 1.4905                 1.1668
 IR Inten    --     16.6082                11.2483                 6.7587

                     40                     41                     42
                      A                      A                      A
 Frequencies --   1120.1375              1135.9619              1189.7239
 Red. masses --      1.9427                 1.9284                 1.1559
 Frc consts  --      1.4361                 1.4661                 0.9640
 IR Inten    --     16.1980                33.5971                 1.2495

                     43                     44                     45
                      A                      A                      A
 Frequencies --   1194.8050              1200.2098              1216.2933
 Red. masses --      1.4090                 1.6432                 2.2304
 Frc consts  --      1.1851                 1.3946                 1.9441
 IR Inten    --     10.4514                 1.8895                17.9302

                     46                     47                     48
                      A                      A                      A
 Frequencies --   1242.9594              1270.6590              1294.1468
 Red. masses --      1.8872                 2.7449                 1.3984
 Frc consts  --      1.7178                 2.6111                 1.3799
 IR Inten    --     29.1873               129.3155                 4.2340

                     49                     50                     51
                      A                      A                      A
 Frequencies --   1299.9948              1334.3136              1345.3655
 Red. masses --      1.3459                 2.4028                 1.2036
 Frc consts  --      1.3401                 2.5205                 1.2835
 IR Inten    --     27.9469                 4.1766                17.6068

                     52                     53                     54
                      A                      A                      A
 Frequencies --   1356.8810              1364.2687              1416.7578
 Red. masses --      1.7377                 2.3256                 1.2396
 Frc consts  --      1.8850                 2.5503                 1.4660
 IR Inten    --      2.3593                10.5626                 3.3820

                     55                     56                     57
                      A                      A                      A
 Frequencies --   1439.6374              1441.4712              1492.1771
 Red. masses --      1.2233                 1.2949                 1.1988
 Frc consts  --      1.4938                 1.5853                 1.5727
 IR Inten    --      7.1327                20.6929                 4.6824

                     58                     59                     60
                      A                      A                      A
 Frequencies --   1500.6352              1503.6981              1516.5577
 Red. masses --      1.7630                 1.1532                 1.0805
 Frc consts  --      2.3391                 1.5363                 1.4642
 IR Inten    --      8.1733                18.3782                 8.1106

                     61                     62                     63
                      A                      A                      A
 Frequencies --   1517.9886              1533.5158              1534.9733
 Red. masses --      1.0953                 1.0638                 1.3415
 Frc consts  --      1.4871                 1.4740                 1.8622
 IR Inten    --      4.0178                 8.2396                14.8834

                     64                     65                     66
                      A                      A                      A
 Frequencies --   1539.6171              1544.9589              1637.8233
 Red. masses --      1.0527                 1.5627                 6.0322
 Frc consts  --      1.4703                 2.1977                 9.5337
 IR Inten    --      2.2594                38.2206                 5.3688

                     67                     68                     69
                      A                      A                      A
 Frequencies --   1661.2156              1807.2652              3050.0807
 Red. masses --      6.1929                11.0628                 1.0601
 Frc consts  --     10.0693                21.2892                 5.8106
 IR Inten    --      3.3746               184.8888                 5.6921

                     70                     71                     72
                      A                      A                      A
 Frequencies --   3055.0571              3055.1202              3064.1506
 Red. masses --      1.0357                 1.0381                 1.0664
 Frc consts  --      5.6955                 5.7087                 5.8990
 IR Inten    --     31.5693                11.5242                24.6162

                     73                     74                     75
                      A                      A                      A
 Frequencies --   3069.9862              3097.8680              3112.7522
 Red. masses --      1.0609                 1.0987                 1.1006
 Frc consts  --      5.8910                 6.2121                 6.2833
 IR Inten    --      9.3506                15.4318                 5.5054

                     76                     77                     78
                      A                      A                      A
 Frequencies --   3120.5355              3123.3296              3127.3846
 Red. masses --      1.1020                 1.1030                 1.0999
 Frc consts  --      6.3227                 6.3396                 6.3383
 IR Inten    --      7.5760                19.7205                23.5447

                     79                     80                     81
                      A                      A                      A
 Frequencies --   3136.4206              3145.1333              3178.1981
 Red. masses --      1.1022                 1.1040                 1.0875
 Frc consts  --      6.3880                 6.4342                 6.4723
 IR Inten    --     41.9987                44.2083                 7.9065

                     82                     83                     84
                      A                      A                      A
 Frequencies --   3193.0034              3208.2164              3219.4226
 Red. masses --      1.0883                 1.0936                 1.0957
 Frc consts  --      6.5372                 6.6320                 6.6908
 IR Inten    --      9.0923                25.9247                10.3555

 - Thermochemistry -
 -------------------
 Temperature   298.150 Kelvin.  Pressure   1.00000 Atm.
 Atom     1 has atomic number  6 and mass  12.00000

 Molecular mass:   192.11503 amu.
 Principal axes and moments of inertia in atomic units:
                           1         2         3
     Eigenvalues --  2253.176892783.507284254.86968
           X            0.98441  -0.17565   0.00879
           Y            0.17568   0.98444  -0.00318
           Z           -0.00810   0.00467   0.99996
 This molecule is an asymmetric top.
 Rotational symmetry number  1.
 Warning -- assumption of classical behavior for rotation
           may cause significant error
 Rotational temperatures (Kelvin)      0.03844     0.03112     0.02036
 Rotational constants (GHZ):           0.80098     0.64837     0.42416
 Zero-point vibrational energy     674809.6 (Joules/Mol)
                                  161.28336 (Kcal/Mol)
 Warning -- explicit consideration of  21 degrees of freedom as
           vibrations may cause significant error
 Vibrational temperatures:     60.79    70.76    79.98   106.80   140.13
          (Kelvin)            163.55   192.52   276.80   324.61   367.49
                              388.69   423.33   483.25   529.75   592.47
                              651.62   704.06   729.76   794.53   814.71
                              858.89   917.41  1037.69  1095.32  1103.13
                             1128.50  1170.04  1185.80  1239.81  1268.38
                             1322.75  1336.88  1366.49  1411.14  1432.18
                             1519.56  1542.06  1553.12  1568.61  1611.63
                             1634.40  1711.75  1719.06  1726.83  1749.97
                             1788.34  1828.19  1861.99  1870.40  1919.78
                             1935.68  1952.25  1962.88  2038.40  2071.32
                             2073.96  2146.91  2159.08  2163.49  2181.99
                             2184.05  2206.39  2208.48  2215.17  2222.85
                             2356.46  2390.12  2600.25  4388.39  4395.55
                             4395.64  4408.63  4417.03  4457.14  4478.56
                             4489.75  4493.77  4499.61  4512.61  4525.15
                             4572.72  4594.02  4615.91  4632.03

 Zero-point correction=                           0.257021 (Hartree/Particle)
 Thermal correction to Energy=                    0.271357
 Thermal correction to Enthalpy=                  0.272301
 Thermal correction to Gibbs Free Energy=         0.214887
 Sum of electronic and zero-point Energies=           -617.153524
 Sum of electronic and thermal Energies=              -617.139188
 Sum of electronic and thermal Enthalpies=            -617.138244
 Sum of electronic and thermal Free Energies=         -617.195658

                     E (Thermal)             CV                S
                      KCal/Mol        Cal/Mol-Kelvin    Cal/Mol-Kelvin
 Total                  170.279             53.244            120.838
 Electronic               0.000              0.000              0.000
 Translational            0.889              2.981             41.664
 Rotational               0.889              2.981             31.657
 Vibrational            168.502             47.282             47.517
 Vibration     1          0.595              1.980              5.151
 Vibration     2          0.595              1.978              4.850
 Vibration     3          0.596              1.975              4.608
 Vibration     4          0.599              1.966              4.038
 Vibration     5          0.603              1.951              3.506
 Vibration     6          0.607              1.938              3.205
 Vibration     7          0.613              1.920              2.891
 Vibration     8          0.634              1.850              2.205
 Vibration     9          0.650              1.802              1.914
 Vibration    10          0.666              1.754              1.693
 Vibration    11          0.674              1.728              1.595
 Vibration    12          0.689              1.684              1.450
 Vibration    13          0.717              1.604              1.232
 Vibration    14          0.741              1.538              1.087
 Vibration    15          0.776              1.445              0.920
 Vibration    16          0.811              1.354              0.787
 Vibration    17          0.845              1.274              0.685
 Vibration    18          0.862              1.234              0.640
 Vibration    19          0.908              1.135              0.540
 Vibration    20          0.922              1.104              0.511
 Vibration    21          0.955              1.038              0.455

 Optimization completed.
    -- Stationary point found.
 Normal termination of Gaussian 16 at Thu Dec 10 10:43:18 2020.

 ----------------------------------------------------------------------
 # B3LYP/6-311++G(d,p) empiricaldispersion=gd3bj scf=xqc pop=npa geom=c
 heck
 ----------------------------------------------------------------------

 --------------------------------------
 CID_82161623_JID_4717_Energie_neutraal
 --------------------------------------
 Structure from the checkpoint file:  "JID_4717.chk"
 Charge =  0 Multiplicity = 1

 SCF Done:  E(RB3LYP) =  -617.581997478     A.U. after   15 cycles
 Normal termination of Gaussian 16 at Thu Dec 10 10:46:58 2020.

 ----------------------------------------------------------------------
 # B3LYP/6-311++G(d,p) empiricaldispersion=gd3bj scf=xqc pop=npa geom=c
 heck
 ----------------------------------------------------------------------

 ------------------------------------
 CID_82161623_JID_4717_Energie_kation
 ------------------------------------
 Structure from the checkpoint file:  "JID_4717.chk"
 Charge =  1 Multiplicity = 2

 SCF Done:  E(UB3LYP) =  -617.273961672     A.U. after   24 cycles
 Normal termination of Gaussian 16 at Thu Dec 10 10:55:07 2020.
 Gaussian 16:  ES64L-G16RevA.03 25-Dec-2016

 ----------------------------------------------------------------------
 # B3LYP/6-311++G(d,p) empiricaldispersion=gd3bj scf=xqc pop=npa geom=c
 heck
 ----------------------------------------------------------------------

 -----------------------------------
 CID_82161623_JID_4717_Energie_anion
 -----------------------------------
 Structure from the checkpoint file:  "JID_4717.chk"
 Charge = -1 Multiplicity = 2

                         Standard orientation:
 ---------------------------------------------------------------------
 Center     Atomic      Atomic             Coordinates (Angstroms)
 Number     Number       Type             X           Y           Z
 ---------------------------------------------------------------------
      1          6           0       -2.883167    1.536540   -0.844161
      2          6           0       -2.392317    0.094392   -1.036447
      3          6           0       -2.021447   -0.612582    0.257614
      4          8           0       -2.463355   -1.710648    0.539420
      5          6           0       -1.109236    0.127037    1.244773
      6          6           0        0.138094    0.739083    0.648514
      7          6           0        0.541091    2.036789    0.980666
      8          6           0        1.690271    2.605008    0.430121
      9          6           0        2.455117    1.876184   -0.480274
     10          6           0        2.070382    0.581673   -0.828863
     11          6           0        0.927123    0.016620   -0.263242
     12          8           0        0.516633   -1.233367   -0.677058
     13          6           0        0.841666   -2.330813    0.198360
     14          6           0        2.280376   -2.790119    0.018502
     15          1           0       -3.746323    1.578781   -0.169978
     16          1           0       -3.190528    1.962778   -1.804514
     17          1           0       -2.095564    2.177112   -0.435189
     18          1           0       -3.153075   -0.520814   -1.525675
     19          1           0       -1.504001    0.091165   -1.679333
     20          1           0       -1.702913    0.924577    1.710309
     21          1           0       -0.872259   -0.589553    2.038161
     22          1           0       -0.062308    2.610272    1.680335
     23          1           0        1.979623    3.615164    0.704312
     24          1           0        3.345724    2.313161   -0.922589
     25          1           0        2.635105   -0.002458   -1.548103
     26          1           0        0.651987   -2.043076    1.239040
     27          1           0        0.129702   -3.116169   -0.065389
     28          1           0        2.982826   -1.994296    0.287459
     29          1           0        2.483470   -3.655098    0.660367
     30          1           0        2.464593   -3.078294   -1.021488
 ---------------------------------------------------------------------

 SCF Done:  E(UB3LYP) =  -617.565006835     A.U. after   33 cycles
 SCF Done:  E(UB3LYP) =  -617.567312639     a.u. after    9 cycles

 The electronic state is 2-A.
 Alpha  occ. eigenvalues --  -19.04272 -19.01123 -10.15989 -10.12968 -10.12809
 Alpha  occ. eigenvalues --  -10.08713 -10.08371 -10.08025 -10.07736 -10.07540
 Alpha  occ. eigenvalues --  -10.07538 -10.07484 -10.07225 -10.06917  -0.95956
 Alpha  occ. eigenvalues --   -0.94375  -0.76106  -0.70217  -0.67529  -0.67242
 Alpha  occ. eigenvalues --   -0.63614  -0.60745  -0.55646  -0.54089  -0.51206
 Alpha  occ. eigenvalues --   -0.48654  -0.43838  -0.42100  -0.39346  -0.39019
 Alpha  occ. eigenvalues --   -0.38588  -0.36809  -0.35870  -0.34715  -0.33420
 Alpha  occ. eigenvalues --   -0.32694  -0.31758  -0.31420  -0.30244  -0.29911
 Alpha  occ. eigenvalues --   -0.29247  -0.28013  -0.26848  -0.26599  -0.26123
 Alpha  occ. eigenvalues --   -0.25577  -0.24675  -0.23368  -0.18505  -0.16100
 Alpha  occ. eigenvalues --   -0.15020  -0.14152   0.04523
 Alpha virt. eigenvalues --    0.06377   0.06510   0.06989   0.07931   0.08239
 Alpha virt. eigenvalues --    0.08449   0.09068   0.09317   0.09718   0.10068
 Alpha virt. eigenvalues --    0.10828   0.11466   0.11909   0.12153   0.12710

  Beta  occ. eigenvalues --  -19.04273 -19.01090 -10.15934 -10.12965 -10.12799
  Beta  occ. eigenvalues --  -10.08684 -10.08363 -10.08026 -10.07721 -10.07521
  Beta  occ. eigenvalues --  -10.07510 -10.07450 -10.07209 -10.06885  -0.95948
  Beta  occ. eigenvalues --   -0.94304  -0.76052  -0.70161  -0.67493  -0.67205
  Beta  occ. eigenvalues --   -0.63565  -0.60673  -0.55593  -0.54037  -0.51139
  Beta  occ. eigenvalues --   -0.48587  -0.43765  -0.42044  -0.39290  -0.38970
  Beta  occ. eigenvalues --   -0.38554  -0.36778  -0.35822  -0.34637  -0.33364
  Beta  occ. eigenvalues --   -0.32645  -0.31688  -0.31381  -0.30197  -0.29875
  Beta  occ. eigenvalues --   -0.29207  -0.27969  -0.26804  -0.26543  -0.26054
  Beta  occ. eigenvalues --   -0.25532  -0.24565  -0.23330  -0.18483  -0.16005
  Beta  occ. eigenvalues --   -0.14974  -0.14071
  Beta virt. eigenvalues --    0.06535   0.06838   0.07347   0.07829   0.08405
  Beta virt. eigenvalues --    0.08495   0.08755   0.09665   0.09723   0.09899
  Beta virt. eigenvalues --    0.10353   0.11020   0.12002   0.12295   0.12434

 Mulliken charges and spin densities:
               1          2
     1  C   -0.095658  -0.592334
     2  C   -0.210779   0.260647
     3  C   -0.285345   0.149657
     4  O   -0.251840   0.016747
     5  C    2.066335  -2.286360
     6  C   -0.744189   1.301888
     7  C   -0.050895  -0.319646
     8  C    1.092757  -1.560305
     9  C    1.853298  -2.072182
    10  C   -0.768539   0.792513
    11  C   -1.477950   1.171750
    12  O   -0.042790  -0.001649
    13  C   -0.423600   0.453147
    14  C    0.559058  -1.210301
    15  H   -0.041236   0.190163
    16  H    0.032805   0.100622
    17  H    0.233968  -0.061801
    18  H    0.150106   0.022454
    19  H    0.176280   0.002688
    20  H   -0.141172   0.329043
    21  H   -0.026299   0.248571
    22  H   -0.872029   1.046314
    23  H   -0.856965   1.041593
    24  H   -0.582404   0.758185
    25  H   -0.147143   0.326949
    26  H    0.170567  -0.040470
    27  H    0.080313   0.087899
    28  H   -0.035761   0.189993
    29  H   -0.322144   0.454723
    30  H   -0.038752   0.199502
 Sum of Mulliken charges =  -1.00000   1.00000

 Dipole moment (field-independent basis, Debye):
    X=             -3.6770    Y=             -3.5210    Z=             -3.0457  Tot=              5.9325
 Quadrupole moment (field-independent basis, Debye-Ang):
   XX=           -142.5792   YY=           -151.7891   ZZ=           -118.4747
   XY=            -10.1636   XZ=              5.2960   YZ=             -5.9464

 Summary of Natural Population Analysis:

                                       Natural Population
                Natural  -----------------------------------------------
    Atom  No    Charge         Core      Valence    Rydberg      Total
 -----------------------------------------------------------------------
      C    1   -0.28679      0.99966     2.28225    0.00488     3.28679
      C    2   -0.23943      0.99958     2.23218    0.00768     3.23943
      C    3    0.31007      0.99966     1.66678    0.02349     2.68993
      O    4   -0.29054      0.99987     3.28392    0.00674     4.29054
      C    5   -0.24824      0.99955     2.23769    0.01100     3.24824
      C    6   -0.03747      0.99945     2.02642    0.01161     3.03747
      C    7   -0.09102      0.99951     2.08052    0.01099     3.09102
      C    8   -0.10153      0.99956     2.09144    0.01054     3.10153
      C    9   -0.09151      0.99956     2.08162    0.01033     3.09151
      C   10   -0.11578      0.99950     2.10608    0.01020     3.11578
      C   11    0.14948      0.99931     1.83625    0.01496     2.85052
      O   12   -0.29696      0.99986     3.28770    0.00940     4.29696
      C   13   -0.00838      0.99957     1.99724    0.01157     3.00838
      C   14   -0.30047      0.99967     2.29587    0.00494     3.30047
      H   15    0.09620      0.00000     0.40287    0.00093     0.40380
      H   16    0.09882      0.00000     0.40048    0.00070     0.40118
      H   17    0.10485      0.00000     0.39400    0.00115     0.39515
      H   18    0.10376      0.00000     0.39509    0.00115     0.39624
      H   19    0.11582      0.00000     0.38292    0.00126     0.38418
      H   20    0.11729      0.00000     0.38097    0.00174     0.38271
      H   21    0.11492      0.00000     0.38357    0.00151     0.38508
      H   22    0.10377      0.00000     0.39332    0.00291     0.39623
      H   23    0.10506      0.00000     0.39198    0.00296     0.39494
      H   24    0.10300      0.00000     0.39507    0.00193     0.39700
      H   25    0.10541      0.00000     0.39301    0.00158     0.39459
      H   26    0.08372      0.00000     0.41493    0.00136     0.41628
      H   27    0.09236      0.00000     0.40658    0.00106     0.40764
      H   28    0.10330      0.00000     0.39544    0.00126     0.39670
      H   29    0.10109      0.00000     0.39782    0.00109     0.39891
      H   30    0.09922      0.00000     0.39965    0.00113     0.40078
 =======================================================================
   * Total *   -0.00000     13.99431    37.83367    0.17202    52.00000

 Normal termination of Gaussian 16 at Thu Dec 10 11:59:29 2020.
