 Gaussian 16, Revision A.03,

 -----------------------------------------------------------
 # opt freq B3LYP/6-31G(d) empiricaldispersion=gd3bj scf=xqc
 -----------------------------------------------------------

 -------------------------------
 CID_141517912_JID_3489_neutraal
 -------------------------------
 Symbolic Z-matrix:
 Charge =  0 Multiplicity = 1

 SCF Done:  E(RB3LYP) =  -555.673648607     A.U. after   17 cycles
 SCF Done:  E(RB3LYP) =  -555.695631939     A.U. after   13 cycles
 SCF Done:  E(RB3LYP) =  -555.699802991     A.U. after   13 cycles
 SCF Done:  E(RB3LYP) =  -555.699324162     A.U. after   13 cycles
 SCF Done:  E(RB3LYP) =  -555.700811957     A.U. after   12 cycles
 SCF Done:  E(RB3LYP) =  -555.700898407     A.U. after   12 cycles
 SCF Done:  E(RB3LYP) =  -555.700995311     A.U. after   11 cycles
 SCF Done:  E(RB3LYP) =  -555.701083453     A.U. after   11 cycles
 SCF Done:  E(RB3LYP) =  -555.701153333     A.U. after   11 cycles
 SCF Done:  E(RB3LYP) =  -555.701238017     A.U. after   11 cycles
 SCF Done:  E(RB3LYP) =  -555.701250645     A.U. after   10 cycles
 SCF Done:  E(RB3LYP) =  -555.701254299     A.U. after    9 cycles
 SCF Done:  E(RB3LYP) =  -555.701256856     A.U. after    9 cycles
 SCF Done:  E(RB3LYP) =  -555.701257215     A.U. after    8 cycles
 SCF Done:  E(RB3LYP) =  -555.701257380     A.U. after    8 cycles
 Optimization completed.
    -- Stationary point found.
 Normal termination of Gaussian 16 at Wed Dec  9 23:25:53 2020.

 --------------------------------------------------------------------
 #N Geom=AllCheck Guess=TCheck SCRF=Check GenChk RB3LYP/6-31G(d) Freq
 --------------------------------------------------------------------

 Structure from the checkpoint file:  "JID_3489.chk"
 -------------------------------
 CID_141517912_JID_3489_neutraal
 -------------------------------
 Charge =  0 Multiplicity = 1

 SCF Done:  E(RB3LYP) =  -555.701257380     A.U. after    1 cycles

  Exact polarizability: 149.045  -3.912 135.739   9.381   1.201  76.828
 Approx polarizability: 237.734 -20.816 250.931  16.583   7.624 139.585

                      1                      2                      3
                      A                      A                      A
 Frequencies --     68.4216               101.7064               121.9786
 Red. masses --      4.6283                 2.3564                 1.2513
 Frc consts  --      0.0128                 0.0144                 0.0110
 IR Inten    --      1.8591                 0.6001                 0.6714

                      4                      5                      6
                      A                      A                      A
 Frequencies --    136.5068               157.0434               254.9423
 Red. masses --      1.2971                 2.5169                 3.6104
 Frc consts  --      0.0142                 0.0366                 0.1383
 IR Inten    --      0.0918                 1.6043                 0.5897

                      7                      8                      9
                      A                      A                      A
 Frequencies --    314.5548               351.4977               365.2718
 Red. masses --      3.1240                 4.1651                 4.0115
 Frc consts  --      0.1821                 0.3032                 0.3153
 IR Inten    --      2.1170                 3.5925                 8.5093

                     10                     11                     12
                      A                      A                      A
 Frequencies --    402.5216               404.3734               423.8552
 Red. masses --      3.3770                 4.4729                 4.2069
 Frc consts  --      0.3224                 0.4309                 0.4453
 IR Inten    --      8.3890                 1.2847                 3.2077

                     13                     14                     15
                      A                      A                      A
 Frequencies --    492.0560               533.9373               545.4393
 Red. masses --      2.0709                 3.7085                 2.1709
 Frc consts  --      0.2954                 0.6229                 0.3805
 IR Inten    --     29.3914                 1.3870                34.0252

                     16                     17                     18
                      A                      A                      A
 Frequencies --    589.8171               601.0989               637.9422
 Red. masses --      3.4632                 5.0284                 5.5645
 Frc consts  --      0.7098                 1.0705                 1.3342
 IR Inten    --      4.7797                 2.2226                 0.2795

                     19                     20                     21
                      A                      A                      A
 Frequencies --    651.1581               663.7476               720.4173
 Red. masses --      5.2883                 3.6516                 2.1753
 Frc consts  --      1.3211                 0.9478                 0.6652
 IR Inten    --      4.5772                63.7832                54.2207

                     22                     23                     24
                      A                      A                      A
 Frequencies --    752.6496               762.1353               775.8423
 Red. masses --      4.9787                 1.5939                 2.4869
 Frc consts  --      1.6617                 0.5455                 0.8820
 IR Inten    --     18.8184                62.9719                14.6236

                     25                     26                     27
                      A                      A                      A
 Frequencies --    807.0916               915.3718               942.4731
 Red. masses --      3.2218                 2.2371                 1.4019
 Frc consts  --      1.2365                 1.1044                 0.7337
 IR Inten    --     17.5403                 3.4058                 1.5043

                     28                     29                     30
                      A                      A                      A
 Frequencies --    979.2694              1001.8671              1016.0354
 Red. masses --      1.7432                 3.3625                 1.8911
 Frc consts  --      0.9849                 1.9885                 1.1502
 IR Inten    --     28.5763                 4.3631                19.5796

                     31                     32                     33
                      A                      A                      A
 Frequencies --   1037.8688              1071.3862              1086.2757
 Red. masses --      1.4515                 1.5715                 1.9338
 Frc consts  --      0.9212                 1.0628                 1.3445
 IR Inten    --      4.5403                 1.6210                10.7470

                     34                     35                     36
                      A                      A                      A
 Frequencies --   1096.4458              1120.1279              1139.0149
 Red. masses --      1.7952                 1.7702                 3.1204
 Frc consts  --      1.2715                 1.3086                 2.3852
 IR Inten    --     10.9181                 4.4620                40.1108

                     37                     38                     39
                      A                      A                      A
 Frequencies --   1171.6025              1181.9443              1244.6643
 Red. masses --      1.4015                 2.9447                 2.3870
 Frc consts  --      1.1335                 2.4238                 2.1788
 IR Inten    --     12.8129                28.9833                22.5512

                     40                     41                     42
                      A                      A                      A
 Frequencies --   1300.6395              1321.9812              1331.6946
 Red. masses --      3.7069                 4.9746                 1.3387
 Frc consts  --      3.6947                 5.1222                 1.3988
 IR Inten    --     28.1311                16.7608                 2.4907

                     43                     44                     45
                      A                      A                      A
 Frequencies --   1400.1579              1433.3821              1444.3038
 Red. masses --      1.9719                 1.2588                 1.2079
 Frc consts  --      2.2777                 1.5238                 1.4846
 IR Inten    --     12.4985                 2.3359                 3.5458

                     46                     47                     48
                      A                      A                      A
 Frequencies --   1467.2250              1490.6099              1503.5839
 Red. masses --      2.2583                 1.3248                 1.1197
 Frc consts  --      2.8643                 1.7343                 1.4914
 IR Inten    --      9.9931                11.9565                14.0928

                     49                     50                     51
                      A                      A                      A
 Frequencies --   1508.0995              1519.9193              1534.7500
 Red. masses --      1.9716                 1.0760                 1.0578
 Frc consts  --      2.6420                 1.4645                 1.4680
 IR Inten    --      9.9231                 7.0860                 1.3839

                     52                     53                     54
                      A                      A                      A
 Frequencies --   1569.1589              1590.2766              1602.7782
 Red. masses --      3.1894                 5.2659                 5.5677
 Frc consts  --      4.6269                 7.8464                 8.4270
 IR Inten    --     28.8622                18.6907                 2.0047

                     55                     56                     57
                      A                      A                      A
 Frequencies --   1751.2774              3045.7638              3063.5793
 Red. masses --      9.9240                 1.0426                 1.0447
 Frc consts  --     17.9328                 5.6987                 5.7767
 IR Inten    --    306.6362                15.8246                17.8292

                     58                     59                     60
                      A                      A                      A
 Frequencies --   3108.3543              3125.6966              3137.4998
 Red. masses --      1.0925                 1.0920                 1.1032
 Frc consts  --      6.2189                 6.2856                 6.3986
 IR Inten    --     14.3634                 9.9507                14.5413

                     61                     62                     63
                      A                      A                      A
 Frequencies --   3165.4679              3187.0885              3198.8619
 Red. masses --      1.1010                 1.0855                 1.0897
 Frc consts  --      6.5003                 6.4961                 6.5700
 IR Inten    --     17.4245                 6.6358                16.6491

                     64                     65                     66
                      A                      A                      A
 Frequencies --   3199.7693              3210.7421              3567.6874
 Red. masses --      1.0902                 1.0955                 1.0761
 Frc consts  --      6.5762                 6.6539                 8.0698
 IR Inten    --      8.0967                15.9391                24.1245

 - Thermochemistry -
 -------------------
 Temperature   298.150 Kelvin.  Pressure   1.00000 Atm.
 Atom     1 has atomic number  6 and mass  12.00000

 Molecular mass:   173.08406 amu.
 Principal axes and moments of inertia in atomic units:
                           1         2         3
     Eigenvalues --  1511.630152032.934933185.92705
           X            0.99570   0.09206   0.01060
           Y           -0.09198   0.99573  -0.00774
           Z           -0.01126   0.00673   0.99991
 This molecule is an asymmetric top.
 Rotational symmetry number  1.
 Warning -- assumption of classical behavior for rotation
           may cause significant error
 Rotational temperatures (Kelvin)      0.05730     0.04261     0.02719
 Rotational constants (GHZ):           1.19390     0.88775     0.56647
 Zero-point vibrational energy     510929.3 (Joules/Mol)
                                  122.11502 (Kcal/Mol)
 Warning -- explicit consideration of  17 degrees of freedom as
           vibrations may cause significant error
 Vibrational temperatures:     98.44   146.33   175.50   196.40   225.95
          (Kelvin)            366.81   452.57   505.73   525.54   579.14
                              581.80   609.83   707.96   768.22   784.77
                              848.62   864.85   917.86   936.87   954.98
                             1036.52  1082.89  1096.54  1116.26  1161.22
                             1317.02  1356.01  1408.95  1441.46  1461.85
                             1493.26  1541.49  1562.91  1577.54  1611.61
                             1638.79  1685.67  1700.55  1790.79  1871.33
                             1902.04  1916.01  2014.51  2062.32  2078.03
                             2111.01  2144.66  2163.32  2169.82  2186.82
                             2208.16  2257.67  2288.05  2306.04  2519.70
                             4382.17  4407.81  4472.23  4497.18  4514.16
                             4554.40  4585.51  4602.45  4603.75  4619.54
                             5133.11

 Zero-point correction=                           0.194603 (Hartree/Particle)
 Thermal correction to Energy=                    0.205747
 Thermal correction to Enthalpy=                  0.206691
 Thermal correction to Gibbs Free Energy=         0.157981
 Sum of electronic and zero-point Energies=           -555.506655
 Sum of electronic and thermal Energies=              -555.495510
 Sum of electronic and thermal Enthalpies=            -555.494566
 Sum of electronic and thermal Free Energies=         -555.543276

                     E (Thermal)             CV                S
                      KCal/Mol        Cal/Mol-Kelvin    Cal/Mol-Kelvin
 Total                  129.108             44.261            102.520
 Electronic               0.000              0.000              0.000
 Translational            0.889              2.981             41.353
 Rotational               0.889              2.981             30.660
 Vibrational            127.331             38.299             30.506
 Vibration     1          0.598              1.969              4.198
 Vibration     2          0.604              1.948              3.421
 Vibration     3          0.609              1.931              3.069
 Vibration     4          0.614              1.917              2.852
 Vibration     5          0.621              1.895              2.585
 Vibration     6          0.665              1.754              1.696
 Vibration     7          0.702              1.646              1.338
 Vibration     8          0.728              1.572              1.159
 Vibration     9          0.738              1.544              1.100
 Vibration    10          0.768              1.465              0.953
 Vibration    11          0.770              1.461              0.947
 Vibration    12          0.786              1.418              0.879
 Vibration    13          0.848              1.268              0.678
 Vibration    14          0.889              1.175              0.578
 Vibration    15          0.901              1.150              0.554
 Vibration    16          0.947              1.053              0.468
 Vibration    17          0.959              1.029              0.448

                           ! Non-Optimized Parameters !
 Normal termination of Gaussian 16 at Wed Dec  9 23:31:53 2020.

 ----------------------------------------------------------------------
 # B3LYP/6-311++G(d,p) empiricaldispersion=gd3bj scf=xqc pop=npa geom=c
 heck
 ----------------------------------------------------------------------

 ---------------------------------------
 CID_141517912_JID_3489_Energie_neutraal
 ---------------------------------------
 Structure from the checkpoint file:  "JID_3489.chk"
 Charge =  0 Multiplicity = 1

 SCF Done:  E(RB3LYP) =  -555.852580519     A.U. after   17 cycles
 Normal termination of Gaussian 16 at Wed Dec  9 23:34:12 2020.

 ----------------------------------------------------------------------
 # B3LYP/6-311++G(d,p) empiricaldispersion=gd3bj scf=xqc pop=npa geom=c
 heck
 ----------------------------------------------------------------------

 -------------------------------------
 CID_141517912_JID_3489_Energie_kation
 -------------------------------------
 Structure from the checkpoint file:  "JID_3489.chk"
 Charge =  1 Multiplicity = 2

 SCF Done:  E(UB3LYP) =  -555.569031504     A.U. after   26 cycles
 Normal termination of Gaussian 16 at Wed Dec  9 23:38:54 2020.
 Gaussian 16:  ES64L-G16RevA.03 25-Dec-2016

 ----------------------------------------------------------------------
 # B3LYP/6-311++G(d,p) empiricaldispersion=gd3bj scf=xqc pop=npa geom=c
 heck
 ----------------------------------------------------------------------

 ------------------------------------
 CID_141517912_JID_3489_Energie_anion
 ------------------------------------
 Structure from the checkpoint file:  "JID_3489.chk"
 Charge = -1 Multiplicity = 2

                         Standard orientation:
 ---------------------------------------------------------------------
 Center     Atomic      Atomic             Coordinates (Angstroms)
 Number     Number       Type             X           Y           Z
 ---------------------------------------------------------------------
      1          6           0        1.146528    2.683436   -0.048710
      2          6           0        0.624229    1.290482    0.215330
      3          6           0        1.379802    0.148956    0.020744
      4          6           0        1.015614   -1.383142   -0.061501
      5          8           0        1.896184   -2.132718   -0.452449
      6          7           0       -0.230961   -1.995167    0.265486
      7          6           0       -1.339476   -1.147885    0.460682
      8          6           0       -2.422991   -0.913783   -0.409680
      9          6           0       -2.776168    0.421665   -0.645188
     10          6           0       -1.866581    1.437151   -0.295596
     11          6           0       -0.802354    1.096459    0.554871
     12          6           0       -0.869883   -0.115634    1.263788
     13          6           0        2.853091    0.296004   -0.303637
     14          1           0        1.735453    3.049021    0.802863
     15          1           0        0.309028    3.375574   -0.177121
     16          1           0        1.779453    2.740844   -0.938586
     17          1           0       -0.301073   -2.934104   -0.112574
     18          1           0       -2.871532   -1.715570   -0.988545
     19          1           0       -3.614716    0.645998   -1.298605
     20          1           0       -1.869870    2.374169   -0.845011
     21          1           0       -0.086277   -0.347440    1.976389
     22          1           0        3.057899    0.071690   -1.357193
     23          1           0        3.213543    1.301760   -0.084048
     24          1           0        3.444488   -0.416273    0.277003
 ---------------------------------------------------------------------

 SCF Done:  E(UB3LYP) =  -555.874071298     A.U. after   26 cycles

 The electronic state is 2-A.
 Alpha  occ. eigenvalues --  -18.93439 -14.19392 -10.12089 -10.05304 -10.04071
 Alpha  occ. eigenvalues --  -10.03469 -10.02819 -10.02296 -10.02036 -10.01883
 Alpha  occ. eigenvalues --  -10.01708 -10.01558  -9.99024  -0.89162  -0.78600
 Alpha  occ. eigenvalues --   -0.70383  -0.66161  -0.59905  -0.59215  -0.57413
 Alpha  occ. eigenvalues --   -0.51564  -0.47889  -0.45003  -0.43435  -0.38645
 Alpha  occ. eigenvalues --   -0.37376  -0.34701  -0.32265  -0.30827  -0.29940
 Alpha  occ. eigenvalues --   -0.29029  -0.27506  -0.27321  -0.26208  -0.25517
 Alpha  occ. eigenvalues --   -0.24604  -0.23750  -0.22563  -0.21857  -0.20226
 Alpha  occ. eigenvalues --   -0.18490  -0.12847  -0.11290  -0.11043  -0.08551
 Alpha  occ. eigenvalues --   -0.05516   0.03809
 Alpha virt. eigenvalues --    0.08793   0.09675   0.10556   0.11208   0.11717
 Alpha virt. eigenvalues --    0.11880   0.12118   0.13052   0.13816   0.13930
 Alpha virt. eigenvalues --    0.14496   0.14971   0.15429   0.17461   0.17702

  Beta  occ. eigenvalues --  -18.93211 -14.19406 -10.11961 -10.05379 -10.04085
  Beta  occ. eigenvalues --  -10.03280 -10.02572 -10.02239 -10.02057 -10.01887
  Beta  occ. eigenvalues --  -10.01579 -10.01495  -9.98371  -0.88794  -0.78422
  Beta  occ. eigenvalues --   -0.69997  -0.65853  -0.59494  -0.58843  -0.57226
  Beta  occ. eigenvalues --   -0.51307  -0.47416  -0.44743  -0.43062  -0.38297
  Beta  occ. eigenvalues --   -0.37138  -0.34362  -0.32061  -0.30604  -0.29624
  Beta  occ. eigenvalues --   -0.28794  -0.27205  -0.26981  -0.25966  -0.25393
  Beta  occ. eigenvalues --   -0.24260  -0.23440  -0.22313  -0.21547  -0.19798
  Beta  occ. eigenvalues --   -0.18099  -0.12549  -0.11025  -0.09776  -0.06481
  Beta  occ. eigenvalues --   -0.04975
  Beta virt. eigenvalues --    0.08734   0.09653   0.10251   0.10559   0.11248
  Beta virt. eigenvalues --    0.11754   0.12085   0.12478   0.13530   0.13924
  Beta virt. eigenvalues --    0.14157   0.14655   0.15139   0.15468   0.17506

 Mulliken charges and spin densities:
               1          2
     1  C   -0.539868  -0.016711
     2  C    0.090059   0.050470
     3  C    0.310621   0.190542
     4  C   -0.465212   0.063353
     5  O   -0.370569   0.082694
     6  N   -0.172274  -0.012443
     7  C   -0.157022  -0.168617
     8  C   -0.240575   0.125955
     9  C   -0.496157   0.012279
    10  C   -0.298170   0.029068
    11  C    0.699683   0.025873
    12  C   -0.192936   0.552523
    13  C   -0.710021  -0.005048
    14  H    0.135762   0.013337
    15  H    0.129521   0.000631
    16  H    0.134028   0.001042
    17  H    0.253348   0.003429
    18  H    0.121049  -0.003610
    19  H    0.076406   0.011306
    20  H    0.115487   0.017256
    21  H    0.164414   0.001594
    22  H    0.144745   0.014450
    23  H    0.114326   0.000089
    24  H    0.153358   0.010536
 Sum of Mulliken charges =  -1.00000   1.00000

 Dipole moment (field-independent basis, Debye):
    X=              0.2474    Y=              1.6419    Z=             -1.1715  Tot=              2.0321
 Quadrupole moment (field-independent basis, Debye-Ang):
   XX=           -107.7201   YY=            -93.8014   ZZ=            -88.3513
   XY=              9.8116   XZ=              6.5960   YZ=             -1.9643

 Summary of Natural Population Analysis:

                                       Natural Population
                Natural  -----------------------------------------------
    Atom  No    Charge         Core      Valence    Rydberg      Total
 -----------------------------------------------------------------------
      C    1   -0.29789      0.99963     2.29297    0.00529     3.29789
      C    2    0.02030      0.99940     1.97035    0.00996     2.97970
      C    3   -0.01636      0.99941     2.00753    0.00942     3.01636
      C    4    0.35801      0.99966     1.61964    0.02269     2.64199
      O    5   -0.31176      0.99987     3.30482    0.00707     4.31176
      N    6   -0.33254      0.99965     2.81976    0.01314     3.83254
      C    7    0.04769      0.99938     1.94116    0.01177     2.95231
      C    8   -0.11798      0.99951     2.10803    0.01043     3.11798
      C    9   -0.11285      0.99957     2.10309    0.01019     3.11285
      C   10   -0.12769      0.99950     2.11805    0.01014     3.12769
      C   11   -0.03047      0.99937     2.01742    0.01367     3.03047
      C   12    0.07800      0.99935     1.90917    0.01347     2.92200
      C   13   -0.29678      0.99964     2.29128    0.00585     3.29678
      H   14    0.09985      0.00000     0.39902    0.00113     0.40015
      H   15    0.09981      0.00000     0.39928    0.00092     0.40019
      H   16    0.09662      0.00000     0.40235    0.00103     0.40338
      H   17    0.18824      0.00000     0.30967    0.00209     0.31176
      H   18    0.09160      0.00000     0.40720    0.00120     0.40840
      H   19    0.08681      0.00000     0.41113    0.00207     0.41319
      H   20    0.09224      0.00000     0.40639    0.00137     0.40776
      H   21    0.08708      0.00000     0.41112    0.00179     0.41292
      H   22    0.10118      0.00000     0.39759    0.00123     0.39882
      H   23    0.08935      0.00000     0.40975    0.00089     0.41065
      H   24    0.10754      0.00000     0.39134    0.00112     0.39246
 =======================================================================
   * Total *    0.00000     12.99395    32.84811    0.15795    46.00000

 Normal termination of Gaussian 16 at Wed Dec  9 23:43:36 2020.
