 Gaussian 16, Revision A.03,

 -----------------------------------------------------------
 # opt freq B3LYP/6-31G(d) empiricaldispersion=gd3bj scf=xqc
 -----------------------------------------------------------

 -------------------------------
 CID_145331469_JID_6105_neutraal
 -------------------------------
 Symbolic Z-matrix:
 Charge =  0 Multiplicity = 1

 SCF Done:  E(RB3LYP) =  -1046.25079257     A.U. after   16 cycles
 SCF Done:  E(RB3LYP) =  -1046.25553217     A.U. after   13 cycles
 SCF Done:  E(RB3LYP) =  -1046.25607540     A.U. after   13 cycles
 SCF Done:  E(RB3LYP) =  -1046.25611275     A.U. after   12 cycles
 SCF Done:  E(RB3LYP) =  -1046.25635202     A.U. after   12 cycles
 SCF Done:  E(RB3LYP) =  -1046.25646632     A.U. after   12 cycles
 SCF Done:  E(RB3LYP) =  -1046.25651797     A.U. after   12 cycles
 SCF Done:  E(RB3LYP) =  -1046.25653785     A.U. after   11 cycles
 SCF Done:  E(RB3LYP) =  -1046.25656323     A.U. after   11 cycles
 SCF Done:  E(RB3LYP) =  -1046.25657696     A.U. after   11 cycles
 SCF Done:  E(RB3LYP) =  -1046.25659054     A.U. after   11 cycles
 SCF Done:  E(RB3LYP) =  -1046.25660356     A.U. after   11 cycles
 SCF Done:  E(RB3LYP) =  -1046.25661480     A.U. after    9 cycles
 SCF Done:  E(RB3LYP) =  -1046.25661935     A.U. after   10 cycles
 SCF Done:  E(RB3LYP) =  -1046.25662090     A.U. after    9 cycles
 SCF Done:  E(RB3LYP) =  -1046.25662141     A.U. after    8 cycles
 Optimization completed.
    -- Stationary point found.
 Normal termination of Gaussian 16 at Thu Dec 10 21:14:15 2020.

 --------------------------------------------------------------------
 #N Geom=AllCheck Guess=TCheck SCRF=Check GenChk RB3LYP/6-31G(d) Freq
 --------------------------------------------------------------------

 Structure from the checkpoint file:  "JID_6105.chk"
 -------------------------------
 CID_145331469_JID_6105_neutraal
 -------------------------------
 Charge =  0 Multiplicity = 1

 SCF Done:  E(RB3LYP) =  -1046.25662141     A.U. after    1 cycles

  Exact polarizability: 268.916 -15.942 138.958  20.344   7.455  88.672
 Approx polarizability: 391.026 -31.497 258.840  38.513  27.370 151.234

                      1                      2                      3
                      A                      A                      A
 Frequencies --     31.8136                49.3417                52.7537
 Red. masses --      4.7926                 5.2780                 7.5998
 Frc consts  --      0.0029                 0.0076                 0.0125
 IR Inten    --      0.3300                 0.0203                 4.7474

                      4                      5                      6
                      A                      A                      A
 Frequencies --     64.1502                92.5429               134.7659
 Red. masses --      6.7694                 5.5347                 5.3625
 Frc consts  --      0.0164                 0.0279                 0.0574
 IR Inten    --      0.9936                 1.8976                 0.5363

                      7                      8                      9
                      A                      A                      A
 Frequencies --    186.4102               224.6514               253.8545
 Red. masses --      5.5184                 3.9849                 5.3021
 Frc consts  --      0.1130                 0.1185                 0.2013
 IR Inten    --      3.1767                19.9656                 0.4317

                     10                     11                     12
                      A                      A                      A
 Frequencies --    280.9100               320.2772               353.8021
 Red. masses --      1.3353                 3.6930                 4.8162
 Frc consts  --      0.0621                 0.2232                 0.3552
 IR Inten    --    175.7629                24.4567                 4.0381

                     13                     14                     15
                      A                      A                      A
 Frequencies --    385.1431               408.7500               423.4426
 Red. masses --      4.2721                 3.3996                 5.9139
 Frc consts  --      0.3734                 0.3347                 0.6248
 IR Inten    --      1.3528                 5.1218                 1.1463

                     16                     17                     18
                      A                      A                      A
 Frequencies --    437.9806               476.4555               523.2128
 Red. masses --      3.2081                 4.6888                 3.7256
 Frc consts  --      0.3626                 0.6271                 0.6009
 IR Inten    --      7.4871                 0.7946                 1.1770

                     19                     20                     21
                      A                      A                      A
 Frequencies --    573.8474               600.2898               613.1734
 Red. masses --      2.9257                 3.2993                 1.5764
 Frc consts  --      0.5676                 0.7005                 0.3492
 IR Inten    --     19.2618                 2.4382                15.0945

                     22                     23                     24
                      A                      A                      A
 Frequencies --    627.3940               646.6103               686.9396
 Red. masses --      6.9186                 7.4657                 3.3174
 Frc consts  --      1.6045                 1.8391                 0.9223
 IR Inten    --      0.2610                 3.0123                13.1010

                     25                     26                     27
                      A                      A                      A
 Frequencies --    721.4621               725.6887               735.1081
 Red. masses --      2.9514                 2.4118                 2.3345
 Frc consts  --      0.9051                 0.7483                 0.7433
 IR Inten    --      9.3776                 5.9313                11.8922

                     28                     29                     30
                      A                      A                      A
 Frequencies --    755.9681               813.3798               816.7405
 Red. masses --      4.7641                 1.8237                 1.7148
 Frc consts  --      1.6041                 0.7109                 0.6740
 IR Inten    --      4.3239                11.2505                42.5639

                     31                     32                     33
                      A                      A                      A
 Frequencies --    829.8442               847.5368               901.7891
 Red. masses --      1.5909                 2.3762                 1.4132
 Frc consts  --      0.6455                 1.0056                 0.6771
 IR Inten    --      7.0784                 7.9437                 0.3752

                     34                     35                     36
                      A                      A                      A
 Frequencies --    939.5063               963.8744               973.3756
 Red. masses --      1.3522                 1.5859                 3.1666
 Frc consts  --      0.7032                 0.8681                 1.7677
 IR Inten    --      0.4048                 2.2810                 3.4204

                     37                     38                     39
                      A                      A                      A
 Frequencies --    979.9907               991.1935              1042.3789
 Red. masses --      1.5382                 1.3567                 3.8119
 Frc consts  --      0.8704                 0.7853                 2.4403
 IR Inten    --     25.7911                 0.4842                14.7770

                     40                     41                     42
                      A                      A                      A
 Frequencies --   1059.4863              1082.9280              1101.2690
 Red. masses --      2.2468                 2.2704                 1.7331
 Frc consts  --      1.4860                 1.5687                 1.2384
 IR Inten    --      5.1051                 2.3197                 6.2422

                     43                     44                     45
                      A                      A                      A
 Frequencies --   1111.9403              1151.7023              1220.7476
 Red. masses --      1.8608                 1.5028                 1.9314
 Frc consts  --      1.3555                 1.1744                 1.6958
 IR Inten    --      2.0272                 7.1221                 2.9559

                     46                     47                     48
                      A                      A                      A
 Frequencies --   1232.5630              1262.1066              1299.8920
 Red. masses --      1.8592                 2.0142                 2.4814
 Frc consts  --      1.6642                 1.8904                 2.4704
 IR Inten    --      6.2045                18.6064                27.7514

                     49                     50                     51
                      A                      A                      A
 Frequencies --   1309.6435              1352.0653              1379.8403
 Red. masses --      6.4539                 3.0225                 1.6354
 Frc consts  --      6.5220                 3.2554                 1.8345
 IR Inten    --      4.6354                56.1190                35.7321

                     52                     53                     54
                      A                      A                      A
 Frequencies --   1398.5114              1438.0072              1462.6744
 Red. masses --      2.3691                 1.2708                 2.3948
 Frc consts  --      2.7301                 1.5483                 3.0186
 IR Inten    --     26.6998                39.8783                27.8507

                     55                     56                     57
                      A                      A                      A
 Frequencies --   1515.8720              1535.8240              1597.8015
 Red. masses --      3.5104                 3.1652                 5.4683
 Frc consts  --      4.7526                 4.3988                 8.2253
 IR Inten    --     10.5186                19.5398                 1.2106

                     58                     59                     60
                      A                      A                      A
 Frequencies --   1619.1477              1640.2912              1646.4173
 Red. masses --      4.9724                 1.2712                 5.3175
 Frc consts  --      7.6804                 2.0152                 8.4925
 IR Inten    --      7.6287               140.5102                 3.1134

                     61                     62                     63
                      A                      A                      A
 Frequencies --   1678.1064              1795.3308              3168.0266
 Red. masses --      5.6251                 8.3389                 1.0895
 Frc consts  --      9.3330                15.8361                 6.4426
 IR Inten    --     36.8457               274.8383                22.1613

                     64                     65                     66
                      A                      A                      A
 Frequencies --   3180.5282              3186.0128              3200.2238
 Red. masses --      1.0893                 1.0582                 1.0892
 Frc consts  --      6.4922                 6.3287                 6.5726
 IR Inten    --     12.9067                 4.7031                16.5464

                     67                     68                     69
                      A                      A                      A
 Frequencies --   3216.3205              3219.6543              3233.6191
 Red. masses --      1.0957                 1.0901                 1.0969
 Frc consts  --      6.6785                 6.6578                 6.7573
 IR Inten    --     10.2555                17.0381                 4.6663

                     70                     71                     72
                      A                      A                      A
 Frequencies --   3280.5305              3594.2682              3719.7232
 Red. masses --      1.1180                 1.0451                 1.1050
 Frc consts  --      7.0888                 7.9548                 9.0080
 IR Inten    --      0.6981                31.4680                60.5694

 - Thermochemistry -
 -------------------
 Temperature   298.150 Kelvin.  Pressure   1.00000 Atm.
 Atom     1 has atomic number  6 and mass  12.00000

 Molecular mass:   230.05138 amu.
 Principal axes and moments of inertia in atomic units:
                           1         2         3
     Eigenvalues --  1253.591458223.135818887.09167
           X            0.99999  -0.00138   0.00360
           Y            0.00142   0.99993  -0.01207
           Z           -0.00358   0.01208   0.99992
 This molecule is an asymmetric top.
 Rotational symmetry number  1.
 Warning -- assumption of classical behavior for rotation
           may cause significant error
 Rotational temperatures (Kelvin)      0.06909     0.01053     0.00975
 Rotational constants (GHZ):           1.43966     0.21947     0.20307
 Zero-point vibrational energy     516651.7 (Joules/Mol)
                                  123.48273 (Kcal/Mol)
 Warning -- explicit consideration of  21 degrees of freedom as
           vibrations may cause significant error
 Vibrational temperatures:     45.77    70.99    75.90    92.30   133.15
          (Kelvin)            193.90   268.20   323.22   365.24   404.17
                              460.81   509.04   554.14   588.10   609.24
                              630.16   685.51   752.79   825.64   863.68
                              882.22   902.68   930.33   988.35  1038.02
                             1044.10  1057.66  1087.67  1170.27  1175.11
                             1193.96  1219.42  1297.47  1351.74  1386.80
                             1400.47  1409.99  1426.11  1499.75  1524.36
                             1558.09  1584.48  1599.83  1657.04  1756.38
                             1773.38  1815.89  1870.25  1884.28  1945.32
                             1985.28  2012.15  2068.97  2104.46  2181.00
                             2209.71  2298.88  2329.59  2360.01  2368.83
                             2414.42  2583.08  4558.08  4576.07  4583.96
                             4604.41  4627.57  4632.36  4652.46  4719.95
                             5171.35  5351.85

 Zero-point correction=                           0.196782 (Hartree/Particle)
 Thermal correction to Energy=                    0.210911
 Thermal correction to Enthalpy=                  0.211856
 Thermal correction to Gibbs Free Energy=         0.154041
 Sum of electronic and zero-point Energies=          -1046.059839
 Sum of electronic and thermal Energies=             -1046.045710
 Sum of electronic and thermal Enthalpies=           -1046.044766
 Sum of electronic and thermal Free Energies=        -1046.102580

                     E (Thermal)             CV                S
                      KCal/Mol        Cal/Mol-Kelvin    Cal/Mol-Kelvin
 Total                  132.349             53.753            121.680
 Electronic               0.000              0.000              0.000
 Translational            0.889              2.981             42.201
 Rotational               0.889              2.981             32.882
 Vibrational            130.571             47.792             46.597
 Vibration     1          0.594              1.983              5.713
 Vibration     2          0.595              1.978              4.844
 Vibration     3          0.596              1.977              4.711
 Vibration     4          0.597              1.971              4.325
 Vibration     5          0.602              1.955              3.606
 Vibration     6          0.613              1.919              2.877
 Vibration     7          0.632              1.858              2.263
 Vibration     8          0.649              1.804              1.921
 Vibration     9          0.665              1.756              1.704
 Vibration    10          0.681              1.709              1.528
 Vibration    11          0.706              1.635              1.309
 Vibration    12          0.730              1.567              1.149
 Vibration    13          0.754              1.502              1.019
 Vibration    14          0.773              1.451              0.931
 Vibration    15          0.786              1.419              0.880
 Vibration    16          0.798              1.387              0.833
 Vibration    17          0.833              1.302              0.720
 Vibration    18          0.878              1.199              0.603
 Vibration    19          0.930              1.088              0.497
 Vibration    20          0.958              1.031              0.449
 Vibration    21          0.972              1.004              0.428

                           ! Non-Optimized Parameters !
 Normal termination of Gaussian 16 at Thu Dec 10 21:21:40 2020.

 ----------------------------------------------------------------------
 # B3LYP/6-311++G(d,p) empiricaldispersion=gd3bj scf=xqc pop=npa geom=c
 heck
 ----------------------------------------------------------------------

 ---------------------------------------
 CID_145331469_JID_6105_Energie_neutraal
 ---------------------------------------
 Structure from the checkpoint file:  "JID_6105.chk"
 Charge =  0 Multiplicity = 1

 SCF Done:  E(RB3LYP) =  -1046.46193954     A.U. after   16 cycles
 Normal termination of Gaussian 16 at Thu Dec 10 21:24:53 2020.

 ----------------------------------------------------------------------
 # B3LYP/6-311++G(d,p) empiricaldispersion=gd3bj scf=xqc pop=npa geom=c
 heck
 ----------------------------------------------------------------------

 -------------------------------------
 CID_145331469_JID_6105_Energie_kation
 -------------------------------------
 Structure from the checkpoint file:  "JID_6105.chk"
 Charge =  1 Multiplicity = 2

 SCF Done:  E(UB3LYP) =  -1046.17156022     A.U. after   25 cycles
 Normal termination of Gaussian 16 at Thu Dec 10 21:31:28 2020.
 Gaussian 16:  ES64L-G16RevA.03 25-Dec-2016

 ----------------------------------------------------------------------
 # B3LYP/6-311++G(d,p) empiricaldispersion=gd3bj scf=xqc pop=npa geom=c
 heck
 ----------------------------------------------------------------------

 ------------------------------------
 CID_145331469_JID_6105_Energie_anion
 ------------------------------------
 Structure from the checkpoint file:  "JID_6105.chk"
 Charge = -1 Multiplicity = 2

                         Standard orientation:
 ---------------------------------------------------------------------
 Center     Atomic      Atomic             Coordinates (Angstroms)
 Number     Number       Type             X           Y           Z
 ---------------------------------------------------------------------
      1          6           0       -3.785824    1.250001   -1.028559
      2          6           0       -3.035911    0.403966   -0.305755
      3          6           0       -1.603687    0.657465   -0.090974
      4          6           0       -1.010334    1.866180    0.194796
      5          6           0        0.407115    1.812246    0.246778
      6          6           0        0.920425    0.558567    0.001005
      7         16           0       -0.375420   -0.582470   -0.297052
      8          6           0        2.321177    0.140008   -0.009758
      9          6           0        2.758145   -0.974721   -0.748605
     10          7           0        4.021096   -1.400752   -0.793995
     11          6           0        4.933035   -0.709457   -0.099374
     12          6           0        4.620102    0.418239    0.661578
     13          6           0        3.297739    0.842163    0.714276
     14          6           0       -3.752549   -0.779471    0.311628
     15          8           0       -4.894634   -1.082410   -0.006283
     16          7           0       -3.047593   -1.484786    1.245969
     17          1           0       -3.351799    2.109915   -1.527479
     18          1           0       -4.850051    1.067663   -1.130535
     19          1           0       -1.589843    2.765600    0.370009
     20          1           0        1.032325    2.675755    0.444480
     21          1           0        2.043788   -1.541626   -1.343846
     22          1           0        5.956164   -1.075868   -0.152386
     23          1           0        5.395337    0.941729    1.212536
     24          1           0        3.014568    1.695742    1.322673
     25          1           0       -2.178964   -1.148750    1.632955
     26          1           0       -3.538844   -2.223711    1.728666
 ---------------------------------------------------------------------

 SCF Done:  E(UB3LYP) =  -1046.48831069     A.U. after   28 cycles

 The electronic state is 2-A.
 Alpha  occ. eigenvalues --  -88.73747 -18.96837 -14.21964 -14.19115 -10.15523
 Alpha  occ. eigenvalues --  -10.08223 -10.07774 -10.06735 -10.06727 -10.06708
 Alpha  occ. eigenvalues --  -10.06658 -10.06598 -10.05753 -10.04574 -10.04511
 Alpha  occ. eigenvalues --  -10.03216  -7.82429  -5.78725  -5.78365  -5.78026
 Alpha  occ. eigenvalues --   -0.92043  -0.82359  -0.79317  -0.75442  -0.69455
 Alpha  occ. eigenvalues --   -0.66919  -0.64780  -0.60597  -0.58125  -0.52273
 Alpha  occ. eigenvalues --   -0.51381  -0.51161  -0.45671  -0.44045  -0.42167
 Alpha  occ. eigenvalues --   -0.40497  -0.39840  -0.38210  -0.36510  -0.34474
 Alpha  occ. eigenvalues --   -0.32110  -0.31021  -0.30412  -0.29280  -0.29140
 Alpha  occ. eigenvalues --   -0.28517  -0.27823  -0.26178  -0.25720  -0.25221
 Alpha  occ. eigenvalues --   -0.23678  -0.21343  -0.18613  -0.16882  -0.16424
 Alpha  occ. eigenvalues --   -0.14882  -0.14311  -0.14203  -0.13074  -0.09138
 Alpha  occ. eigenvalues --    0.02546
 Alpha virt. eigenvalues --    0.06941   0.07592   0.08380   0.08506   0.09080
 Alpha virt. eigenvalues --    0.09834   0.10774   0.11397   0.11631   0.12178
 Alpha virt. eigenvalues --    0.12352   0.12938   0.13592   0.14445   0.14973

  Beta  occ. eigenvalues --  -88.73698 -18.96831 -14.21936 -14.19145 -10.15467
  Beta  occ. eigenvalues --  -10.08157 -10.07547 -10.06782 -10.06563 -10.06519
  Beta  occ. eigenvalues --  -10.06476 -10.06473 -10.05763 -10.04581 -10.04470
  Beta  occ. eigenvalues --  -10.02860  -7.82385  -5.78702  -5.78346  -5.77861
  Beta  occ. eigenvalues --   -0.92002  -0.82220  -0.79254  -0.75168  -0.69156
  Beta  occ. eigenvalues --   -0.66593  -0.64484  -0.60367  -0.57728  -0.51850
  Beta  occ. eigenvalues --   -0.51041  -0.51014  -0.45425  -0.43835  -0.42033
  Beta  occ. eigenvalues --   -0.40314  -0.39641  -0.38054  -0.36387  -0.34333
  Beta  occ. eigenvalues --   -0.31980  -0.30927  -0.30152  -0.29106  -0.28690
  Beta  occ. eigenvalues --   -0.28260  -0.27659  -0.26030  -0.25242  -0.24889
  Beta  occ. eigenvalues --   -0.23444  -0.21103  -0.17722  -0.16277  -0.16239
  Beta  occ. eigenvalues --   -0.14377  -0.14270  -0.13547  -0.12354  -0.07823
  Beta virt. eigenvalues --    0.07098   0.07561   0.08254   0.08391   0.08951
  Beta virt. eigenvalues --    0.09103   0.09796   0.10712   0.11409   0.11910
  Beta virt. eigenvalues --    0.12150   0.12757   0.13137   0.13641   0.14509

 Mulliken charges and spin densities:
               1          2
     1  C   -0.831450   0.337958
     2  C    0.448976  -0.076771
     3  C    0.187518   0.113332
     4  C    0.036531   0.018982
     5  C    0.169817   0.092048
     6  C    0.321116   0.063263
     7  S   -0.922045   0.099796
     8  C    0.286434   0.028003
     9  C   -0.422054   0.085322
    10  N   -0.039849  -0.021480
    11  C   -0.385805   0.160704
    12  C   -0.184407  -0.034293
    13  C   -0.301516   0.092617
    14  C   -0.106367   0.044298
    15  O   -0.394877   0.003041
    16  N   -0.413428   0.008708
    17  H    0.115401  -0.010174
    18  H    0.144484  -0.014286
    19  H    0.142623   0.012229
    20  H    0.100055  -0.004206
    21  H    0.158851  -0.004869
    22  H    0.134950  -0.013252
    23  H    0.140618   0.002585
    24  H    0.104762   0.002988
    25  H    0.221958   0.013510
    26  H    0.287704  -0.000053
 Sum of Mulliken charges =  -1.00000   1.00000

 Dipole moment (field-independent basis, Debye):
    X=              2.7491    Y=              1.6452    Z=              3.2377  Tot=              4.5549
 Quadrupole moment (field-independent basis, Debye-Ang):
   XX=           -181.4594   YY=           -112.4625   ZZ=           -109.2047
   XY=              6.4322   XZ=             -0.1947   YZ=             -3.8294

 Summary of Natural Population Analysis:

                                       Natural Population
                Natural  -----------------------------------------------
    Atom  No    Charge         Core      Valence    Rydberg      Total
 -----------------------------------------------------------------------
      C    1   -0.06272      0.99949     2.05762    0.00561     3.06272
      C    2   -0.10542      0.99942     2.09257    0.01343     3.10542
      C    3   -0.07189      0.99946     2.05795    0.01449     3.07189
      C    4   -0.13308      0.99950     2.12221    0.01137     3.13308
      C    5   -0.11217      0.99940     2.10272    0.01005     3.11217
      C    6   -0.07515      0.99947     2.06205    0.01362     3.07515
      S    7    0.20888      4.99941     2.77226    0.01946     7.79112
      C    8   -0.03922      0.99948     2.03124    0.00851     3.03922
      C    9    0.04435      0.99956     1.94252    0.01358     2.95565
      N   10   -0.24396      0.99972     2.73183    0.01241     3.74396
      C   11    0.05140      0.99960     1.93364    0.01536     2.94860
      C   12   -0.13953      0.99957     2.13141    0.00855     3.13953
      C   13   -0.05427      0.99954     2.04701    0.00773     3.05427
      C   14    0.34056      0.99965     1.63816    0.02163     2.65944
      O   15   -0.33426      0.99988     3.32773    0.00665     4.33426
      N   16   -0.40198      0.99971     2.89588    0.00639     3.90198
      H   17    0.08538      0.00000     0.41362    0.00101     0.41462
      H   18    0.09549      0.00000     0.40336    0.00116     0.40451
      H   19    0.10213      0.00000     0.39692    0.00095     0.39787
      H   20    0.09851      0.00000     0.40049    0.00101     0.40149
      H   21    0.08975      0.00000     0.40904    0.00121     0.41025
      H   22    0.07921      0.00000     0.41953    0.00126     0.42079
      H   23    0.09535      0.00000     0.40347    0.00118     0.40465
      H   24    0.09637      0.00000     0.40231    0.00133     0.40363
      H   25    0.19928      0.00000     0.29845    0.00227     0.30072
      H   26    0.18710      0.00000     0.30988    0.00302     0.31290
 =======================================================================
   * Total *    0.00008     19.99285    39.80385    0.20322    59.99992

 Normal termination of Gaussian 16 at Thu Dec 10 21:39:42 2020.
