 Gaussian 16, Revision A.03,

 -----------------------------------------------------------
 # opt freq B3LYP/6-31G(d) empiricaldispersion=gd3bj scf=xqc
 -----------------------------------------------------------

 -------------------------------
 CID_111662948_JID_8538_neutraal
 -------------------------------
 Symbolic Z-matrix:
 Charge =  0 Multiplicity = 1

 SCF Done:  E(RB3LYP) =  -862.450603181     A.U. after   15 cycles
 SCF Done:  E(RB3LYP) =  -862.456897025     A.U. after   13 cycles
 SCF Done:  E(RB3LYP) =  -862.457437456     A.U. after   13 cycles
 SCF Done:  E(RB3LYP) =  -862.459042105     A.U. after   12 cycles
 SCF Done:  E(RB3LYP) =  -862.459766038     A.U. after   13 cycles
 SCF Done:  E(RB3LYP) =  -862.460764385     A.U. after   13 cycles
 SCF Done:  E(RB3LYP) =  -862.461881587     A.U. after   13 cycles
 SCF Done:  E(RB3LYP) =  -862.463041733     A.U. after   14 cycles
 SCF Done:  E(RB3LYP) =  -862.464182759     A.U. after   16 cycles
 SCF Done:  E(RB3LYP) =  -862.463314583     A.U. after   15 cycles
 SCF Done:  E(RB3LYP) =  -862.465177355     A.U. after    7 cycles
 SCF Done:  E(RB3LYP) =  -862.465177353     A.U. after    7 cycles
 SCF Done:  E(RB3LYP) =  -862.465177336     A.U. after    7 cycles
 SCF Done:  E(RB3LYP) =  -862.465177339     A.U. after    6 cycles
 Optimization completed.
    -- Stationary point found.
 Normal termination of Gaussian 16 at Fri Dec 11 21:09:43 2020.

 --------------------------------------------------------------------
 #N Geom=AllCheck Guess=TCheck SCRF=Check GenChk RB3LYP/6-31G(d) Freq
 --------------------------------------------------------------------

 Structure from the checkpoint file:  "JID_8538.chk"
 -------------------------------
 CID_111662948_JID_8538_neutraal
 -------------------------------
 Charge =  0 Multiplicity = 1

 SCF Done:  E(RB3LYP) =  -862.465177339     A.U. after    1 cycles

  Exact polarizability: 186.466 -10.920 136.699 -17.441  -7.519 127.004
 Approx polarizability: 224.201 -22.400 230.922 -28.168 -17.254 196.924

                      1                      2                      3
                      A                      A                      A
 Frequencies --     14.5595                16.0130                27.4760
 Red. masses --      4.9408                 4.5166                 3.2634
 Frc consts  --      0.0006                 0.0007                 0.0015
 IR Inten    --      0.8531                 0.1303                 0.8958

                      4                      5                      6
                      A                      A                      A
 Frequencies --     38.7986                51.9814                71.0231
 Red. masses --      4.5922                 4.9592                 4.1797
 Frc consts  --      0.0041                 0.0079                 0.0124
 IR Inten    --      0.4029                 0.5370                 2.2721

                      7                      8                      9
                      A                      A                      A
 Frequencies --     86.2769               119.5969               151.6123
 Red. masses --      6.3084                 3.5920                 4.2242
 Frc consts  --      0.0277                 0.0303                 0.0572
 IR Inten    --      3.6672                 2.3168                 3.6126

                     10                     11                     12
                      A                      A                      A
 Frequencies --    168.1204               182.8615               190.3048
 Red. masses --      3.0661                 1.3381                 2.9802
 Frc consts  --      0.0511                 0.0264                 0.0636
 IR Inten    --      2.1404                 1.2018                 1.5201

                     13                     14                     15
                      A                      A                      A
 Frequencies --    230.0251               249.5583               277.8973
 Red. masses --      3.7329                 2.7877                 3.3663
 Frc consts  --      0.1164                 0.1023                 0.1532
 IR Inten    --      5.1603                 0.7087                 0.7708

                     16                     17                     18
                      A                      A                      A
 Frequencies --    296.0369               319.3553               328.0610
 Red. masses --      3.3775                 3.2751                 3.5727
 Frc consts  --      0.1744                 0.1968                 0.2265
 IR Inten    --      2.3420                 2.9460                 4.4998

                     19                     20                     21
                      A                      A                      A
 Frequencies --    384.8242               408.3790               435.5154
 Red. masses --      2.1536                 3.3351                 2.3927
 Frc consts  --      0.1879                 0.3277                 0.2674
 IR Inten    --      2.7543                 1.9125                 1.6854

                     22                     23                     24
                      A                      A                      A
 Frequencies --    471.6761               501.6884               506.8902
 Red. masses --      1.1790                 4.6248                 3.1384
 Frc consts  --      0.1545                 0.6858                 0.4751
 IR Inten    --    132.0045                10.0912                 6.8195

                     25                     26                     27
                      A                      A                      A
 Frequencies --    526.8918               623.5593               638.9291
 Red. masses --      4.7243                 3.7623                 3.4482
 Frc consts  --      0.7727                 0.8619                 0.8294
 IR Inten    --     14.1117                 4.1524                 2.2486

                     28                     29                     30
                      A                      A                      A
 Frequencies --    652.6432               658.1524               691.4371
 Red. masses --      3.5522                 3.6390                 4.8203
 Frc consts  --      0.8914                 0.9287                 1.3578
 IR Inten    --     30.3403                 4.0690                11.8320

                     31                     32                     33
                      A                      A                      A
 Frequencies --    761.6731               783.9243               785.0001
 Red. masses --      1.4857                 1.4776                 1.6583
 Frc consts  --      0.5078                 0.5350                 0.6021
 IR Inten    --     39.1417                 4.7960                 3.0214

                     34                     35                     36
                      A                      A                      A
 Frequencies --    817.4292               820.0395               848.7008
 Red. masses --      1.9734                 1.8792                 1.5176
 Frc consts  --      0.7769                 0.7445                 0.6440
 IR Inten    --     75.0060                41.1277                10.1033

                     37                     38                     39
                      A                      A                      A
 Frequencies --    850.2329               857.6659               911.3561
 Red. masses --      1.2916                 2.6831                 3.1243
 Frc consts  --      0.5501                 1.1628                 1.5289
 IR Inten    --      2.4383                24.2059                18.1499

                     40                     41                     42
                      A                      A                      A
 Frequencies --    914.7899               943.6447               958.5715
 Red. masses --      2.8396                 2.1492                 2.0830
 Frc consts  --      1.4001                 1.1276                 1.1277
 IR Inten    --     18.3545                 5.7736                 7.9487

                     43                     44                     45
                      A                      A                      A
 Frequencies --    978.8219              1002.1396              1016.8043
 Red. masses --      2.2356                 1.7423                 2.3527
 Frc consts  --      1.2620                 1.0309                 1.4332
 IR Inten    --     17.8549                 1.6955                60.5540

                     46                     47                     48
                      A                      A                      A
 Frequencies --   1030.8714              1065.4563              1077.6017
 Red. masses --      2.3230                 1.3889                 1.5801
 Frc consts  --      1.4545                 0.9289                 1.0811
 IR Inten    --     16.2187                 6.1127                 2.6296

                     49                     50                     51
                      A                      A                      A
 Frequencies --   1081.7011              1084.6009              1096.1964
 Red. masses --      1.6597                 1.3740                 2.3220
 Frc consts  --      1.1442                 0.9523                 1.6439
 IR Inten    --      0.4199                10.7009                35.2096

                     52                     53                     54
                      A                      A                      A
 Frequencies --   1104.3249              1134.2024              1142.9062
 Red. masses --      2.9257                 2.4412                 1.5712
 Frc consts  --      2.1022                 1.8502                 1.2092
 IR Inten    --    113.3894                45.1433                81.5015

                     55                     56                     57
                      A                      A                      A
 Frequencies --   1146.9445              1162.4899              1180.7464
 Red. masses --      1.8491                 2.7255                 3.1613
 Frc consts  --      1.4331                 2.1701                 2.5967
 IR Inten    --     83.0333                25.9469                48.5479

                     58                     59                     60
                      A                      A                      A
 Frequencies --   1209.6812              1212.0968              1219.7117
 Red. masses --      1.6243                 1.5495                 3.4563
 Frc consts  --      1.4005                 1.3413                 3.0295
 IR Inten    --      3.7432                 2.9951                33.2294

                     61                     62                     63
                      A                      A                      A
 Frequencies --   1239.1172              1254.8986              1283.5959
 Red. masses --      1.8774                 1.3828                 1.3497
 Frc consts  --      1.6984                 1.2830                 1.3102
 IR Inten    --      9.4711                17.6395                24.9649

                     64                     65                     66
                      A                      A                      A
 Frequencies --   1296.4604              1301.3611              1334.4803
 Red. masses --      2.1855                 1.2614                 1.2333
 Frc consts  --      2.1643                 1.2586                 1.2941
 IR Inten    --      1.7874                18.7396                21.5987

                     67                     68                     69
                      A                      A                      A
 Frequencies --   1356.8862              1386.5440              1391.7346
 Red. masses --      2.0608                 1.5335                 1.3570
 Frc consts  --      2.2354                 1.7370                 1.5486
 IR Inten    --    116.0803                 2.9033                24.5047

                     70                     71                     72
                      A                      A                      A
 Frequencies --   1415.0112              1432.2285              1446.0941
 Red. masses --      1.4563                 1.2852                 1.2538
 Frc consts  --      1.7180                 1.5533                 1.5448
 IR Inten    --      7.7865                20.4438                 7.0949

                     73                     74                     75
                      A                      A                      A
 Frequencies --   1449.9325              1456.7923              1465.4522
 Red. masses --      1.5191                 1.4571                 3.2734
 Frc consts  --      1.8816                 1.8219                 4.1418
 IR Inten    --     19.5936                77.1357               124.9661

                     76                     77                     78
                      A                      A                      A
 Frequencies --   1477.7858              1498.5524              1515.1362
 Red. masses --      1.3805                 1.0880                 1.1208
 Frc consts  --      1.7763                 1.4396                 1.5159
 IR Inten    --     12.5779                 1.9144                16.0312

                     79                     80                     81
                      A                      A                      A
 Frequencies --   1517.4158              1520.2722              1525.2494
 Red. masses --      1.1129                 1.1680                 1.0636
 Frc consts  --      1.5098                 1.5905                 1.4578
 IR Inten    --      0.5708                 4.4406                13.4043

                     82                     83                     84
                      A                      A                      A
 Frequencies --   1537.8578              1539.6356              1548.3206
 Red. masses --      3.6454                 1.3289                 1.0966
 Frc consts  --      5.0796                 1.8560                 1.5489
 IR Inten    --     33.5096                 1.5509                15.8022

                     85                     86                     87
                      A                      A                      A
 Frequencies --   1644.4299              1767.2934              3009.9030
 Red. masses --      6.2795                 8.4661                 1.0676
 Frc consts  --     10.0047                15.5794                 5.6984
 IR Inten    --     20.8024               294.7072                47.0235

                     88                     89                     90
                      A                      A                      A
 Frequencies --   3024.5803              3045.8257              3069.3439
 Red. masses --      1.0579                 1.0414                 1.1060
 Frc consts  --      5.7021                 5.6924                 6.1390
 IR Inten    --     23.3480                21.6628                38.1596

                     91                     92                     93
                      A                      A                      A
 Frequencies --   3077.4194              3092.1152              3098.8325
 Red. masses --      1.0862                 1.0964                 1.0976
 Frc consts  --      6.0606                 6.1762                 6.2098
 IR Inten    --     23.7536                23.0199                21.3513

                     94                     95                     96
                      A                      A                      A
 Frequencies --   3110.8044              3146.6132              3148.3789
 Red. masses --      1.0638                 1.0514                 1.1000
 Frc consts  --      6.0653                 6.1337                 6.4240
 IR Inten    --     26.9752                22.1695                 7.8675

                     97                     98                     99
                      A                      A                      A
 Frequencies --   3150.8723              3165.2653              3170.6002
 Red. masses --      1.0584                 1.0900                 1.1023
 Frc consts  --      6.1908                 6.4340                 6.5287
 IR Inten    --     12.9695                12.7781                18.7595

                    100                    101                    102
                      A                      A                      A
 Frequencies --   3221.5879              3235.4440              3262.6365
 Red. masses --      1.1191                 1.1157                 1.0924
 Frc consts  --      6.8433                 6.8814                 6.8514
 IR Inten    --      0.4849                21.9782                 3.1078

                    103                    104                    105
                      A                      A                      A
 Frequencies --   3298.8252              3550.4714              3702.2034
 Red. masses --      1.1037                 1.0745                 1.0653
 Frc consts  --      7.0768                 7.9807                 8.6029
 IR Inten    --      1.5366                18.7849                35.3945

 - Thermochemistry -
 -------------------
 Temperature   298.150 Kelvin.  Pressure   1.00000 Atm.
 Atom     1 has atomic number  6 and mass  12.00000

 Molecular mass:   253.13141 amu.
 Principal axes and moments of inertia in atomic units:
                           1         2         3
     Eigenvalues --  1824.26306********************
           X            0.99993  -0.01097   0.00485
           Y            0.01134   0.99636  -0.08445
           Z           -0.00391   0.08450   0.99642
 This molecule is an asymmetric top.
 Rotational symmetry number  1.
 Warning -- assumption of classical behavior for rotation
           may cause significant error
 Rotational temperatures (Kelvin)      0.04748     0.00830     0.00802
 Rotational constants (GHZ):           0.98930     0.17303     0.16709
 Zero-point vibrational energy     823657.2 (Joules/Mol)
                                  196.85880 (Kcal/Mol)
 Warning -- explicit consideration of  25 degrees of freedom as
           vibrations may cause significant error
 Vibrational temperatures:     20.95    23.04    39.53    55.82    74.79
          (Kelvin)            102.19   124.13   172.07   218.14   241.89
                              263.10   273.81   330.95   359.06   399.83
                              425.93   459.48   472.01   553.68   587.57
                              626.61   678.64   721.82   729.30   758.08
                              897.16   919.28   939.01   946.93   994.82
                             1095.88  1127.89  1129.44  1176.10  1179.85
                             1221.09  1223.30  1233.99  1311.24  1316.18
                             1357.69  1379.17  1408.31  1441.86  1462.95
                             1483.19  1532.95  1550.43  1556.33  1560.50
                             1577.18  1588.88  1631.86  1644.39  1650.20
                             1672.56  1698.83  1740.46  1743.94  1754.89
                             1782.81  1805.52  1846.81  1865.32  1872.37
                             1920.02  1952.26  1994.93  2002.40  2035.89
                             2060.66  2080.61  2086.13  2096.00  2108.46
                             2126.20  2156.08  2179.94  2183.22  2187.33
                             2194.49  2212.63  2215.19  2227.69  2365.97
                             2542.74  4330.58  4351.70  4382.26  4416.10
                             4427.72  4448.86  4458.53  4475.75  4527.27
                             4529.81  4533.40  4554.11  4561.79  4635.15
                             4655.08  4694.21  4746.27  5108.34  5326.64

 Zero-point correction=                           0.313714 (Hartree/Particle)
 Thermal correction to Energy=                    0.332146
 Thermal correction to Enthalpy=                  0.333090
 Thermal correction to Gibbs Free Energy=         0.263126
 Sum of electronic and zero-point Energies=           -862.151463
 Sum of electronic and thermal Energies=              -862.133032
 Sum of electronic and thermal Enthalpies=            -862.132088
 Sum of electronic and thermal Free Energies=         -862.202051

                     E (Thermal)             CV                S
                      KCal/Mol        Cal/Mol-Kelvin    Cal/Mol-Kelvin
 Total                  208.424             67.785            147.250
 Electronic               0.000              0.000              0.000
 Translational            0.889              2.981             42.486
 Rotational               0.889              2.981             33.685
 Vibrational            206.647             61.823             71.079
 Vibration     1          0.593              1.986              7.265
 Vibration     2          0.593              1.986              7.076
 Vibration     3          0.593              1.984              6.004
 Vibration     4          0.594              1.981              5.320
 Vibration     5          0.596              1.977              4.741
 Vibration     6          0.598              1.968              4.125
 Vibration     7          0.601              1.959              3.743
 Vibration     8          0.609              1.933              3.107
 Vibration     9          0.619              1.901              2.652
 Vibration    10          0.625              1.882              2.456
 Vibration    11          0.630              1.863              2.299
 Vibration    12          0.634              1.853              2.225
 Vibration    13          0.652              1.795              1.879
 Vibration    14          0.662              1.763              1.734
 Vibration    15          0.679              1.714              1.547
 Vibration    16          0.690              1.681              1.439
 Vibration    17          0.705              1.637              1.313
 Vibration    18          0.711              1.619              1.270
 Vibration    19          0.754              1.503              1.020
 Vibration    20          0.773              1.452              0.932
 Vibration    21          0.796              1.393              0.841
 Vibration    22          0.829              1.313              0.733
 Vibration    23          0.857              1.246              0.654
 Vibration    24          0.862              1.235              0.641
 Vibration    25          0.882              1.190              0.594

 Optimization completed.
    -- Stationary point found.
 Normal termination of Gaussian 16 at Fri Dec 11 21:24:13 2020.

 ----------------------------------------------------------------------
 # B3LYP/6-311++G(d,p) empiricaldispersion=gd3bj scf=xqc pop=npa geom=c
 heck
 ----------------------------------------------------------------------

 ---------------------------------------
 CID_111662948_JID_8538_Energie_neutraal
 ---------------------------------------
 Structure from the checkpoint file:  "JID_8538.chk"
 Charge =  0 Multiplicity = 1

 SCF Done:  E(RB3LYP) =  -862.723534000     A.U. after   15 cycles
 Normal termination of Gaussian 16 at Fri Dec 11 21:30:03 2020.

 ----------------------------------------------------------------------
 # B3LYP/6-311++G(d,p) empiricaldispersion=gd3bj scf=xqc pop=npa geom=c
 heck
 ----------------------------------------------------------------------

 -------------------------------------
 CID_111662948_JID_8538_Energie_kation
 -------------------------------------
 Structure from the checkpoint file:  "JID_8538.chk"
 Charge =  1 Multiplicity = 2

 SCF Done:  E(UB3LYP) =  -862.414569675     A.U. after   33 cycles
 SCF Done:  E(UB3LYP) =  -862.414569675     a.u. after    1 cycles
 Normal termination of Gaussian 16 at Fri Dec 11 21:47:16 2020.
 Gaussian 16:  ES64L-G16RevA.03 25-Dec-2016

 ----------------------------------------------------------------------
 # B3LYP/6-311++G(d,p) empiricaldispersion=gd3bj scf=xqc pop=npa geom=c
 heck
 ----------------------------------------------------------------------

 ------------------------------------
 CID_111662948_JID_8538_Energie_anion
 ------------------------------------
 Structure from the checkpoint file:  "JID_8538.chk"
 Charge = -1 Multiplicity = 2

                         Standard orientation:
 ---------------------------------------------------------------------
 Center     Atomic      Atomic             Coordinates (Angstroms)
 Number     Number       Type             X           Y           Z
 ---------------------------------------------------------------------
      1          6           0       -3.653339    1.445510   -1.439323
      2          6           0       -3.674586    0.516349   -0.264077
      3          6           0       -2.808608   -0.513015    0.024342
      4          8           0       -3.219105   -1.170917    1.157870
      5          6           0       -4.335627   -0.543649    1.598327
      6          6           0       -4.666639    0.487917    0.772342
      7          6           0       -1.654508   -1.119773   -0.671387
      8          8           0       -1.468964   -2.331414   -0.686208
      9          7           0       -0.822277   -0.242641   -1.349781
     10          6           0       -0.354988    1.017588   -0.765486
     11          6           0        0.395471    0.843283    0.570678
     12          6           0        1.461477   -0.243238    0.506858
     13          8           0        2.340388    0.124398   -0.551071
     14          6           0        3.493983   -0.704869   -0.675825
     15          6           0        4.491818   -0.535330    0.444981
     16          6           0        5.967220   -0.526021    0.120540
     17          6           0        5.276913    0.749716    0.528932
     18          8           0        0.974070    2.084899    0.951252
     19          1           0       -4.644907    1.499372   -1.902423
     20          1           0       -3.382001    2.466052   -1.140218
     21          1           0       -2.938317    1.111513   -2.194760
     22          1           0       -4.769247   -0.939450    2.504236
     23          1           0       -5.516151    1.149830    0.870728
     24          1           0       -0.078886   -0.766331   -1.803129
     25          1           0        0.320391    1.475906   -1.491618
     26          1           0       -1.188019    1.703642   -0.613113
     27          1           0       -0.322794    0.578239    1.355249
     28          1           0        1.990319   -0.270042    1.468585
     29          1           0        1.022271   -1.234484    0.321561
     30          1           0        3.182653   -1.757641   -0.761713
     31          1           0        3.951413   -0.411080   -1.626608
     32          1           0        4.217719   -0.996973    1.390691
     33          1           0        6.647954   -0.996441    0.823700
     34          1           0        6.259073   -0.638673   -0.920644
     35          1           0        5.093408    1.498358   -0.237458
     36          1           0        5.486949    1.161483    1.511500
     37          1           0        1.781471    2.162665    0.413746
 ---------------------------------------------------------------------

 SCF Done:  E(UB3LYP) =  -862.711564746     A.U. after   33 cycles
 SCF Done:  E(UB3LYP) =  -862.715417680     a.u. after    6 cycles

 The electronic state is 2-A.
 Alpha  occ. eigenvalues --  -19.07023 -19.04097 -19.03033 -18.96463 -14.21602
 Alpha  occ. eigenvalues --  -10.14359 -10.13200 -10.12703 -10.12381 -10.11355
 Alpha  occ. eigenvalues --  -10.10449 -10.10115 -10.09104 -10.08481 -10.08335
 Alpha  occ. eigenvalues --  -10.07591 -10.07112 -10.06763  -1.00119  -0.95714
 Alpha  occ. eigenvalues --   -0.92932  -0.91562  -0.80765  -0.77442  -0.71125
 Alpha  occ. eigenvalues --   -0.67245  -0.65344  -0.61933  -0.60673  -0.58052
 Alpha  occ. eigenvalues --   -0.52777  -0.51436  -0.50764  -0.48598  -0.48003
 Alpha  occ. eigenvalues --   -0.43435  -0.43117  -0.41214  -0.41135  -0.40642
 Alpha  occ. eigenvalues --   -0.39138  -0.37899  -0.37368  -0.36017  -0.34648
 Alpha  occ. eigenvalues --   -0.33825  -0.33010  -0.32779  -0.31651  -0.31101
 Alpha  occ. eigenvalues --   -0.30699  -0.29630  -0.28829  -0.28108  -0.27855
 Alpha  occ. eigenvalues --   -0.27749  -0.26809  -0.25499  -0.24188  -0.23901
 Alpha  occ. eigenvalues --   -0.21338  -0.20499  -0.19949  -0.17929  -0.17205
 Alpha  occ. eigenvalues --   -0.15411  -0.13666  -0.12602   0.04371
 Alpha virt. eigenvalues --    0.05554   0.06791   0.06995   0.07596   0.08051
 Alpha virt. eigenvalues --    0.08539   0.09500   0.09796   0.10037   0.10550
 Alpha virt. eigenvalues --    0.11066   0.11590   0.11768   0.12013   0.12598

  Beta  occ. eigenvalues --  -19.06843 -19.04094 -19.03029 -18.96236 -14.21578
  Beta  occ. eigenvalues --  -10.14158 -10.13187 -10.12693 -10.12381 -10.11201
  Beta  occ. eigenvalues --  -10.10390 -10.10096 -10.09098 -10.08448 -10.08315
  Beta  occ. eigenvalues --  -10.07601 -10.06974 -10.06816  -0.99823  -0.95706
  Beta  occ. eigenvalues --   -0.92921  -0.91158  -0.80602  -0.77421  -0.70923
  Beta  occ. eigenvalues --   -0.67203  -0.65094  -0.61872  -0.60574  -0.58010
  Beta  occ. eigenvalues --   -0.52508  -0.51351  -0.50579  -0.48532  -0.47958
  Beta  occ. eigenvalues --   -0.43319  -0.43006  -0.41118  -0.41065  -0.40606
  Beta  occ. eigenvalues --   -0.39096  -0.37778  -0.37299  -0.35687  -0.34281
  Beta  occ. eigenvalues --   -0.33676  -0.32947  -0.32641  -0.31428  -0.31046
  Beta  occ. eigenvalues --   -0.30537  -0.29450  -0.28752  -0.28020  -0.27808
  Beta  occ. eigenvalues --   -0.27609  -0.26073  -0.25349  -0.24149  -0.23871
  Beta  occ. eigenvalues --   -0.21300  -0.20473  -0.19796  -0.17916  -0.16666
  Beta  occ. eigenvalues --   -0.15038  -0.13297  -0.11720
  Beta virt. eigenvalues --    0.06578   0.06874   0.07394   0.07911   0.08075
  Beta virt. eigenvalues --    0.08365   0.08738   0.09699   0.09844   0.10159
  Beta virt. eigenvalues --    0.10798   0.11201   0.11631   0.11897   0.12259

 Mulliken charges and spin densities:
               1          2
     1  C   -0.821879  -0.062788
     2  C    0.263885   0.099668
     3  C   -0.071839  -0.027020
     4  O    0.024119   0.024411
     5  C   -0.189241   0.137694
     6  C    0.092730  -0.065185
     7  C   -0.374583   0.236251
     8  O   -0.332595   0.079295
     9  N   -0.086105  -0.014132
    10  C    0.024882  -0.141002
    11  C   -0.344592  -0.011275
    12  C   -0.660985  -0.063578
    13  O   -0.074820   0.035321
    14  C    1.022471  -1.503894
    15  C   -1.975462   2.385505
    16  C    1.471954  -1.914064
    17  C    0.382136  -0.771477
    18  O   -0.160701   0.000907
    19  H    0.135167  -0.003230
    20  H    0.119340   0.040360
    21  H    0.164566   0.014586
    22  H    0.138902  -0.008293
    23  H    0.128144   0.009725
    24  H    0.302984   0.030475
    25  H   -0.101206   0.323702
    26  H    0.186109  -0.042586
    27  H    0.184454   0.065741
    28  H    0.225172  -0.057794
    29  H    0.235470  -0.045878
    30  H    0.138378  -0.007811
    31  H   -0.249898   0.411187
    32  H   -0.199148   0.407814
    33  H   -0.348375   0.501762
    34  H   -0.305388   0.435772
    35  H   -0.099344   0.255188
    36  H   -0.080826   0.227194
    37  H    0.236123   0.017451
 Sum of Mulliken charges =  -1.00000   1.00000

 Dipole moment (field-independent basis, Debye):
    X=             -6.4409    Y=              2.5607    Z=              0.4627  Tot=              6.9467
 Quadrupole moment (field-independent basis, Debye-Ang):
   XX=           -218.8335   YY=           -142.8657   ZZ=           -132.8084
   XY=             -8.8766   XZ=             -2.7564   YZ=             -4.1601

 Summary of Natural Population Analysis:

                                       Natural Population
                Natural  -----------------------------------------------
    Atom  No    Charge         Core      Valence    Rydberg      Total
 -----------------------------------------------------------------------
      C    1   -0.29851      0.99964     2.29416    0.00472     3.29851
      C    2   -0.02599      0.99949     2.01871    0.00779     3.02599
      C    3    0.10674      0.99935     1.87961    0.01430     2.89326
      O    4   -0.20919      0.99986     3.20127    0.00806     4.20919
      C    5    0.09454      0.99953     1.89203    0.01390     2.90546
      C    6   -0.17235      0.99953     2.16455    0.00827     3.17235
      C    7    0.33917      0.99962     1.63864    0.02257     2.66083
      O    8   -0.29463      0.99988     3.28927    0.00548     4.29463
      N    9   -0.32817      0.99969     2.81749    0.01099     3.82817
      C   10   -0.10147      0.99959     2.08761    0.01427     3.10147
      C   11    0.04811      0.99956     1.93922    0.01311     2.95189
      C   12   -0.02840      0.99956     2.01876    0.01008     3.02840
      O   13   -0.31334      0.99988     3.30303    0.01042     4.31334
      C   14   -0.00858      0.99955     1.99514    0.01389     3.00858
      C   15   -0.13464      0.99959     2.12502    0.01002     3.13464
      C   16   -0.19374      0.99962     2.18440    0.00972     3.19374
      C   17   -0.19745      0.99962     2.18732    0.01051     3.19745
      O   18   -0.37139      0.99990     3.36501    0.00648     4.37139
      H   19    0.09991      0.00000     0.39915    0.00095     0.40009
      H   20    0.10037      0.00000     0.39821    0.00143     0.39963
      H   21    0.11231      0.00000     0.38662    0.00107     0.38769
      H   22    0.08757      0.00000     0.41149    0.00094     0.41243
      H   23    0.10160      0.00000     0.39760    0.00081     0.39840
      H   24    0.18770      0.00000     0.30943    0.00287     0.31230
      H   25    0.10051      0.00000     0.39821    0.00128     0.39949
      H   26    0.10099      0.00000     0.39773    0.00128     0.39901
      H   27    0.09397      0.00000     0.40473    0.00130     0.40603
      H   28    0.08593      0.00000     0.41268    0.00139     0.41407
      H   29    0.09447      0.00000     0.40412    0.00142     0.40553
      H   30    0.08300      0.00000     0.41575    0.00125     0.41700
      H   31    0.09230      0.00000     0.40617    0.00153     0.40770
      H   32    0.10286      0.00000     0.39589    0.00125     0.39714
      H   33    0.10511      0.00000     0.39315    0.00174     0.39489
      H   34    0.10247      0.00000     0.39598    0.00156     0.39753
      H   35    0.10312      0.00000     0.39569    0.00119     0.39688
      H   36    0.10401      0.00000     0.39495    0.00104     0.39599
      H   37    0.23110      0.00000     0.26588    0.00302     0.26890
 =======================================================================
   * Total *    0.00000     17.99346    49.78466    0.22188    68.00000

 Normal termination of Gaussian 16 at Fri Dec 11 23:10:51 2020.
