 Gaussian 16, Revision A.03,

 -----------------------------------------------------------
 # opt freq B3LYP/6-31G(d) empiricaldispersion=gd3bj scf=xqc
 -----------------------------------------------------------

 -------------------------------
 CID_139584602_JID_9186_neutraal
 -------------------------------
 Symbolic Z-matrix:
 Charge =  0 Multiplicity = 1

 SCF Done:  E(RB3LYP) =  -920.416478047     A.U. after   15 cycles
 SCF Done:  E(RB3LYP) =  -920.423970199     A.U. after   13 cycles
 SCF Done:  E(RB3LYP) =  -920.423570233     A.U. after   13 cycles
 SCF Done:  E(RB3LYP) =  -920.425459931     A.U. after   12 cycles
 SCF Done:  E(RB3LYP) =  -920.425851837     A.U. after   12 cycles
 SCF Done:  E(RB3LYP) =  -920.426035397     A.U. after   13 cycles
 SCF Done:  E(RB3LYP) =  -920.426274008     A.U. after   12 cycles
 SCF Done:  E(RB3LYP) =  -920.426324354     A.U. after   12 cycles
 SCF Done:  E(RB3LYP) =  -920.426417773     A.U. after   11 cycles
 SCF Done:  E(RB3LYP) =  -920.426442550     A.U. after   10 cycles
 SCF Done:  E(RB3LYP) =  -920.426460858     A.U. after    9 cycles
 SCF Done:  E(RB3LYP) =  -920.426463617     A.U. after    9 cycles
 SCF Done:  E(RB3LYP) =  -920.426464484     A.U. after    8 cycles
 SCF Done:  E(RB3LYP) =  -920.426464646     A.U. after    8 cycles
 SCF Done:  E(RB3LYP) =  -920.426464657     A.U. after    7 cycles
 SCF Done:  E(RB3LYP) =  -920.426464638     A.U. after    7 cycles
 Optimization completed.
    -- Stationary point found.
 Normal termination of Gaussian 16 at Sun Dec 13 16:21:34 2020.

 --------------------------------------------------------------------
 #N Geom=AllCheck Guess=TCheck SCRF=Check GenChk RB3LYP/6-31G(d) Freq
 --------------------------------------------------------------------

 Structure from the checkpoint file:  "JID_9186.chk"
 -------------------------------
 CID_139584602_JID_9186_neutraal
 -------------------------------
 Charge =  0 Multiplicity = 1

 SCF Done:  E(RB3LYP) =  -920.426464638     A.U. after    1 cycles

  Exact polarizability: 193.452  -2.317 155.104  -2.247  -4.264 118.116
 Approx polarizability: 261.318  -1.709 224.302  -2.466  -7.132 206.242

                      1                      2                      3
                      A                      A                      A
 Frequencies --     33.2297                43.0369                55.5468
 Red. masses --      5.1080                 4.1141                 4.9927
 Frc consts  --      0.0033                 0.0045                 0.0091
 IR Inten    --      0.1434                 1.6293                 0.7780

                      4                      5                      6
                      A                      A                      A
 Frequencies --     75.0389               101.0844               120.7253
 Red. masses --      7.1734                 7.0799                 4.5370
 Frc consts  --      0.0238                 0.0426                 0.0390
 IR Inten    --      1.8296                 0.4609                 7.4102

                      7                      8                      9
                      A                      A                      A
 Frequencies --    132.5719               149.1902               178.6962
 Red. masses --      3.9757                 4.9882                 3.7079
 Frc consts  --      0.0412                 0.0654                 0.0698
 IR Inten    --      1.8991                 0.2358                 3.0374

                     10                     11                     12
                      A                      A                      A
 Frequencies --    188.7920               207.2299               219.0596
 Red. masses --      5.6561                 4.6718                 1.5153
 Frc consts  --      0.1188                 0.1182                 0.0428
 IR Inten    --      0.8584                 1.1513                 0.3633

                     13                     14                     15
                      A                      A                      A
 Frequencies --    230.9036               245.2993               261.0570
 Red. masses --      2.9903                 2.9333                 3.4023
 Frc consts  --      0.0939                 0.1040                 0.1366
 IR Inten    --      3.0157                 1.6904                 3.0017

                     16                     17                     18
                      A                      A                      A
 Frequencies --    286.0158               306.9231               326.3120
 Red. masses --      2.8007                 2.9620                 3.3448
 Frc consts  --      0.1350                 0.1644                 0.2098
 IR Inten    --      2.0924                 0.7118                 3.0593

                     19                     20                     21
                      A                      A                      A
 Frequencies --    354.0987               374.8945               401.2293
 Red. masses --      3.3770                 1.5127                 2.3583
 Frc consts  --      0.2495                 0.1253                 0.2237
 IR Inten    --      3.6542                79.6715                17.6034

                     22                     23                     24
                      A                      A                      A
 Frequencies --    419.9458               442.5328               462.2890
 Red. masses --      2.4503                 3.2367                 2.6833
 Frc consts  --      0.2546                 0.3735                 0.3379
 IR Inten    --      1.0683                32.5913                 7.4477

                     25                     26                     27
                      A                      A                      A
 Frequencies --    480.9476               533.5940               576.2949
 Red. masses --      2.3851                 5.1170                 4.2591
 Frc consts  --      0.3250                 0.8584                 0.8334
 IR Inten    --      3.5965                 9.4151                15.6208

                     28                     29                     30
                      A                      A                      A
 Frequencies --    590.4722               613.8139               641.8938
 Red. masses --      4.9066                 3.9787                 3.8045
 Frc consts  --      1.0079                 0.8832                 0.9236
 IR Inten    --      0.4331                 4.7917                 5.3791

                     31                     32                     33
                      A                      A                      A
 Frequencies --    708.6568               739.6683               769.8737
 Red. masses --      3.4837                 2.9906                 2.0085
 Frc consts  --      1.0308                 0.9640                 0.7014
 IR Inten    --      0.9861                 8.7528                19.8554

                     34                     35                     36
                      A                      A                      A
 Frequencies --    779.1031               812.4978               838.4561
 Red. masses --      2.0514                 3.3523                 3.8468
 Frc consts  --      0.7336                 1.3039                 1.5933
 IR Inten    --      8.3604                21.3734                 9.5829

                     37                     38                     39
                      A                      A                      A
 Frequencies --    851.7862               868.0326               883.4597
 Red. masses --      4.0104                 2.6399                 3.5370
 Frc consts  --      1.7144                 1.1720                 1.6265
 IR Inten    --     18.3003                 3.1201                10.7262

                     40                     41                     42
                      A                      A                      A
 Frequencies --    887.7823               901.2584               920.0616
 Red. masses --      3.3132                 3.2379                 2.8631
 Frc consts  --      1.5385                 1.5496                 1.4280
 IR Inten    --     30.1204                 4.4373                 9.2885

                     43                     44                     45
                      A                      A                      A
 Frequencies --    928.0166               949.3137               963.9611
 Red. masses --      3.2050                 3.1477                 1.8502
 Frc consts  --      1.6263                 1.6713                 1.0129
 IR Inten    --     11.2253                44.8567                 5.0153

                     46                     47                     48
                      A                      A                      A
 Frequencies --   1000.9555              1010.6026              1013.8796
 Red. masses --      1.9633                 1.4590                 1.1392
 Frc consts  --      1.1589                 0.8780                 0.6899
 IR Inten    --     15.1719                 5.6530                30.6318

                     49                     50                     51
                      A                      A                      A
 Frequencies --   1018.4448              1048.8831              1075.7657
 Red. masses --      2.3138                 2.3985                 2.4003
 Frc consts  --      1.4140                 1.5547                 1.6366
 IR Inten    --      9.2510                19.0969                29.8970

                     52                     53                     54
                      A                      A                      A
 Frequencies --   1083.2906              1105.6659              1123.1493
 Red. masses --      1.6678                 2.3849                 2.2877
 Frc consts  --      1.1532                 1.7178                 1.7003
 IR Inten    --     63.0259                 6.1016                50.4859

                     55                     56                     57
                      A                      A                      A
 Frequencies --   1132.4130              1154.1339              1161.2349
 Red. masses --      1.4113                 1.2458                 1.8571
 Frc consts  --      1.0663                 0.9777                 1.4754
 IR Inten    --     26.1859                15.9253                13.1027

                     58                     59                     60
                      A                      A                      A
 Frequencies --   1179.3460              1225.5246              1243.7063
 Red. masses --      2.0343                 1.6028                 2.2889
 Frc consts  --      1.6671                 1.4184                 2.0859
 IR Inten    --     30.2065               172.4813               216.8207

                     61                     62                     63
                      A                      A                      A
 Frequencies --   1253.7278              1261.4536              1263.3434
 Red. masses --      1.2461                 1.3712                 1.4655
 Frc consts  --      1.1540                 1.2856                 1.3781
 IR Inten    --     17.4304                18.5263                90.1595

                     64                     65                     66
                      A                      A                      A
 Frequencies --   1286.4801              1318.1558              1326.1819
 Red. masses --      1.7576                 1.2641                 1.4683
 Frc consts  --      1.7138                 1.2941                 1.5215
 IR Inten    --      9.2068                 2.5573                 9.2881

                     67                     68                     69
                      A                      A                      A
 Frequencies --   1345.0586              1348.8601              1366.0292
 Red. masses --      1.3077                 1.3657                 1.6557
 Frc consts  --      1.3939                 1.4639                 1.8203
 IR Inten    --      3.7153                 7.5034                16.4531

                     70                     71                     72
                      A                      A                      A
 Frequencies --   1381.3029              1388.5311              1403.0225
 Red. masses --      1.2190                 1.3458                 1.2923
 Frc consts  --      1.3704                 1.5287                 1.4988
 IR Inten    --      6.9428                 6.9607                 2.2412

                     73                     74                     75
                      A                      A                      A
 Frequencies --   1408.7140              1423.3092              1427.0870
 Red. masses --      1.3432                 1.2531                 1.3791
 Frc consts  --      1.5705                 1.4957                 1.6548
 IR Inten    --      2.7685                39.3795                 5.6280

                     76                     77                     78
                      A                      A                      A
 Frequencies --   1442.1350              1448.3877              1476.4781
 Red. masses --      1.3393                 1.4920                 2.1935
 Frc consts  --      1.6411                 1.8441                 2.8173
 IR Inten    --     40.0921                54.1631                47.0034

                     79                     80                     81
                      A                      A                      A
 Frequencies --   1509.3597              1515.9011              1518.7260
 Red. masses --      1.0956                 1.0651                 1.0551
 Frc consts  --      1.4705                 1.4421                 1.4338
 IR Inten    --      7.4899                 3.6924                 4.5956

                     82                     83                     84
                      A                      A                      A
 Frequencies --   1526.8824              1536.3165              1725.4651
 Red. masses --      1.0784                 1.0736                 7.6231
 Frc consts  --      1.4814                 1.4930                13.3719
 IR Inten    --      7.4452                 5.6247                19.6286

                     85                     86                     87
                      A                      A                      A
 Frequencies --   1747.4316              1790.6945              1807.8348
 Red. masses --      5.8936                12.2904                10.7275
 Frc consts  --     10.6030                23.2197                20.6570
 IR Inten    --      1.3182               192.0522               165.6765

                     88                     89                     90
                      A                      A                      A
 Frequencies --   3042.5799              3049.6622              3056.5031
 Red. masses --      1.0832                 1.0635                 1.0610
 Frc consts  --      5.9079                 5.8276                 5.8401
 IR Inten    --     24.0339                13.7121                20.0127

                     91                     92                     93
                      A                      A                      A
 Frequencies --   3060.4518              3062.6186              3089.7368
 Red. masses --      1.0589                 1.0467                 1.1004
 Frc consts  --      5.8436                 5.7843                 6.1892
 IR Inten    --      1.3193                33.7886                22.1981

                     94                     95                     96
                      A                      A                      A
 Frequencies --   3117.2155              3122.0972              3124.4658
 Red. masses --      1.0894                 1.0980                 1.0988
 Frc consts  --      6.2372                 6.3060                 6.3200
 IR Inten    --     13.7390                14.7673                15.6510

                     97                     98                     99
                      A                      A                      A
 Frequencies --   3135.8060              3141.9609              3145.7351
 Red. masses --      1.1006                 1.0982                 1.0880
 Frc consts  --      6.3765                 6.3878                 6.3435
 IR Inten    --     22.0018                23.1636                15.4305

                    100                    101                    102
                      A                      A                      A
 Frequencies --   3162.7255              3183.1277              3185.8749
 Red. masses --      1.0842                 1.0933                 1.0897
 Frc consts  --      6.3895                 6.5270                 6.5164
 IR Inten    --      9.2113                14.3429                 0.8741

                    103                    104                    105
                      A                      A                      A
 Frequencies --   3186.8094              3214.7964              3720.8370
 Red. masses --      1.0892                 1.0893                 1.0661
 Frc consts  --      6.5172                 6.6327                 8.6959
 IR Inten    --      9.7177                 0.6073                 8.7982

 - Thermochemistry -
 -------------------
 Temperature   298.150 Kelvin.  Pressure   1.00000 Atm.
 Atom     1 has atomic number  6 and mass  12.00000

 Molecular mass:   266.11542 amu.
 Principal axes and moments of inertia in atomic units:
                           1         2         3
     Eigenvalues --  3800.914985517.861628157.89575
           X            0.99823  -0.05931  -0.00388
           Y            0.05932   0.99824   0.00209
           Z            0.00375  -0.00232   0.99999
 This molecule is an asymmetric top.
 Rotational symmetry number  1.
 Warning -- assumption of classical behavior for rotation
           may cause significant error
 Rotational temperatures (Kelvin)      0.02279     0.01570     0.01062
 Rotational constants (GHZ):           0.47482     0.32707     0.22123
 Zero-point vibrational energy     804378.1 (Joules/Mol)
                                  192.25098 (Kcal/Mol)
 Warning -- explicit consideration of  29 degrees of freedom as
           vibrations may cause significant error
 Vibrational temperatures:     47.81    61.92    79.92   107.96   145.44
          (Kelvin)            173.70   190.74   214.65   257.10   271.63
                              298.16   315.18   332.22   352.93   375.60
                              411.51   441.59   469.49   509.47   539.39
                              577.28   604.21   636.71   665.13   691.98
                              767.72   829.16   849.56   883.14   923.54
                             1019.60  1064.22  1107.68  1120.96  1169.00
                             1206.35  1225.53  1248.91  1271.10  1277.32
                             1296.71  1323.76  1335.21  1365.85  1386.93
                             1440.15  1454.03  1458.75  1465.31  1509.11
                             1547.79  1558.61  1590.81  1615.96  1629.29
                             1660.54  1670.76  1696.82  1763.26  1789.42
                             1803.83  1814.95  1817.67  1850.96  1896.53
                             1908.08  1935.24  1940.71  1965.41  1987.39
                             1997.79  2018.64  2026.83  2047.82  2053.26
                             2074.91  2083.91  2124.32  2171.63  2181.04
                             2185.11  2196.84  2210.42  2482.56  2514.16
                             2576.41  2601.07  4377.59  4387.78  4397.63
                             4403.31  4406.43  4445.44  4484.98  4492.00
                             4495.41  4511.73  4520.58  4526.01  4550.46
                             4579.81  4583.76  4585.11  4625.37  5353.45

 Zero-point correction=                           0.306371 (Hartree/Particle)
 Thermal correction to Energy=                    0.324703
 Thermal correction to Enthalpy=                  0.325647
 Thermal correction to Gibbs Free Energy=         0.259880
 Sum of electronic and zero-point Energies=           -920.120093
 Sum of electronic and thermal Energies=              -920.101762
 Sum of electronic and thermal Enthalpies=            -920.100818
 Sum of electronic and thermal Free Energies=         -920.166584

                     E (Thermal)             CV                S
                      KCal/Mol        Cal/Mol-Kelvin    Cal/Mol-Kelvin
 Total                  203.754             69.979            138.418
 Electronic               0.000              0.000              0.000
 Translational            0.889              2.981             42.635
 Rotational               0.889              2.981             33.503
 Vibrational            201.977             64.018             62.280
 Vibration     1          0.594              1.983              5.627
 Vibration     2          0.595              1.980              5.114
 Vibration     3          0.596              1.975              4.609
 Vibration     4          0.599              1.966              4.017
 Vibration     5          0.604              1.948              3.433
 Vibration     6          0.609              1.932              3.089
 Vibration     7          0.613              1.921              2.908
 Vibration     8          0.618              1.904              2.683
 Vibration     9          0.629              1.869              2.342
 Vibration    10          0.633              1.855              2.240
 Vibration    11          0.641              1.830              2.068
 Vibration    12          0.647              1.812              1.967
 Vibration    13          0.653              1.794              1.872
 Vibration    14          0.660              1.771              1.764
 Vibration    15          0.669              1.744              1.655
 Vibration    16          0.684              1.700              1.497
 Vibration    17          0.697              1.661              1.379
 Vibration    18          0.710              1.623              1.278
 Vibration    19          0.730              1.567              1.148
 Vibration    20          0.746              1.524              1.060
 Vibration    21          0.767              1.467              0.958
 Vibration    22          0.783              1.427              0.892
 Vibration    23          0.802              1.377              0.819
 Vibration    24          0.820              1.334              0.759
 Vibration    25          0.837              1.292              0.708
 Vibration    26          0.889              1.176              0.579
 Vibration    27          0.933              1.083              0.492
 Vibration    28          0.948              1.052              0.466
 Vibration    29          0.973              1.003              0.427

                           ! Non-Optimized Parameters !
 Normal termination of Gaussian 16 at Sun Dec 13 16:43:59 2020.

 ----------------------------------------------------------------------
 # B3LYP/6-311++G(d,p) empiricaldispersion=gd3bj scf=xqc pop=npa geom=c
 heck
 ----------------------------------------------------------------------

 ---------------------------------------
 CID_139584602_JID_9186_Energie_neutraal
 ---------------------------------------
 Structure from the checkpoint file:  "JID_9186.chk"
 Charge =  0 Multiplicity = 1

 SCF Done:  E(RB3LYP) =  -920.698277168     A.U. after   15 cycles
 Normal termination of Gaussian 16 at Sun Dec 13 16:53:27 2020.

 ----------------------------------------------------------------------
 # B3LYP/6-311++G(d,p) empiricaldispersion=gd3bj scf=xqc pop=npa geom=c
 heck
 ----------------------------------------------------------------------

 -------------------------------------
 CID_139584602_JID_9186_Energie_kation
 -------------------------------------
 Structure from the checkpoint file:  "JID_9186.chk"
 Charge =  1 Multiplicity = 2

 SCF Done:  E(UB3LYP) =  -920.381489190     A.U. after   29 cycles
 Normal termination of Gaussian 16 at Sun Dec 13 17:20:00 2020.
 Gaussian 16:  ES64L-G16RevA.03 25-Dec-2016

 ----------------------------------------------------------------------
 # B3LYP/6-311++G(d,p) empiricaldispersion=gd3bj scf=xqc pop=npa geom=c
 heck
 ----------------------------------------------------------------------

 ------------------------------------
 CID_139584602_JID_9186_Energie_anion
 ------------------------------------
 Structure from the checkpoint file:  "JID_9186.chk"
 Charge = -1 Multiplicity = 2

                         Standard orientation:
 ---------------------------------------------------------------------
 Center     Atomic      Atomic             Coordinates (Angstroms)
 Number     Number       Type             X           Y           Z
 ---------------------------------------------------------------------
      1          6           0       -1.356496    3.659852    0.211060
      2          6           0       -0.913596    2.217574    0.026584
      3          6           0       -1.469605    1.254776    1.082053
      4          6           0       -2.944588    0.868847    0.878730
      5          6           0       -3.253890    0.000721   -0.366081
      6          6           0       -2.664918   -1.400806   -0.259293
      7          8           0       -3.317037   -2.348769    0.137143
      8          6           0       -1.202433   -1.525073   -0.580577
      9          6           0       -0.335262   -2.275759    0.382381
     10          8           0       -0.678950   -2.814460   -0.890414
     11          6           0        1.058789   -1.848110    0.656487
     12          6           0        1.920739   -1.427130   -0.271400
     13          6           0        3.304511   -0.923976    0.035719
     14          6           0        3.551644    0.548802   -0.241008
     15          6           0        2.694126    1.549986   -0.470082
     16          6           0        1.230544    1.460588   -0.744519
     17          8           0        0.726461    0.855453   -1.670821
     18          8           0        0.542478    2.209940    0.140999
     19          8           0        3.707120   -1.157975    1.389745
     20          1           0       -1.036308    4.039431    1.187166
     21          1           0       -2.447492    3.732423    0.153625
     22          1           0       -0.930769    4.299097   -0.568115
     23          1           0       -1.157500    1.868887   -0.978316
     24          1           0       -0.846150    0.356082    1.088738
     25          1           0       -1.352262    1.718192    2.069787
     26          1           0       -3.289113    0.323778    1.765478
     27          1           0       -3.559217    1.775595    0.822018
     28          1           0       -4.337956   -0.113978   -0.453663
     29          1           0       -2.887033    0.492641   -1.275215
     30          1           0       -0.741596   -0.708193   -1.130618
     31          1           0       -0.862618   -2.759011    1.204858
     32          1           0        1.359603   -1.877755    1.700878
     33          1           0        1.633538   -1.416933   -1.318385
     34          1           0        4.023831   -1.500009   -0.561994
     35          1           0        4.593960    0.820144   -0.080626
     36          1           0        3.074487    2.569665   -0.459939
     37          1           0        3.204642   -0.535330    1.940778
 ---------------------------------------------------------------------

 SCF Done:  E(UB3LYP) =  -920.707374493     A.U. after   31 cycles

 The electronic state is 2-A.
 Alpha  occ. eigenvalues --  -19.05001 -19.01992 -19.01814 -18.98503 -18.97260
 Alpha  occ. eigenvalues --  -10.17610 -10.12882 -10.12284 -10.11427 -10.11095
 Alpha  occ. eigenvalues --  -10.09779 -10.07579 -10.07374 -10.07038 -10.06443
 Alpha  occ. eigenvalues --  -10.06416 -10.06313 -10.05056 -10.04875  -0.98850
 Alpha  occ. eigenvalues --   -0.96379  -0.92298  -0.90636  -0.90105  -0.71804
 Alpha  occ. eigenvalues --   -0.69299  -0.67226  -0.66014  -0.60814  -0.60049
 Alpha  occ. eigenvalues --   -0.57693  -0.54641  -0.53155  -0.49535  -0.46997
 Alpha  occ. eigenvalues --   -0.45189  -0.43858  -0.42819  -0.40298  -0.39012
 Alpha  occ. eigenvalues --   -0.38038  -0.37478  -0.36768  -0.35858  -0.35442
 Alpha  occ. eigenvalues --   -0.34197  -0.33267  -0.32750  -0.32243  -0.30881
 Alpha  occ. eigenvalues --   -0.30230  -0.29668  -0.28929  -0.28547  -0.27501
 Alpha  occ. eigenvalues --   -0.26715  -0.26374  -0.25306  -0.24461  -0.24185
 Alpha  occ. eigenvalues --   -0.24045  -0.23444  -0.22633  -0.20270  -0.19359
 Alpha  occ. eigenvalues --   -0.18682  -0.17379  -0.16517  -0.15059  -0.13615
 Alpha  occ. eigenvalues --   -0.11608   0.03837
 Alpha virt. eigenvalues --    0.06260   0.06774   0.07638   0.08494   0.08925
 Alpha virt. eigenvalues --    0.09717   0.09857   0.10585   0.10980   0.11211
 Alpha virt. eigenvalues --    0.11809   0.11959   0.12261   0.13358   0.13622

  Beta  occ. eigenvalues --  -19.04966 -19.01938 -19.01763 -18.98304 -18.96992
  Beta  occ. eigenvalues --  -10.17471 -10.12878 -10.12297 -10.11198 -10.11040
  Beta  occ. eigenvalues --  -10.09781 -10.07536 -10.07355 -10.07037 -10.06463
  Beta  occ. eigenvalues --  -10.06306 -10.06136 -10.05003 -10.04771  -0.98678
  Beta  occ. eigenvalues --   -0.96295  -0.92164  -0.90141  -0.89829  -0.71723
  Beta  occ. eigenvalues --   -0.69014  -0.67062  -0.65778  -0.60641  -0.59824
  Beta  occ. eigenvalues --   -0.57478  -0.54426  -0.52968  -0.49401  -0.46818
  Beta  occ. eigenvalues --   -0.45043  -0.43686  -0.42628  -0.40107  -0.38861
  Beta  occ. eigenvalues --   -0.37931  -0.37323  -0.36494  -0.35659  -0.35279
  Beta  occ. eigenvalues --   -0.34051  -0.33121  -0.32627  -0.32021  -0.30781
  Beta  occ. eigenvalues --   -0.30006  -0.29488  -0.28672  -0.28300  -0.27299
  Beta  occ. eigenvalues --   -0.26286  -0.26214  -0.25105  -0.24116  -0.24060
  Beta  occ. eigenvalues --   -0.23833  -0.23296  -0.22397  -0.19720  -0.18925
  Beta  occ. eigenvalues --   -0.18410  -0.17030  -0.16333  -0.14431  -0.13213
  Beta  occ. eigenvalues --   -0.11272
  Beta virt. eigenvalues --    0.06492   0.07645   0.07898   0.08351   0.08728
  Beta virt. eigenvalues --    0.09268   0.09798   0.10041   0.10592   0.11062
  Beta virt. eigenvalues --    0.11474   0.11935   0.12026   0.12475   0.13602

 Mulliken charges and spin densities:
               1          2
     1  C   -0.069807  -0.695873
     2  C   -0.871139   0.235601
     3  C    0.099299   0.244926
     4  C   -0.111330  -0.440377
     5  C   -0.288409   0.109813
     6  C    0.013237   0.129003
     7  O   -0.329543   0.091506
     8  C   -0.151823   0.018441
     9  C   -1.046951   0.073369
    10  O   -0.082806   0.004656
    11  C    0.245056   0.043205
    12  C    0.076153   0.041813
    13  C   -0.455854   0.071607
    14  C   -0.123640  -0.062414
    15  C    0.037905   0.161768
    16  C   -0.225340   0.032729
    17  O   -0.203591   0.060060
    18  O    0.164347   0.012142
    19  O   -0.193232   0.006546
    20  H    0.092110   0.059682
    21  H   -0.086760   0.230749
    22  H    0.075431   0.065623
    23  H    0.255503  -0.017565
    24  H    0.281372   0.014146
    25  H    0.131403   0.021500
    26  H    0.187239  -0.022708
    27  H   -0.089523   0.224137
    28  H    0.148105   0.059778
    29  H    0.106115   0.009276
    30  H    0.336803  -0.000750
    31  H    0.229560  -0.000753
    32  H    0.086321   0.008132
    33  H    0.206115  -0.005101
    34  H    0.173069   0.009911
    35  H    0.124555   0.050395
    36  H    0.043354   0.139253
    37  H    0.216694   0.015773
 Sum of Mulliken charges =  -1.00000   1.00000

 Dipole moment (field-independent basis, Debye):
    X=              0.8886    Y=              4.2509    Z=              1.7295  Tot=              4.6745
 Quadrupole moment (field-independent basis, Debye-Ang):
   XX=           -169.2110   YY=           -157.1660   ZZ=           -126.3592
   XY=             -8.1260   XZ=             -0.5291   YZ=             -1.1177

 Summary of Natural Population Analysis:

                                       Natural Population
                Natural  -----------------------------------------------
    Atom  No    Charge         Core      Valence    Rydberg      Total
 -----------------------------------------------------------------------
      C    1   -0.29179      0.99964     2.28655    0.00560     3.29179
      C    2    0.05415      0.99953     1.93424    0.01208     2.94585
      C    3   -0.20416      0.99960     2.19503    0.00954     3.20416
      C    4   -0.18385      0.99962     2.17560    0.00863     3.18385
      C    5   -0.23467      0.99960     2.22555    0.00952     3.23467
      C    6    0.29932      0.99965     1.68032    0.02071     2.70068
      O    7   -0.27021      0.99988     3.26340    0.00694     4.27021
      C    8   -0.00692      0.99947     1.99469    0.01276     3.00692
      C    9    0.05244      0.99953     1.93483    0.01320     2.94756
      O   10   -0.26399      0.99992     3.25632    0.00776     4.26399
      C   11   -0.11660      0.99950     2.10867    0.00843     3.11660
      C   12   -0.07316      0.99951     2.06415    0.00950     3.07316
      C   13    0.03144      0.99953     1.95452    0.01451     2.96856
      C   14   -0.05687      0.99953     2.04701    0.01033     3.05687
      C   15   -0.12646      0.99947     2.11636    0.01062     3.12646
      C   16    0.40960      0.99966     1.56497    0.02577     2.59040
      O   17   -0.29638      0.99987     3.29142    0.00509     4.29638
      O   18   -0.28601      0.99985     3.27732    0.00884     4.28601
      O   19   -0.36253      0.99990     3.35660    0.00603     4.36253
      H   20    0.09892      0.00000     0.40022    0.00086     0.40108
      H   21    0.10172      0.00000     0.39736    0.00092     0.39828
      H   22    0.10158      0.00000     0.39770    0.00072     0.39842
      H   23    0.09953      0.00000     0.39838    0.00208     0.40047
      H   24    0.11140      0.00000     0.38730    0.00129     0.38860
      H   25    0.09583      0.00000     0.40318    0.00098     0.40417
      H   26    0.09911      0.00000     0.39983    0.00106     0.40089
      H   27    0.09537      0.00000     0.40321    0.00142     0.40463
      H   28    0.10638      0.00000     0.39206    0.00156     0.39362
      H   29    0.09968      0.00000     0.39922    0.00110     0.40032
      H   30    0.11067      0.00000     0.38800    0.00132     0.38933
      H   31    0.09080      0.00000     0.40769    0.00151     0.40920
      H   32    0.09481      0.00000     0.40388    0.00131     0.40519
      H   33    0.10919      0.00000     0.38953    0.00128     0.39081
      H   34    0.09184      0.00000     0.40629    0.00188     0.40816
      H   35    0.09160      0.00000     0.40703    0.00137     0.40840
      H   36    0.10228      0.00000     0.39643    0.00128     0.39772
      H   37    0.22594      0.00000     0.27119    0.00287     0.27406
 =======================================================================
   * Total *   -0.00000     18.99324    51.77606    0.23070    71.00000

 Normal termination of Gaussian 16 at Sun Dec 13 17:48:46 2020.
