 Gaussian 16, Revision A.03,

 -----------------------------------------------------------
 # opt freq B3LYP/6-31G(d) empiricaldispersion=gd3bj scf=xqc
 -----------------------------------------------------------

 ------------------------------
 CID_14085333_JID_5266_neutraal
 ------------------------------
 Symbolic Z-matrix:
 Charge =  0 Multiplicity = 1

 SCF Done:  E(RB3LYP) =  -650.503141062     A.U. after   16 cycles
 SCF Done:  E(RB3LYP) =  -650.507887823     A.U. after   12 cycles
 SCF Done:  E(RB3LYP) =  -650.508779114     A.U. after   12 cycles
 SCF Done:  E(RB3LYP) =  -650.508914249     A.U. after   12 cycles
 SCF Done:  E(RB3LYP) =  -650.508933864     A.U. after   10 cycles
 SCF Done:  E(RB3LYP) =  -650.508946216     A.U. after    9 cycles
 SCF Done:  E(RB3LYP) =  -650.508948868     A.U. after    9 cycles
 SCF Done:  E(RB3LYP) =  -650.508949279     A.U. after    7 cycles
 SCF Done:  E(RB3LYP) =  -650.508949375     A.U. after    7 cycles
 SCF Done:  E(RB3LYP) =  -650.508949410     A.U. after    7 cycles
 Optimization completed.
    -- Stationary point found.
 Normal termination of Gaussian 16 at Thu Dec 10 15:16:18 2020.

 --------------------------------------------------------------------
 #N Geom=AllCheck Guess=TCheck SCRF=Check GenChk RB3LYP/6-31G(d) Freq
 --------------------------------------------------------------------

 Structure from the checkpoint file:  "JID_5266.chk"
 ------------------------------
 CID_14085333_JID_5266_neutraal
 ------------------------------
 Charge =  0 Multiplicity = 1

 SCF Done:  E(RB3LYP) =  -650.508949410     A.U. after    1 cycles

  Exact polarizability: 198.103 -18.826 154.672  18.477   9.350  75.509
 Approx polarizability: 313.448 -46.251 259.153  43.690  15.970 120.626

                      1                      2                      3
                      A                      A                      A
 Frequencies --     33.8257                68.8379                84.9634
 Red. masses --      4.4887                 3.8632                 3.6116
 Frc consts  --      0.0030                 0.0108                 0.0154
 IR Inten    --      0.5525                 0.4389                 1.1869

                      4                      5                      6
                      A                      A                      A
 Frequencies --    117.3392               147.2807               153.6762
 Red. masses --      4.4970                 2.1824                 3.6693
 Frc consts  --      0.0365                 0.0279                 0.0511
 IR Inten    --      0.6661                 0.5660                 0.2538

                      7                      8                      9
                      A                      A                      A
 Frequencies --    205.6143               259.8936               272.2515
 Red. masses --      1.5979                 3.1431                 3.5380
 Frc consts  --      0.0398                 0.1251                 0.1545
 IR Inten    --      3.2739                 0.7995                 3.9138

                     10                     11                     12
                      A                      A                      A
 Frequencies --    299.1377               378.9489               393.3398
 Red. masses --      4.2471                 2.3092                 3.8421
 Frc consts  --      0.2239                 0.1954                 0.3502
 IR Inten    --      2.2339                 8.2032                 3.5269

                     13                     14                     15
                      A                      A                      A
 Frequencies --    412.2786               460.2132               477.7858
 Red. masses --      2.7831                 3.8956                 3.4875
 Frc consts  --      0.2787                 0.4861                 0.4691
 IR Inten    --      1.3180                 3.4035                 2.1779

                     16                     17                     18
                      A                      A                      A
 Frequencies --    494.5151               511.8926               534.5934
 Red. masses --      3.4253                 3.6061                 3.5617
 Frc consts  --      0.4935                 0.5567                 0.5997
 IR Inten    --      7.4666                 5.5758                 4.1198

                     19                     20                     21
                      A                      A                      A
 Frequencies --    583.7523               632.8055               656.6339
 Red. masses --      5.6467                 2.1506                 1.8446
 Frc consts  --      1.1337                 0.5074                 0.4686
 IR Inten    --      0.1851                26.5953                13.5502

                     22                     23                     24
                      A                      A                      A
 Frequencies --    705.1845               714.0540               743.0140
 Red. masses --      3.9696                 1.9473                 6.1008
 Frc consts  --      1.1631                 0.5850                 1.9844
 IR Inten    --     22.5135                35.8842                 2.8769

                     25                     26                     27
                      A                      A                      A
 Frequencies --    760.0802               770.5171               796.7083
 Red. masses --      1.6674                 2.3802                 1.8653
 Frc consts  --      0.5675                 0.8326                 0.6976
 IR Inten    --    119.2320                 4.6799                36.5627

                     28                     29                     30
                      A                      A                      A
 Frequencies --    841.9276               848.5930               860.1674
 Red. masses --      1.9307                 3.3084                 2.1158
 Frc consts  --      0.8063                 1.4037                 0.9224
 IR Inten    --     58.5358                 0.3817                 5.7318

                     31                     32                     33
                      A                      A                      A
 Frequencies --    888.3607               930.6042               948.2189
 Red. masses --      1.4276                 2.6800                 3.4711
 Frc consts  --      0.6638                 1.3675                 1.8388
 IR Inten    --      0.7185                16.3618                 8.8643

                     34                     35                     36
                      A                      A                      A
 Frequencies --    967.7742              1000.7128              1004.0640
 Red. masses --      1.2774                 1.8388                 1.3359
 Frc consts  --      0.7049                 1.0849                 0.7935
 IR Inten    --      0.5613                 2.5086                 1.6554

                     37                     38                     39
                      A                      A                      A
 Frequencies --   1022.1857              1070.4152              1113.9452
 Red. masses --      1.9754                 2.4252                 2.1296
 Frc consts  --      1.2161                 1.6372                 1.5570
 IR Inten    --     16.3381                 4.7929                 3.3710

                     40                     41                     42
                      A                      A                      A
 Frequencies --   1147.0368              1163.6510              1167.3036
 Red. masses --      1.8641                 1.3750                 1.4849
 Frc consts  --      1.4450                 1.0970                 1.1921
 IR Inten    --      8.1933                 6.6648                34.5855

                     43                     44                     45
                      A                      A                      A
 Frequencies --   1193.1828              1205.6712              1231.4359
 Red. masses --      1.7129                 1.2777                 1.6398
 Frc consts  --      1.4368                 1.0943                 1.4651
 IR Inten    --     22.2171                 3.3041                10.5487

                     46                     47                     48
                      A                      A                      A
 Frequencies --   1259.8411              1276.5049              1286.6365
 Red. masses --      1.8825                 1.6089                 2.5426
 Frc consts  --      1.7604                 1.5446                 2.4799
 IR Inten    --     15.2653                14.1024                41.2877

                     49                     50                     51
                      A                      A                      A
 Frequencies --   1313.9350              1322.1692              1375.9293
 Red. masses --      1.9038                 1.6808                 1.4379
 Frc consts  --      1.9365                 1.7312                 1.6039
 IR Inten    --      5.8009                 5.3179                 4.7346

                     52                     53                     54
                      A                      A                      A
 Frequencies --   1392.9707              1405.3937              1427.2676
 Red. masses --      3.6184                 1.2968                 2.2188
 Frc consts  --      4.1366                 1.5091                 2.6631
 IR Inten    --      4.0486                19.4725                 4.2506

                     55                     56                     57
                      A                      A                      A
 Frequencies --   1468.4596              1481.1059              1508.5895
 Red. masses --      1.8350                 1.1596                 1.3308
 Frc consts  --      2.3314                 1.4988                 1.7844
 IR Inten    --      2.3952                 1.1998                 3.8349

                     58                     59                     60
                      A                      A                      A
 Frequencies --   1513.1892              1514.8345              1521.1276
 Red. masses --      2.1366                 1.1292                 1.1744
 Frc consts  --      2.8825                 1.5267                 1.6010
 IR Inten    --     22.8946                12.3310                 3.2404

                     61                     62                     63
                      A                      A                      A
 Frequencies --   1533.7633              1536.9169              1551.1456
 Red. masses --      2.0313                 1.3178                 1.0556
 Frc consts  --      2.8155                 1.8341                 1.4964
 IR Inten    --     15.7618                 9.2182                 4.1661

                     64                     65                     66
                      A                      A                      A
 Frequencies --   1622.2106              1659.5482              1675.9213
 Red. masses --      5.5352                 5.9306                 6.6302
 Frc consts  --      8.5822                 9.6234                10.9720
 IR Inten    --     11.0701                43.6021                28.4817

                     67                     68                     69
                      A                      A                      A
 Frequencies --   1792.1134              2961.6722              3043.7700
 Red. masses --      8.0430                 1.0601                 1.0597
 Frc consts  --     15.2195                 5.4787                 5.7844
 IR Inten    --    691.5755                74.1109                28.9017

                     70                     71                     72
                      A                      A                      A
 Frequencies --   3062.5444              3072.0881              3086.3039
 Red. masses --      1.0624                 1.0731                 1.1046
 Frc consts  --      5.8709                 5.9672                 6.1993
 IR Inten    --     23.1640                60.0591                36.1490

                     73                     74                     75
                      A                      A                      A
 Frequencies --   3103.9968              3119.8185              3186.2359
 Red. masses --      1.1020                 1.1023                 1.0864
 Frc consts  --      6.2559                 6.3215                 6.4983
 IR Inten    --     39.0495                27.0971                 0.3506

                     76                     77                     78
                      A                      A                      A
 Frequencies --   3194.7624              3210.3894              3210.8844
 Red. masses --      1.0905                 1.0918                 1.0922
 Frc consts  --      6.5577                 6.6300                 6.6345
 IR Inten    --     18.0508                22.0154                 7.0865

                     79                     80                     81
                      A                      A                      A
 Frequencies --   3237.9335              3501.0795              3589.3247
 Red. masses --      1.0950                 1.0735                 1.0767
 Frc consts  --      6.7641                 7.7529                 8.1731
 IR Inten    --      4.5121                 0.3551                33.4502

 - Thermochemistry -
 -------------------
 Temperature   298.150 Kelvin.  Pressure   1.00000 Atm.
 Atom     1 has atomic number  6 and mass  12.00000

 Molecular mass:   202.11061 amu.
 Principal axes and moments of inertia in atomic units:
                           1         2         3
     Eigenvalues --  1550.708924840.494675868.83670
           X            0.99996   0.00938  -0.00103
           Y           -0.00936   0.99976   0.01976
           Z            0.00122  -0.01975   0.99980
 This molecule is an asymmetric top.
 Rotational symmetry number  1.
 Warning -- assumption of classical behavior for rotation
           may cause significant error
 Rotational temperatures (Kelvin)      0.05585     0.01789     0.01476
 Rotational constants (GHZ):           1.16382     0.37284     0.30751
 Zero-point vibrational energy     641765.2 (Joules/Mol)
                                  153.38557 (Kcal/Mol)
 Warning -- explicit consideration of  19 degrees of freedom as
           vibrations may cause significant error
 Vibrational temperatures:     48.67    99.04   122.24   168.82   211.90
          (Kelvin)            221.11   295.83   373.93   391.71   430.39
                              545.22   565.93   593.18   662.14   687.43
                              711.50   736.50   769.16   839.89   910.47
                              944.75  1014.60  1027.36  1069.03  1093.59
                             1108.60  1146.29  1211.35  1220.94  1237.59
                             1278.15  1338.93  1364.28  1392.41  1439.80
                             1444.62  1470.70  1540.09  1602.72  1650.33
                             1674.23  1679.49  1716.72  1734.69  1771.76
                             1812.63  1836.61  1851.18  1890.46  1902.31
                             1979.66  2004.17  2022.05  2053.52  2112.79
                             2130.98  2170.52  2177.14  2179.51  2188.56
                             2206.74  2211.28  2231.75  2334.00  2387.72
                             2411.28  2578.45  4261.19  4379.31  4406.32
                             4420.05  4440.50  4465.96  4488.72  4584.28
                             4596.55  4619.03  4619.75  4658.66  5037.27
                             5164.24

 Zero-point correction=                           0.244435 (Hartree/Particle)
 Thermal correction to Energy=                    0.257476
 Thermal correction to Enthalpy=                  0.258420
 Thermal correction to Gibbs Free Energy=         0.204336
 Sum of electronic and zero-point Energies=           -650.264514
 Sum of electronic and thermal Energies=              -650.251473
 Sum of electronic and thermal Enthalpies=            -650.250529
 Sum of electronic and thermal Free Energies=         -650.304613

                     E (Thermal)             CV                S
                      KCal/Mol        Cal/Mol-Kelvin    Cal/Mol-Kelvin
 Total                  161.569             51.222            113.830
 Electronic               0.000              0.000              0.000
 Translational            0.889              2.981             41.815
 Rotational               0.889              2.981             32.155
 Vibrational            159.791             45.261             39.860
 Vibration     1          0.594              1.983              5.591
 Vibration     2          0.598              1.969              4.186
 Vibration     3          0.601              1.960              3.773
 Vibration     4          0.608              1.935              3.144
 Vibration     5          0.617              1.906              2.707
 Vibration     6          0.619              1.899              2.626
 Vibration     7          0.640              1.832              2.082
 Vibration     8          0.668              1.746              1.662
 Vibration     9          0.675              1.724              1.582
 Vibration    10          0.692              1.675              1.422
 Vibration    11          0.749              1.515              1.043
 Vibration    12          0.761              1.484              0.987
 Vibration    13          0.776              1.444              0.919
 Vibration    14          0.818              1.338              0.765
 Vibration    15          0.834              1.299              0.716
 Vibration    16          0.850              1.262              0.672
 Vibration    17          0.867              1.224              0.629
 Vibration    18          0.890              1.174              0.577
 Vibration    19          0.941              1.066              0.478

 Optimization completed.
    -- Stationary point found.
 Normal termination of Gaussian 16 at Thu Dec 10 15:24:54 2020.

 ----------------------------------------------------------------------
 # B3LYP/6-311++G(d,p) empiricaldispersion=gd3bj scf=xqc pop=npa geom=c
 heck
 ----------------------------------------------------------------------

 --------------------------------------
 CID_14085333_JID_5266_Energie_neutraal
 --------------------------------------
 Structure from the checkpoint file:  "JID_5266.chk"
 Charge =  0 Multiplicity = 1

 SCF Done:  E(RB3LYP) =  -650.689418168     A.U. after   16 cycles
 Normal termination of Gaussian 16 at Thu Dec 10 15:28:46 2020.

 ----------------------------------------------------------------------
 # B3LYP/6-311++G(d,p) empiricaldispersion=gd3bj scf=xqc pop=npa geom=c
 heck
 ----------------------------------------------------------------------

 ------------------------------------
 CID_14085333_JID_5266_Energie_kation
 ------------------------------------
 Structure from the checkpoint file:  "JID_5266.chk"
 Charge =  1 Multiplicity = 2

 SCF Done:  E(UB3LYP) =  -650.398717500     A.U. after   26 cycles
 Normal termination of Gaussian 16 at Thu Dec 10 15:39:35 2020.
 Gaussian 16:  ES64L-G16RevA.03 25-Dec-2016

 ----------------------------------------------------------------------
 # B3LYP/6-311++G(d,p) empiricaldispersion=gd3bj scf=xqc pop=npa geom=c
 heck
 ----------------------------------------------------------------------

 -----------------------------------
 CID_14085333_JID_5266_Energie_anion
 -----------------------------------
 Structure from the checkpoint file:  "JID_5266.chk"
 Charge = -1 Multiplicity = 2

                         Standard orientation:
 ---------------------------------------------------------------------
 Center     Atomic      Atomic             Coordinates (Angstroms)
 Number     Number       Type             X           Y           Z
 ---------------------------------------------------------------------
      1          6           0       -4.379290   -0.156809    0.655434
      2          7           0       -3.133566   -0.745390    1.127910
      3          6           0       -2.426407   -1.551826    0.145262
      4          6           0       -1.865945   -0.797965   -1.093382
      5          6           0       -0.868040    0.264389   -0.704335
      6          6           0        0.478287   -0.062428   -0.395472
      7          6           0        1.023859   -1.394106   -0.491795
      8          6           0        2.315052   -1.671333   -0.187530
      9          6           0        3.242761   -0.635142    0.256995
     10          8           0        4.421279   -0.804859    0.548861
     11          7           0        2.665128    0.635410    0.329172
     12          6           0        1.357797    0.963511    0.034524
     13          6           0        0.909114    2.287432    0.162792
     14          6           0       -0.408580    2.587175   -0.138162
     15          6           0       -1.289680    1.584125   -0.566641
     16          1           0       -5.066917   -0.960052    0.365239
     17          1           0       -4.286314    0.527020   -0.207706
     18          1           0       -4.845939    0.400905    1.473805
     19          1           0       -2.515513   -0.014004    1.473642
     20          1           0       -1.597468   -2.053734    0.658788
     21          1           0       -3.110869   -2.336083   -0.202427
     22          1           0       -1.423303   -1.528649   -1.779977
     23          1           0       -2.693069   -0.330105   -1.637465
     24          1           0        0.375227   -2.199379   -0.820290
     25          1           0        2.722025   -2.673125   -0.261628
     26          1           0        3.299107    1.364530    0.635248
     27          1           0        1.597307    3.059549    0.495732
     28          1           0       -0.761638    3.609815   -0.042421
     29          1           0       -2.317372    1.839917   -0.807141
 ---------------------------------------------------------------------

 SCF Done:  E(UB3LYP) =  -650.702734003     A.U. after   26 cycles

 The electronic state is 2-A.
 Alpha  occ. eigenvalues --  -18.92971 -14.20558 -14.19159 -10.11307 -10.09195
 Alpha  occ. eigenvalues --  -10.08108 -10.08096 -10.04961 -10.03566 -10.03347
 Alpha  occ. eigenvalues --  -10.03214 -10.03017 -10.02932 -10.02012 -10.00498
 Alpha  occ. eigenvalues --   -0.88607  -0.80526  -0.79920  -0.71480  -0.66154
 Alpha  occ. eigenvalues --   -0.64444  -0.60245  -0.59424  -0.56057  -0.50346
 Alpha  occ. eigenvalues --   -0.49673  -0.48394  -0.46034  -0.39712  -0.39222
 Alpha  occ. eigenvalues --   -0.38682  -0.35721  -0.35133  -0.33429  -0.32208
 Alpha  occ. eigenvalues --   -0.30871  -0.30368  -0.29209  -0.29133  -0.28016
 Alpha  occ. eigenvalues --   -0.27798  -0.26829  -0.25919  -0.24116  -0.23685
 Alpha  occ. eigenvalues --   -0.23018  -0.21442  -0.19660  -0.17399  -0.16589
 Alpha  occ. eigenvalues --   -0.12300  -0.11053  -0.10062  -0.08019   0.04418
 Alpha virt. eigenvalues --    0.07132   0.08630   0.09197   0.09833   0.10455
 Alpha virt. eigenvalues --    0.10937   0.11788   0.12183   0.12654   0.12947
 Alpha virt. eigenvalues --    0.13597   0.14058   0.14239   0.14536   0.15109

  Beta  occ. eigenvalues --  -18.92815 -14.20432 -14.19159 -10.11250 -10.09192
  Beta  occ. eigenvalues --  -10.08086 -10.08069 -10.04979 -10.03577 -10.03322
  Beta  occ. eigenvalues --  -10.03026 -10.02849 -10.02746 -10.01730 -10.00199
  Beta  occ. eigenvalues --   -0.88337  -0.80296  -0.79899  -0.71148  -0.65687
  Beta  occ. eigenvalues --   -0.64099  -0.60063  -0.59027  -0.55966  -0.50137
  Beta  occ. eigenvalues --   -0.49181  -0.48218  -0.45725  -0.39425  -0.39088
  Beta  occ. eigenvalues --   -0.38563  -0.35648  -0.34930  -0.33289  -0.32147
  Beta  occ. eigenvalues --   -0.30686  -0.30095  -0.28960  -0.28618  -0.27850
  Beta  occ. eigenvalues --   -0.27696  -0.26653  -0.25822  -0.23966  -0.23579
  Beta  occ. eigenvalues --   -0.22227  -0.21307  -0.19496  -0.16479  -0.15042
  Beta  occ. eigenvalues --   -0.12151  -0.10831  -0.08664  -0.06847
  Beta virt. eigenvalues --    0.07038   0.08532   0.09073   0.09746   0.10306
  Beta virt. eigenvalues --    0.10433   0.10917   0.11715   0.12244   0.12845
  Beta virt. eigenvalues --    0.13071   0.13630   0.14185   0.14477   0.14851

 Mulliken charges and spin densities:
               1          2
     1  C   -0.379028  -0.027364
     2  N   -0.174132   0.014070
     3  C   -0.607369  -0.097222
     4  C    0.208971  -0.172669
     5  C    0.558259   0.295510
     6  C    0.516575   0.023394
     7  C    0.728433   0.156286
     8  C   -0.953417   0.251763
     9  C    0.008026   0.040099
    10  O   -0.431524   0.051524
    11  N   -0.216182   0.047406
    12  C   -0.233031   0.052307
    13  C   -0.521721   0.044509
    14  C   -0.543371   0.196424
    15  C   -0.722112  -0.083148
    16  H    0.113099   0.023181
    17  H    0.105163  -0.001930
    18  H    0.126987   0.000029
    19  H    0.250111  -0.000631
    20  H    0.209568  -0.002515
    21  H    0.048373   0.047500
    22  H    0.027392   0.141190
    23  H    0.117577   0.029648
    24  H    0.103025  -0.011276
    25  H    0.127400  -0.013822
    26  H    0.282737  -0.002974
    27  H    0.082996  -0.007800
    28  H    0.120757  -0.017598
    29  H    0.046438   0.024108
 Sum of Mulliken charges =  -1.00000   1.00000

 Dipole moment (field-independent basis, Debye):
    X=             -6.8695    Y=              2.2267    Z=             -0.3785  Tot=              7.2313
 Quadrupole moment (field-independent basis, Debye-Ang):
   XX=           -147.3364   YY=           -105.5908   ZZ=           -104.4078
   XY=              9.2616   XZ=             -0.8295   YZ=              4.8682

 Summary of Natural Population Analysis:

                                       Natural Population
                Natural  -----------------------------------------------
    Atom  No    Charge         Core      Valence    Rydberg      Total
 -----------------------------------------------------------------------
      C    1   -0.17866      0.99967     2.17204    0.00695     3.17866
      N    2   -0.34268      0.99976     2.83089    0.01204     3.84268
      C    3   -0.08243      0.99963     2.06905    0.01375     3.08243
      C    4   -0.21148      0.99961     2.20240    0.00947     3.21148
      C    5    0.02754      0.99954     1.95656    0.01636     2.97246
      C    6    0.00316      0.99945     1.98675    0.01064     2.99684
      C    7   -0.05208      0.99960     2.03774    0.01475     3.05208
      C    8   -0.09062      0.99952     2.08216    0.00894     3.09062
      C    9    0.32557      0.99964     1.65325    0.02153     2.67443
      O   10   -0.33248      0.99988     3.32579    0.00681     4.33248
      N   11   -0.28005      0.99964     2.77107    0.00934     3.78005
      C   12    0.08814      0.99954     1.89839    0.01393     2.91186
      C   13   -0.11750      0.99954     2.10971    0.00825     3.11750
      C   14   -0.05097      0.99958     2.04176    0.00963     3.05097
      C   15   -0.14991      0.99952     2.14127    0.00911     3.14991
      H   16    0.08616      0.00000     0.41269    0.00114     0.41384
      H   17    0.07772      0.00000     0.42059    0.00169     0.42228
      H   18    0.08985      0.00000     0.40930    0.00085     0.41015
      H   19    0.17936      0.00000     0.31836    0.00228     0.32064
      H   20    0.09762      0.00000     0.40105    0.00133     0.40238
      H   21    0.08360      0.00000     0.41515    0.00125     0.41640
      H   22    0.10457      0.00000     0.39379    0.00165     0.39543
      H   23    0.09500      0.00000     0.40382    0.00118     0.40500
      H   24    0.08754      0.00000     0.41052    0.00195     0.41246
      H   25    0.09252      0.00000     0.40597    0.00151     0.40748
      H   26    0.18782      0.00000     0.31021    0.00196     0.31218
      H   27    0.08884      0.00000     0.40966    0.00150     0.41116
      H   28    0.08676      0.00000     0.41167    0.00157     0.41324
      H   29    0.09016      0.00000     0.40848    0.00136     0.40984
 =======================================================================
   * Total *    0.00308     14.99411    38.81009    0.19273    53.99692

 Normal termination of Gaussian 16 at Thu Dec 10 15:56:03 2020.
