 Gaussian 16, Revision A.03,

 -----------------------------------------------------------
 # opt freq B3LYP/6-31G(d) empiricaldispersion=gd3bj scf=xqc
 -----------------------------------------------------------

 -------------------------------
 CID_28932101_JID_10239_neutraal
 -------------------------------
 Symbolic Z-matrix:
 Charge =  0 Multiplicity = 1

 SCF Done:  E(RB3LYP) =  -839.847146399     A.U. after   15 cycles
 SCF Done:  E(RB3LYP) =  -839.853977125     A.U. after   13 cycles
 SCF Done:  E(RB3LYP) =  -839.855156597     A.U. after   12 cycles
 SCF Done:  E(RB3LYP) =  -839.855730274     A.U. after   13 cycles
 SCF Done:  E(RB3LYP) =  -839.856005798     A.U. after   13 cycles
 SCF Done:  E(RB3LYP) =  -839.856098879     A.U. after   12 cycles
 SCF Done:  E(RB3LYP) =  -839.856115062     A.U. after   11 cycles
 SCF Done:  E(RB3LYP) =  -839.856118569     A.U. after   10 cycles
 SCF Done:  E(RB3LYP) =  -839.856119786     A.U. after    8 cycles
 SCF Done:  E(RB3LYP) =  -839.856120033     A.U. after    8 cycles
 Optimization completed.
    -- Stationary point found.
 Normal termination of Gaussian 16 at Sat Dec 12 14:56:11 2020.

 --------------------------------------------------------------------
 #N Geom=AllCheck Guess=TCheck SCRF=Check GenChk RB3LYP/6-31G(d) Freq
 --------------------------------------------------------------------

 Structure from the checkpoint file:  "JID_10239.chk"
 -------------------------------
 CID_28932101_JID_10239_neutraal
 -------------------------------
 Charge =  0 Multiplicity = 1

 SCF Done:  E(RB3LYP) =  -839.856120033     A.U. after    1 cycles

  Exact polarizability: 373.121   5.352 221.383   0.546  -0.161  61.257
 Approx polarizability: 538.854  20.827 425.292  -1.318  -0.029  99.520

                      1                      2                      3
                      A                      A                      A
 Frequencies --     22.2363                49.0502                93.3046
 Red. masses --      5.1662                 5.2340                 5.4265
 Frc consts  --      0.0015                 0.0074                 0.0278
 IR Inten    --      0.9071                 0.8219                 1.1148

                      4                      5                      6
                      A                      A                      A
 Frequencies --    111.8937               173.8946               183.7657
 Red. masses --      4.8727                 4.5910                 4.5034
 Frc consts  --      0.0359                 0.0818                 0.0896
 IR Inten    --      1.1939                 1.0596                 0.9058

                      7                      8                      9
                      A                      A                      A
 Frequencies --    215.5135               235.6398               285.1845
 Red. masses --      6.2140                 4.6178                 1.6127
 Frc consts  --      0.1700                 0.1511                 0.0773
 IR Inten    --      1.4092                 0.5683                12.6918

                     10                     11                     12
                      A                      A                      A
 Frequencies --    289.8526               291.2843               360.7574
 Red. masses --      2.4625                 3.6850                 4.1217
 Frc consts  --      0.1219                 0.1842                 0.3160
 IR Inten    --      5.4688                 5.4680                 2.9709

                     13                     14                     15
                      A                      A                      A
 Frequencies --    365.5368               432.5584               435.0713
 Red. masses --      5.6179                 3.4551                 4.1124
 Frc consts  --      0.4423                 0.3809                 0.4586
 IR Inten    --      3.7657                 2.2389                 1.6184

                     16                     17                     18
                      A                      A                      A
 Frequencies --    442.0989               481.3146               491.5047
 Red. masses --      2.9924                 3.4502                 7.3036
 Frc consts  --      0.3446                 0.4709                 1.0395
 IR Inten    --     11.1275                 0.2182                 9.1066

                     19                     20                     21
                      A                      A                      A
 Frequencies --    508.0030               547.0865               555.9661
 Red. masses --      6.8868                 6.7651                 3.6876
 Frc consts  --      1.0471                 1.1930                 0.6716
 IR Inten    --     10.8583                25.2537                 8.3008

                     22                     23                     24
                      A                      A                      A
 Frequencies --    582.4999               601.0489               639.7852
 Red. masses --      7.1426                 1.6096                 4.3774
 Frc consts  --      1.4279                 0.3426                 1.0557
 IR Inten    --      0.9470               377.4768                 1.5583

                     25                     26                     27
                      A                      A                      A
 Frequencies --    640.1171               654.9042               685.7817
 Red. masses --      4.9574                 2.4200                 6.3634
 Frc consts  --      1.1968                 0.6115                 1.7632
 IR Inten    --      1.8672               144.6783                 2.3996

                     28                     29                     30
                      A                      A                      A
 Frequencies --    719.7408               746.5401               755.6295
 Red. masses --      4.2624                 4.6256                 1.5496
 Frc consts  --      1.3009                 1.5189                 0.5213
 IR Inten    --      1.4257                 2.0929                 0.7052

                     31                     32                     33
                      A                      A                      A
 Frequencies --    788.8033               792.7376               810.9293
 Red. masses --      6.0399                 1.8378                 5.4499
 Frc consts  --      2.2142                 0.6805                 2.1116
 IR Inten    --      6.0099                42.0796                 2.6525

                     34                     35                     36
                      A                      A                      A
 Frequencies --    816.4584               825.4306               826.5082
 Red. masses --      1.6026                 2.0061                 2.1163
 Frc consts  --      0.6294                 0.8053                 0.8518
 IR Inten    --     28.6046                43.7416                 7.3986

                     37                     38                     39
                      A                      A                      A
 Frequencies --    834.1341               877.5121               892.1340
 Red. masses --      2.2305                 5.1738                 1.5824
 Frc consts  --      0.9144                 2.3473                 0.7420
 IR Inten    --     35.4441                13.0927                 0.6307

                     40                     41                     42
                      A                      A                      A
 Frequencies --    932.2872               932.9553               935.3429
 Red. masses --      9.6979                 1.3997                 1.2811
 Frc consts  --      4.9663                 0.7178                 0.6603
 IR Inten    --      9.0983                 0.0593                 0.5392

                     43                     44                     45
                      A                      A                      A
 Frequencies --    966.8891               971.0646               982.6816
 Red. masses --      1.3139                 3.2722                 1.3149
 Frc consts  --      0.7237                 1.8180                 0.7481
 IR Inten    --      0.5839                 3.8984                 1.6178

                     46                     47                     48
                      A                      A                      A
 Frequencies --    988.2530              1009.5576              1063.6375
 Red. masses --      5.8155                 1.2732                 2.5105
 Frc consts  --      3.3463                 0.7646                 1.6734
 IR Inten    --     47.5458                 0.5014                 3.7364

                     49                     50                     51
                      A                      A                      A
 Frequencies --   1111.3067              1117.9948              1141.9106
 Red. masses --      1.6421                 1.9466                 2.6140
 Frc consts  --      1.1949                 1.4336                 2.0083
 IR Inten    --     10.8570                 7.9358                53.4636

                     52                     53                     54
                      A                      A                      A
 Frequencies --   1164.3173              1181.4638              1193.8507
 Red. masses --      1.3044                 1.3301                 2.3840
 Frc consts  --      1.0419                 1.0939                 2.0020
 IR Inten    --     16.7836                 5.1337                46.2219

                     55                     56                     57
                      A                      A                      A
 Frequencies --   1201.2636              1225.4260              1253.2613
 Red. masses --      1.1396                 1.6054                 2.2121
 Frc consts  --      0.9689                 1.4204                 2.0471
 IR Inten    --      4.5475                 9.2262                 5.3800

                     58                     59                     60
                      A                      A                      A
 Frequencies --   1267.2911              1279.4982              1308.4775
 Red. masses --      2.2831                 2.8817                 1.8959
 Frc consts  --      2.1604                 2.7795                 1.9125
 IR Inten    --     15.9538                 6.4481                 0.7460

                     61                     62                     63
                      A                      A                      A
 Frequencies --   1329.3718              1355.2407              1391.7789
 Red. masses --      1.8952                 3.6297                 4.1154
 Frc consts  --      1.9733                 3.9279                 4.6968
 IR Inten    --      6.7051                46.6672                 7.3676

                     64                     65                     66
                      A                      A                      A
 Frequencies --   1406.1892              1409.8369              1445.0618
 Red. masses --      5.8499                 7.4807                 1.9321
 Frc consts  --      6.8153                 8.7606                 2.3772
 IR Inten    --     64.5379                 4.5291                 7.3249

                     67                     68                     69
                      A                      A                      A
 Frequencies --   1492.9468              1501.3716              1509.7329
 Red. masses --      2.3957                 2.9942                 2.2990
 Frc consts  --      3.1461                 3.9765                 3.0873
 IR Inten    --      1.5037                16.0295                 3.9377

                     70                     71                     72
                      A                      A                      A
 Frequencies --   1547.0506              1568.8862              1595.1199
 Red. masses --      3.5843                 3.4874                 9.4224
 Frc consts  --      5.0543                 5.0576                14.1253
 IR Inten    --     80.7668                15.0490                24.9659

                     73                     74                     75
                      A                      A                      A
 Frequencies --   1630.8315              1649.2472              1661.2449
 Red. masses --      6.5047                 5.6051                 6.6296
 Frc consts  --     10.1929                 8.9826                10.7797
 IR Inten    --      0.8764                14.5463                16.4232

                     76                     77                     78
                      A                      A                      A
 Frequencies --   1682.0668              1686.7470              1698.3715
 Red. masses --      4.9235                 2.4558                 1.7515
 Frc consts  --      8.2075                 4.1166                 2.9766
 IR Inten    --     29.3726                26.4658               239.8876

                     79                     80                     81
                      A                      A                      A
 Frequencies --   3179.2188              3184.5727              3184.7966
 Red. masses --      1.0864                 1.0870                 1.0888
 Frc consts  --      6.4695                 6.4951                 6.5065
 IR Inten    --      0.8758                 1.0427                21.5942

                     82                     83                     84
                      A                      A                      A
 Frequencies --   3191.3517              3205.6104              3207.3336
 Red. masses --      1.0903                 1.0942                 1.0961
 Frc consts  --      6.5425                 6.6249                 6.6433
 IR Inten    --     23.4204                35.2722                39.7691

                     85                     86                     87
                      A                      A                      A
 Frequencies --   3212.1010              3221.3261              3238.6162
 Red. masses --      1.0918                 1.0935                 1.0918
 Frc consts  --      6.6370                 6.6858                 6.7467
 IR Inten    --      9.9896                 9.5966                 3.4824

                     88                     89                     90
                      A                      A                      A
 Frequencies --   3256.4327              3553.2801              3652.3567
 Red. masses --      1.0923                 1.0479                 1.0982
 Frc consts  --      6.8244                 7.7952                 8.6316
 IR Inten    --     19.2449                25.6678                 9.3005

 - Thermochemistry -
 -------------------
 Temperature   298.150 Kelvin.  Pressure   1.00000 Atm.
 Atom     1 has atomic number  6 and mass  12.00000

 Molecular mass:   260.09496 amu.
 Principal axes and moments of inertia in atomic units:
                           1         2         3
     Eigenvalues --  1842.37645********************
           X            1.00000  -0.00051   0.00126
           Y            0.00051   1.00000  -0.00063
           Z           -0.00126   0.00063   1.00000
 This molecule is an asymmetric top.
 Rotational symmetry number  1.
 Warning -- assumption of classical behavior for rotation
           may cause significant error
 Rotational temperatures (Kelvin)      0.04701     0.00832     0.00707
 Rotational constants (GHZ):           0.97957     0.17344     0.14737
 Zero-point vibrational energy     658777.7 (Joules/Mol)
                                  157.45166 (Kcal/Mol)
 Warning -- explicit consideration of  23 degrees of freedom as
           vibrations may cause significant error
 Vibrational temperatures:     31.99    70.57   134.24   160.99   250.20
          (Kelvin)            264.40   310.08   339.03   410.32   417.03
                              419.09   519.05   525.93   622.36   625.97
                              636.08   692.50   707.17   730.90   787.14
                              799.91   838.09   864.78   920.51   920.99
                              942.26   986.69  1035.55  1074.10  1087.18
                             1134.91  1140.57  1166.75  1174.70  1187.61
                             1189.16  1200.13  1262.54  1283.58  1341.35
                             1342.31  1345.75  1391.14  1397.15  1413.86
                             1421.88  1452.53  1530.34  1598.92  1608.55
                             1642.95  1675.19  1699.86  1717.68  1728.35
                             1763.11  1803.16  1823.35  1840.91  1882.61
                             1912.67  1949.89  2002.46  2023.19  2028.44
                             2079.12  2148.02  2160.14  2172.17  2225.86
                             2257.28  2295.02  2346.40  2372.90  2390.16
                             2420.12  2426.85  2443.58  4574.19  4581.89
                             4582.21  4591.64  4612.16  4614.64  4621.50
                             4634.77  4659.65  4685.28  5112.38  5254.93

 Zero-point correction=                           0.250915 (Hartree/Particle)
 Thermal correction to Energy=                    0.265507
 Thermal correction to Enthalpy=                  0.266451
 Thermal correction to Gibbs Free Energy=         0.208587
 Sum of electronic and zero-point Energies=           -839.605205
 Sum of electronic and thermal Energies=              -839.590613
 Sum of electronic and thermal Enthalpies=            -839.589669
 Sum of electronic and thermal Free Energies=         -839.647533

                     E (Thermal)             CV                S
                      KCal/Mol        Cal/Mol-Kelvin    Cal/Mol-Kelvin
 Total                  166.608             60.491            121.786
 Electronic               0.000              0.000              0.000
 Translational            0.889              2.981             42.567
 Rotational               0.889              2.981             33.817
 Vibrational            164.831             54.530             45.401
 Vibration     1          0.593              1.985              6.424
 Vibration     2          0.595              1.978              4.855
 Vibration     3          0.602              1.954              3.590
 Vibration     4          0.607              1.940              3.236
 Vibration     5          0.627              1.875              2.393
 Vibration     6          0.631              1.862              2.290
 Vibration     7          0.645              1.817              1.996
 Vibration     8          0.655              1.786              1.836
 Vibration     9          0.683              1.701              1.502
 Vibration    10          0.686              1.693              1.475
 Vibration    11          0.687              1.690              1.466
 Vibration    12          0.735              1.553              1.119
 Vibration    13          0.739              1.543              1.098
 Vibration    14          0.793              1.399              0.850
 Vibration    15          0.796              1.394              0.842
 Vibration    16          0.802              1.378              0.820
 Vibration    17          0.838              1.291              0.707
 Vibration    18          0.847              1.269              0.680
 Vibration    19          0.863              1.232              0.638
 Vibration    20          0.902              1.146              0.550
 Vibration    21          0.911              1.127              0.532
 Vibration    22          0.939              1.069              0.481
 Vibration    23          0.959              1.030              0.448

 Optimization completed.
    -- Stationary point found.
 Normal termination of Gaussian 16 at Sat Dec 12 15:11:01 2020.

 ----------------------------------------------------------------------
 # B3LYP/6-311++G(d,p) empiricaldispersion=gd3bj scf=xqc pop=npa geom=c
 heck
 ----------------------------------------------------------------------

 ---------------------------------------
 CID_28932101_JID_10239_Energie_neutraal
 ---------------------------------------
 Structure from the checkpoint file:  "JID_10239.chk"
 Charge =  0 Multiplicity = 1

 SCF Done:  E(RB3LYP) =  -840.070330670     A.U. after   15 cycles
 Normal termination of Gaussian 16 at Sat Dec 12 15:17:27 2020.

 ----------------------------------------------------------------------
 # B3LYP/6-311++G(d,p) empiricaldispersion=gd3bj scf=xqc pop=npa geom=c
 heck
 ----------------------------------------------------------------------

 -------------------------------------
 CID_28932101_JID_10239_Energie_kation
 -------------------------------------
 Structure from the checkpoint file:  "JID_10239.chk"
 Charge =  1 Multiplicity = 2

 SCF Done:  E(UB3LYP) =  -839.814883522     A.U. after   21 cycles
 Normal termination of Gaussian 16 at Sat Dec 12 15:29:33 2020.
 Gaussian 16:  ES64L-G16RevA.03 25-Dec-2016

 ----------------------------------------------------------------------
 # B3LYP/6-311++G(d,p) empiricaldispersion=gd3bj scf=xqc pop=npa geom=c
 heck
 ----------------------------------------------------------------------

 ------------------------------------
 CID_28932101_JID_10239_Energie_anion
 ------------------------------------
 Structure from the checkpoint file:  "JID_10239.chk"
 Charge = -1 Multiplicity = 2

                         Standard orientation:
 ---------------------------------------------------------------------
 Center     Atomic      Atomic             Coordinates (Angstroms)
 Number     Number       Type             X           Y           Z
 ---------------------------------------------------------------------
      1          6           0        4.647952   -1.795877   -0.007055
      2          6           0        3.360473   -2.377258   -0.004795
      3          6           0        2.227019   -1.593268   -0.001742
      4          6           0        2.321159   -0.175608   -0.000710
      5          6           0        3.630761    0.413204   -0.002860
      6          6           0        4.774843   -0.427295   -0.006080
      7          6           0        3.775901    1.823863   -0.001596
      8          6           0        2.671509    2.642348    0.001699
      9          6           0        1.380444    2.083352    0.003663
     10          6           0        1.181853    0.707652    0.002397
     11          6           0       -0.193970    0.220875    0.004115
     12          7           0       -0.664520   -0.993260    0.005567
     13          6           0       -2.049141   -0.856982    0.007606
     14          6           0       -2.365365    0.508608    0.006630
     15          8           0       -1.187482    1.202794    0.003966
     16          6           0       -3.654172    1.011351    0.002315
     17          6           0       -4.690643    0.061723    0.002633
     18          6           0       -4.390634   -1.323408    0.004675
     19          6           0       -3.083413   -1.795656    0.006942
     20          7           0       -6.023210    0.478062    0.060303
     21          1           0        5.530713   -2.428988   -0.009396
     22          1           0        3.260516   -3.459154   -0.005312
     23          1           0        1.245590   -2.047356    0.000300
     24          1           0        5.757162    0.038395   -0.007649
     25          1           0        4.778263    2.244388   -0.003149
     26          1           0        2.784887    3.722275    0.002989
     27          1           0        0.517871    2.738347    0.006526
     28          1           0       -3.857102    2.077246    0.005419
     29          1           0       -5.215967   -2.030606    0.011316
     30          1           0       -2.870492   -2.859463    0.005948
     31          1           0       -6.194212    1.409848   -0.296564
     32          1           0       -6.690708   -0.186650   -0.310266
 ---------------------------------------------------------------------

 SCF Done:  E(UB3LYP) =  -840.092134019     A.U. after   26 cycles

 The electronic state is 2-A.
 Alpha  occ. eigenvalues --  -19.05428 -14.22669 -14.16110 -10.11701 -10.11194
 Alpha  occ. eigenvalues --  -10.10620 -10.07344 -10.06433 -10.06098 -10.05911
 Alpha  occ. eigenvalues --  -10.04744 -10.04572 -10.04241 -10.03755 -10.03712
 Alpha  occ. eigenvalues --  -10.03627 -10.03315 -10.02553 -10.02488 -10.02268
 Alpha  occ. eigenvalues --   -0.98962  -0.82577  -0.78800  -0.73889  -0.72443
 Alpha  occ. eigenvalues --   -0.68706  -0.64978  -0.63870  -0.61157  -0.60484
 Alpha  occ. eigenvalues --   -0.58431  -0.52571  -0.50183  -0.49412  -0.48052
 Alpha  occ. eigenvalues --   -0.47252  -0.44812  -0.42509  -0.40441  -0.39193
 Alpha  occ. eigenvalues --   -0.38025  -0.37363  -0.35913  -0.34708  -0.34546
 Alpha  occ. eigenvalues --   -0.33458  -0.31263  -0.30472  -0.29885  -0.28627
 Alpha  occ. eigenvalues --   -0.28338  -0.27704  -0.27322  -0.26282  -0.25736
 Alpha  occ. eigenvalues --   -0.24158  -0.23402  -0.21604  -0.20564  -0.20456
 Alpha  occ. eigenvalues --   -0.20099  -0.18759  -0.15163  -0.14806  -0.13478
 Alpha  occ. eigenvalues --   -0.11612  -0.10518  -0.07620   0.02878
 Alpha virt. eigenvalues --    0.05905   0.08223   0.08527   0.09233   0.09301
 Alpha virt. eigenvalues --    0.09528   0.10627   0.11051   0.11262   0.11595
 Alpha virt. eigenvalues --    0.12389   0.12614   0.13024   0.14066   0.14555

  Beta  occ. eigenvalues --  -19.05358 -14.22651 -14.15916 -10.11506 -10.11199
  Beta  occ. eigenvalues --  -10.10531 -10.07382 -10.06420 -10.06113 -10.05784
  Beta  occ. eigenvalues --  -10.04723 -10.04657 -10.04265 -10.03591 -10.03561
  Beta  occ. eigenvalues --  -10.03527 -10.03370 -10.02432 -10.02311 -10.01878
  Beta  occ. eigenvalues --   -0.98813  -0.82502  -0.78488  -0.73654  -0.72308
  Beta  occ. eigenvalues --   -0.68379  -0.64615  -0.63698  -0.60970  -0.60259
  Beta  occ. eigenvalues --   -0.58131  -0.52239  -0.50001  -0.49095  -0.47885
  Beta  occ. eigenvalues --   -0.47120  -0.44626  -0.42461  -0.40260  -0.39113
  Beta  occ. eigenvalues --   -0.37883  -0.37107  -0.35814  -0.34575  -0.34092
  Beta  occ. eigenvalues --   -0.33398  -0.31105  -0.30381  -0.29780  -0.28523
  Beta  occ. eigenvalues --   -0.28200  -0.27509  -0.27012  -0.26175  -0.25145
  Beta  occ. eigenvalues --   -0.24026  -0.23301  -0.21110  -0.20346  -0.19970
  Beta  occ. eigenvalues --   -0.19678  -0.17859  -0.14571  -0.14272  -0.13085
  Beta  occ. eigenvalues --   -0.10918  -0.09701  -0.06462
  Beta virt. eigenvalues --    0.05886   0.07764   0.08230   0.08512   0.09271
  Beta virt. eigenvalues --    0.09491   0.10022   0.10611   0.11043   0.11631
  Beta virt. eigenvalues --    0.11887   0.12367   0.12641   0.13578   0.14061

 Mulliken charges and spin densities:
               1          2
     1  C   -0.285999  -0.014483
     2  C   -0.210320   0.085040
     3  C   -0.433024   0.022223
     4  C    0.060149   0.025669
     5  C    0.455240  -0.077107
     6  C   -0.291753   0.116744
     7  C   -0.201258   0.290397
     8  C   -0.469331  -0.031251
     9  C   -0.448017   0.222597
    10  C    0.171757   0.067527
    11  C   -0.116959   0.106856
    12  N    0.028842   0.095380
    13  C    0.193759  -0.024021
    14  C    0.494834  -0.003181
    15  O   -0.092210   0.015107
    16  C   -0.379181   0.006136
    17  C   -0.463602   0.057290
    18  C    0.097688  -0.014937
    19  C   -0.428917   0.101956
    20  N   -0.319558   0.005722
    21  H    0.108681   0.000881
    22  H    0.126912  -0.006039
    23  H    0.184839  -0.004361
    24  H    0.084899  -0.008967
    25  H    0.069178  -0.024278
    26  H    0.120139   0.001706
    27  H    0.124472  -0.013540
    28  H    0.130636  -0.001777
    29  H    0.123111   0.000684
    30  H    0.133536  -0.006994
    31  H    0.214934   0.007078
    32  H    0.216520   0.001942
 Sum of Mulliken charges =  -1.00000   1.00000

 Dipole moment (field-independent basis, Debye):
    X=             -5.2508    Y=              0.5414    Z=             -0.9895  Tot=              5.3706
 Quadrupole moment (field-independent basis, Debye-Ang):
   XX=           -155.8560   YY=           -127.8420   ZZ=           -129.7455
   XY=             -2.5293   XZ=              7.0096   YZ=             -0.7186

 Summary of Natural Population Analysis:

                                       Natural Population
                Natural  -----------------------------------------------
    Atom  No    Charge         Core      Valence    Rydberg      Total
 -----------------------------------------------------------------------
      C    1   -0.12788      0.99959     2.11778    0.01051     3.12788
      C    2   -0.08114      0.99944     2.07136    0.01034     3.08114
      C    3   -0.09767      0.99958     2.08799    0.01010     3.09767
      C    4   -0.00209      0.99941     1.99419    0.00849     3.00209
      C    5   -0.05141      0.99951     2.04269    0.00921     3.05141
      C    6   -0.06573      0.99954     2.05711    0.00907     3.06573
      C    7   -0.01264      0.99954     2.00425    0.00886     3.01264
      C    8   -0.12993      0.99959     2.12047    0.00987     3.12993
      C    9   -0.02626      0.99945     2.01838    0.00843     3.02626
      C   10   -0.03675      0.99937     2.02840    0.00899     3.03675
      C   11    0.30986      0.99955     1.67317    0.01742     2.69014
      N   12   -0.24176      0.99966     2.73063    0.01148     3.74176
      C   13    0.02817      0.99945     1.96022    0.01216     2.97183
      C   14    0.14872      0.99936     1.83963    0.01230     2.85128
      O   15   -0.24832      0.99986     3.23950    0.00896     4.24832
      C   16   -0.15121      0.99940     2.14262    0.00919     3.15121
      C   17    0.08634      0.99955     1.90423    0.00988     2.91366
      C   18   -0.14247      0.99955     2.13468    0.00824     3.14247
      C   19   -0.07512      0.99954     2.06669    0.00889     3.07512
      N   20   -0.39981      0.99970     2.89044    0.00967     3.89981
      H   21    0.09008      0.00000     0.40872    0.00120     0.40992
      H   22    0.09093      0.00000     0.40840    0.00067     0.40907
      H   23    0.11877      0.00000     0.38008    0.00115     0.38123
      H   24    0.09178      0.00000     0.40740    0.00083     0.40822
      H   25    0.08391      0.00000     0.41431    0.00178     0.41609
      H   26    0.09036      0.00000     0.40847    0.00117     0.40964
      H   27    0.09816      0.00000     0.40082    0.00102     0.40184
      H   28    0.10220      0.00000     0.39722    0.00058     0.39780
      H   29    0.09075      0.00000     0.40805    0.00119     0.40925
      H   30    0.10197      0.00000     0.39704    0.00098     0.39803
      H   31    0.17930      0.00000     0.31907    0.00163     0.32070
      H   32    0.17902      0.00000     0.31932    0.00166     0.32098
 =======================================================================
   * Total *    0.00013     19.99063    47.79331    0.21593    67.99987

 Normal termination of Gaussian 16 at Sat Dec 12 15:45:12 2020.
