 Gaussian 16, Revision A.03,

 -----------------------------------------------------------
 # opt freq B3LYP/6-31G(d) empiricaldispersion=gd3bj scf=xqc
 -----------------------------------------------------------

 -------------------------------
 CID_138527253_JID_7684_neutraal
 -------------------------------
 Symbolic Z-matrix:
 Charge =  0 Multiplicity = 1

 SCF Done:  E(RB3LYP) =  -805.708811745     A.U. after   15 cycles
 SCF Done:  E(RB3LYP) =  -805.717015510     A.U. after   13 cycles
 SCF Done:  E(RB3LYP) =  -805.717847415     A.U. after   14 cycles
 SCF Done:  E(RB3LYP) =  -805.720995143     A.U. after   13 cycles
 SCF Done:  E(RB3LYP) =  -805.722188989     A.U. after   12 cycles
 SCF Done:  E(RB3LYP) =  -805.723903964     A.U. after   13 cycles
 SCF Done:  E(RB3LYP) =  -805.724633563     A.U. after   13 cycles
 SCF Done:  E(RB3LYP) =  -805.724875990     A.U. after   12 cycles
 SCF Done:  E(RB3LYP) =  -805.725116302     A.U. after   11 cycles
 SCF Done:  E(RB3LYP) =  -805.725171548     A.U. after   14 cycles
 SCF Done:  E(RB3LYP) =  -805.726548903     A.U. after    9 cycles
 SCF Done:  E(RB3LYP) =  -805.726549347     A.U. after    9 cycles
 SCF Done:  E(RB3LYP) =  -805.726550289     A.U. after    8 cycles
 SCF Done:  E(RB3LYP) =  -805.726550362     A.U. after    7 cycles
 SCF Done:  E(RB3LYP) =  -805.726550378     A.U. after    6 cycles
 Optimization completed.
    -- Stationary point found.
 Normal termination of Gaussian 16 at Fri Dec 11 13:21:47 2020.

 --------------------------------------------------------------------
 #N Geom=AllCheck Guess=TCheck SCRF=Check GenChk RB3LYP/6-31G(d) Freq
 --------------------------------------------------------------------

 Structure from the checkpoint file:  "JID_7684.chk"
 -------------------------------
 CID_138527253_JID_7684_neutraal
 -------------------------------
 Charge =  0 Multiplicity = 1

 SCF Done:  E(RB3LYP) =  -805.726550378     A.U. after    1 cycles

  Exact polarizability: 164.832 -22.874 159.928  -0.075  -5.309 134.120
 Approx polarizability: 218.491 -32.273 231.334  -8.441 -15.179 206.748

                      1                      2                      3
                      A                      A                      A
 Frequencies --     19.3977                40.7544                45.6155
 Red. masses --      3.8342                 3.7475                 3.1593
 Frc consts  --      0.0009                 0.0037                 0.0039
 IR Inten    --      0.6537                 1.2094                 0.1945

                      4                      5                      6
                      A                      A                      A
 Frequencies --     58.1671                79.4905               110.9370
 Red. masses --      3.7806                 3.9296                 2.2733
 Frc consts  --      0.0075                 0.0146                 0.0165
 IR Inten    --      1.8508                 3.1880                 4.6204

                      7                      8                      9
                      A                      A                      A
 Frequencies --    128.5581               143.6450               181.2154
 Red. masses --      3.8396                 2.5762                 1.5086
 Frc consts  --      0.0374                 0.0313                 0.0292
 IR Inten    --      3.1060                 3.6204                 2.8112

                     10                     11                     12
                      A                      A                      A
 Frequencies --    203.0238               219.8439               238.2220
 Red. masses --      3.2914                 3.7369                 1.2942
 Frc consts  --      0.0799                 0.1064                 0.0433
 IR Inten    --      1.4887                 1.3990                 0.4712

                     13                     14                     15
                      A                      A                      A
 Frequencies --    245.4035               262.7024               274.0204
 Red. masses --      1.6998                 1.6650                 2.1459
 Frc consts  --      0.0603                 0.0677                 0.0949
 IR Inten    --      2.2095                 1.9879                 1.5814

                     16                     17                     18
                      A                      A                      A
 Frequencies --    291.6603               297.6761               303.3010
 Red. masses --      1.5348                 1.7715                 2.6311
 Frc consts  --      0.0769                 0.0925                 0.1426
 IR Inten    --      6.8947                 1.6480                 3.0110

                     19                     20                     21
                      A                      A                      A
 Frequencies --    339.6357               357.5798               374.3442
 Red. masses --      1.7110                 2.3893                 2.0916
 Frc consts  --      0.1163                 0.1800                 0.1727
 IR Inten    --     43.4454                24.2521                18.8572

                     22                     23                     24
                      A                      A                      A
 Frequencies --    392.7684               395.6290               428.9302
 Red. masses --      3.0297                 2.4554                 2.7344
 Frc consts  --      0.2754                 0.2264                 0.2964
 IR Inten    --     21.6014                22.2167                 2.3611

                     25                     26                     27
                      A                      A                      A
 Frequencies --    466.0652               483.8849               502.1892
 Red. masses --      2.6226                 2.8799                 2.9784
 Frc consts  --      0.3356                 0.3973                 0.4426
 IR Inten    --      7.2806                 1.8235                 6.2246

                     28                     29                     30
                      A                      A                      A
 Frequencies --    529.2305               581.0337               591.0269
 Red. masses --      4.1753                 3.8926                 2.8851
 Frc consts  --      0.6890                 0.7743                 0.5938
 IR Inten    --     16.5887                 7.0486                 2.4407

                     31                     32                     33
                      A                      A                      A
 Frequencies --    643.4745               655.9600               727.1474
 Red. masses --      4.5185                 4.7377                 3.8549
 Frc consts  --      1.1023                 1.2011                 1.2009
 IR Inten    --      5.6753                 6.8697                13.6228

                     34                     35                     36
                      A                      A                      A
 Frequencies --    764.4487               817.8086               852.7714
 Red. masses --      3.3754                 3.3283                 2.7307
 Frc consts  --      1.1622                 1.3115                 1.1700
 IR Inten    --     17.1823                19.5942                20.9364

                     37                     38                     39
                      A                      A                      A
 Frequencies --    879.9530               919.7283               932.0271
 Red. masses --      3.2535                 1.8289                 1.8421
 Frc consts  --      1.4843                 0.9115                 0.9428
 IR Inten    --     22.6179                66.4109                 4.5530

                     40                     41                     42
                      A                      A                      A
 Frequencies --    941.3825               953.0618               957.1412
 Red. masses --      1.3685                 1.3434                 2.2761
 Frc consts  --      0.7146                 0.7189                 1.2286
 IR Inten    --      0.4510                 4.7321                18.1908

                     43                     44                     45
                      A                      A                      A
 Frequencies --    976.0591              1013.4513              1034.3439
 Red. masses --      3.2746                 1.9543                 2.8372
 Frc consts  --      1.8381                 1.1826                 1.7884
 IR Inten    --      1.7801                37.0488               173.1395

                     46                     47                     48
                      A                      A                      A
 Frequencies --   1052.2164              1088.7736              1103.8333
 Red. masses --      2.9417                 3.6901                 1.5287
 Frc consts  --      1.9190                 2.5773                 1.0974
 IR Inten    --      9.5062                95.7530                 8.7899

                     49                     50                     51
                      A                      A                      A
 Frequencies --   1120.8499              1133.3739              1147.7752
 Red. masses --      2.4342                 1.6087                 1.8247
 Frc consts  --      1.8018                 1.2175                 1.4163
 IR Inten    --    153.1188                23.5378                20.1504

                     52                     53                     54
                      A                      A                      A
 Frequencies --   1150.1978              1166.2024              1177.4092
 Red. masses --      1.7553                 2.0958                 1.3785
 Frc consts  --      1.3682                 1.6794                 1.1260
 IR Inten    --    129.4600                22.2183                17.1263

                     55                     56                     57
                      A                      A                      A
 Frequencies --   1187.0150              1195.7712              1219.2182
 Red. masses --      3.0201                 2.1909                 1.9743
 Frc consts  --      2.5072                 1.8457                 1.7291
 IR Inten    --     26.9668                47.7044                29.1733

                     58                     59                     60
                      A                      A                      A
 Frequencies --   1224.8640              1262.3573              1277.4255
 Red. masses --      1.7054                 1.7151                 1.3496
 Frc consts  --      1.5075                 1.6103                 1.2976
 IR Inten    --     33.2292                18.3626                79.7519

                     61                     62                     63
                      A                      A                      A
 Frequencies --   1296.6632              1304.1568              1354.2381
 Red. masses --      1.3715                 3.6842                 1.5272
 Frc consts  --      1.3586                 3.6919                 1.6502
 IR Inten    --    125.9540                41.9567                 3.9622

                     64                     65                     66
                      A                      A                      A
 Frequencies --   1370.7839              1387.4518              1406.9134
 Red. masses --      1.2751                 1.3151                 1.1770
 Frc consts  --      1.4116                 1.4916                 1.3726
 IR Inten    --     12.8075                 4.6981                10.7878

                     67                     68                     69
                      A                      A                      A
 Frequencies --   1411.1654              1415.4789              1423.9422
 Red. masses --      1.2926                 1.6056                 1.2685
 Frc consts  --      1.5166                 1.8954                 1.5154
 IR Inten    --     26.4590                35.1054                 8.5113

                     70                     71                     72
                      A                      A                      A
 Frequencies --   1426.3161              1440.1913              1441.4768
 Red. masses --      1.3419                 1.7680                 1.2539
 Frc consts  --      1.6084                 2.1607                 1.5350
 IR Inten    --     22.9836                83.3218                 9.4649

                     73                     74                     75
                      A                      A                      A
 Frequencies --   1458.3722              1473.6982              1475.2685
 Red. masses --      1.3364                 1.6710                 1.2012
 Frc consts  --      1.6747                 2.1381                 1.5404
 IR Inten    --     56.1197                18.3972                21.5161

                     76                     77                     78
                      A                      A                      A
 Frequencies --   1484.4256              1495.3540              1500.4080
 Red. masses --      1.0999                 1.3036                 1.1107
 Frc consts  --      1.4280                 1.7174                 1.4732
 IR Inten    --      6.2414                70.0527                 8.4956

                     79                     80                     81
                      A                      A                      A
 Frequencies --   1504.8195              1511.7628              1513.5090
 Red. masses --      1.0923                 1.0492                 1.0903
 Frc consts  --      1.4574                 1.4128                 1.4715
 IR Inten    --     25.8352                 0.6437                21.2493

                     82                     83                     84
                      A                      A                      A
 Frequencies --   1523.7054              1526.5211              1529.3073
 Red. masses --      1.0650                 1.0870                 1.0542
 Frc consts  --      1.4569                 1.4924                 1.4526
 IR Inten    --      5.0373                 7.3077                 2.6455

                     85                     86                     87
                      A                      A                      A
 Frequencies --   1530.1683              1547.7553              1554.4580
 Red. masses --      1.0724                 1.0567                 1.1319
 Frc consts  --      1.4794                 1.4915                 1.6114
 IR Inten    --      6.5909                 6.1067                27.5042

                     88                     89                     90
                      A                      A                      A
 Frequencies --   1660.9135              1737.4888              2989.5534
 Red. masses --      4.3925                 8.3957                 1.0824
 Frc consts  --      7.1394                14.9331                 5.6998
 IR Inten    --    362.2666               252.0715                67.3092

                     91                     92                     93
                      A                      A                      A
 Frequencies --   3003.4714              3020.2112              3038.1574
 Red. masses --      1.0732                 1.0422                 1.0623
 Frc consts  --      5.7040                 5.6011                 5.7773
 IR Inten    --     61.6716                96.5369                73.1849

                     94                     95                     96
                      A                      A                      A
 Frequencies --   3048.2819              3050.5032              3053.6248
 Red. masses --      1.0787                 1.0324                 1.0400
 Frc consts  --      5.9058                 5.6605                 5.7137
 IR Inten    --     20.6990                42.6603                32.1490

                     97                     98                     99
                      A                      A                      A
 Frequencies --   3057.0662              3058.9606              3079.4876
 Red. masses --      1.0637                 1.0415                 1.0945
 Frc consts  --      5.8570                 5.7422                 6.1151
 IR Inten    --     10.6433                18.5355                38.1238

                    100                    101                    102
                      A                      A                      A
 Frequencies --   3082.8191              3112.8856              3114.0975
 Red. masses --      1.0998                 1.1019                 1.0885
 Frc consts  --      6.1584                 6.2912                 6.2194
 IR Inten    --     44.8884                33.8170                 8.5649

                    103                    104                    105
                      A                      A                      A
 Frequencies --   3120.8094              3123.7474              3123.7957
 Red. masses --      1.1007                 1.1040                 1.1018
 Frc consts  --      6.3161                 6.3468                 6.3348
 IR Inten    --     13.1912                29.3850                26.2205

                    106                    107                    108
                      A                      A                      A
 Frequencies --   3127.6483              3129.5592              3131.2236
 Red. masses --      1.0970                 1.0979                 1.1004
 Frc consts  --      6.3224                 6.3352                 6.3567
 IR Inten    --      3.9562                31.1165                36.0986

                    109                    110                    111
                      A                      A                      A
 Frequencies --   3136.4329              3160.1625              3733.4079
 Red. masses --      1.1027                 1.1008                 1.0649
 Frc consts  --      6.3910                 6.4769                 8.7455
 IR Inten    --     20.7903                16.8548                24.5514

 - Thermochemistry -
 -------------------
 Temperature   298.150 Kelvin.  Pressure   1.00000 Atm.
 Atom     1 has atomic number  6 and mass  12.00000

 Molecular mass:   242.16304 amu.
 Principal axes and moments of inertia in atomic units:
                           1         2         3
     Eigenvalues --  2956.006745166.161936309.49117
           X            0.99970  -0.01955   0.01506
           Y            0.01943   0.99978   0.00843
           Z           -0.01522  -0.00813   0.99985
 This molecule is an asymmetric top.
 Rotational symmetry number  1.
 Warning -- assumption of classical behavior for rotation
           may cause significant error
 Rotational temperatures (Kelvin)      0.02930     0.01677     0.01373
 Rotational constants (GHZ):           0.61053     0.34934     0.28604
 Zero-point vibrational energy     899380.1 (Joules/Mol)
                                  214.95701 (Kcal/Mol)
 Warning -- explicit consideration of  30 degrees of freedom as
           vibrations may cause significant error
 Vibrational temperatures:     27.91    58.64    65.63    83.69   114.37
          (Kelvin)            159.61   184.97   206.67   260.73   292.11
                              316.31   342.75   353.08   377.97   394.25
                              419.63   428.29   436.38   488.66   514.48
                              538.60   565.11   569.22   617.13   670.56
                              696.20   722.54   761.44   835.98   850.36
                              925.82   943.78  1046.20  1099.87  1176.64
                             1226.95  1266.06  1323.28  1340.98  1354.44
                             1371.24  1377.11  1404.33  1458.13  1488.19
                             1513.90  1566.50  1588.17  1612.65  1630.67
                             1651.39  1654.88  1677.91  1694.03  1707.85
                             1720.45  1754.18  1762.31  1816.25  1837.93
                             1865.61  1876.39  1948.45  1972.25  1996.23
                             2024.23  2030.35  2036.56  2048.74  2052.15
                             2072.11  2073.96  2098.27  2120.32  2122.58
                             2135.76  2151.48  2158.75  2165.10  2175.09
                             2177.60  2192.27  2196.32  2200.33  2201.57
                             2226.87  2236.52  2389.68  2499.86  4301.30
                             4321.33  4345.41  4371.23  4385.80  4388.99
                             4393.49  4398.44  4401.16  4430.70  4435.49
                             4478.75  4480.49  4490.15  4494.38  4494.45
                             4499.99  4502.74  4505.13  4512.63  4546.77
                             5371.54

 Zero-point correction=                           0.342556 (Hartree/Particle)
 Thermal correction to Energy=                    0.361179
 Thermal correction to Enthalpy=                  0.362123
 Thermal correction to Gibbs Free Energy=         0.295259
 Sum of electronic and zero-point Energies=           -805.383995
 Sum of electronic and thermal Energies=              -805.365372
 Sum of electronic and thermal Enthalpies=            -805.364428
 Sum of electronic and thermal Free Energies=         -805.431291

                     E (Thermal)             CV                S
                      KCal/Mol        Cal/Mol-Kelvin    Cal/Mol-Kelvin
 Total                  226.643             69.773            140.726
 Electronic               0.000              0.000              0.000
 Translational            0.889              2.981             42.354
 Rotational               0.889              2.981             32.932
 Vibrational            224.866             63.811             65.440
 Vibration     1          0.593              1.986              6.695
 Vibration     2          0.594              1.981              5.222
 Vibration     3          0.595              1.979              4.999
 Vibration     4          0.596              1.974              4.518
 Vibration     5          0.600              1.963              3.903
 Vibration     6          0.607              1.940              3.252
 Vibration     7          0.611              1.925              2.968
 Vibration     8          0.616              1.910              2.755
 Vibration     9          0.630              1.865              2.316
 Vibration    10          0.639              1.836              2.106
 Vibration    11          0.647              1.811              1.960
 Vibration    12          0.656              1.782              1.816
 Vibration    13          0.660              1.770              1.763
 Vibration    14          0.670              1.741              1.644
 Vibration    15          0.676              1.721              1.571
 Vibration    16          0.687              1.689              1.464
 Vibration    17          0.691              1.678              1.430
 Vibration    18          0.695              1.667              1.399
 Vibration    19          0.720              1.596              1.214
 Vibration    20          0.733              1.560              1.133
 Vibration    21          0.745              1.525              1.062
 Vibration    22          0.760              1.486              0.990
 Vibration    23          0.762              1.480              0.979
 Vibration    24          0.790              1.407              0.862
 Vibration    25          0.823              1.325              0.749
 Vibration    26          0.840              1.286              0.700
 Vibration    27          0.858              1.245              0.653
 Vibration    28          0.884              1.185              0.589
 Vibration    29          0.938              1.072              0.483
 Vibration    30          0.948              1.051              0.465

                           ! Non-Optimized Parameters !
 Normal termination of Gaussian 16 at Fri Dec 11 13:37:02 2020.

 ----------------------------------------------------------------------
 # B3LYP/6-311++G(d,p) empiricaldispersion=gd3bj scf=xqc pop=npa geom=c
 heck
 ----------------------------------------------------------------------

 ---------------------------------------
 CID_138527253_JID_7684_Energie_neutraal
 ---------------------------------------
 Structure from the checkpoint file:  "JID_7684.chk"
 Charge =  0 Multiplicity = 1

 SCF Done:  E(RB3LYP) =  -805.963734037     A.U. after   15 cycles
 Normal termination of Gaussian 16 at Fri Dec 11 13:44:07 2020.

 ----------------------------------------------------------------------
 # B3LYP/6-311++G(d,p) empiricaldispersion=gd3bj scf=xqc pop=npa geom=c
 heck
 ----------------------------------------------------------------------

 -------------------------------------
 CID_138527253_JID_7684_Energie_kation
 -------------------------------------
 Structure from the checkpoint file:  "JID_7684.chk"
 Charge =  1 Multiplicity = 2

 SCF Done:  E(UB3LYP) =  -805.702433202     A.U. after   24 cycles
 Normal termination of Gaussian 16 at Fri Dec 11 13:59:08 2020.
 Gaussian 16:  ES64L-G16RevA.03 25-Dec-2016

 ----------------------------------------------------------------------
 # B3LYP/6-311++G(d,p) empiricaldispersion=gd3bj scf=xqc pop=npa geom=c
 heck
 ----------------------------------------------------------------------

 ------------------------------------
 CID_138527253_JID_7684_Energie_anion
 ------------------------------------
 Structure from the checkpoint file:  "JID_7684.chk"
 Charge = -1 Multiplicity = 2

                         Standard orientation:
 ---------------------------------------------------------------------
 Center     Atomic      Atomic             Coordinates (Angstroms)
 Number     Number       Type             X           Y           Z
 ---------------------------------------------------------------------
      1          6           0        3.602529    1.215216    1.208356
      2          6           0        2.130720    1.503583    0.918625
      3          6           0        1.929538    2.715496    0.010318
      4          8           0        1.408797    0.364273    0.404369
      5          6           0        2.040096   -0.516223   -0.483445
      6          7           0        1.153833   -1.556217   -0.918339
      7          6           0        0.896915   -2.618781    0.050820
      8          6           0       -0.092821   -2.217001    1.155990
      9          6           0       -1.336904   -1.483963    0.652532
     10          8           0       -2.392969   -1.594606    1.281222
     11          6           0       -1.185609   -0.687163   -0.565326
     12          6           0       -1.997195    0.346857   -0.936924
     13          7           0       -2.827168    1.124974   -0.191648
     14          6           0       -3.884598    1.873758   -0.843294
     15          6           0       -2.778073    1.160184    1.257102
     16          6           0       -0.091424   -1.107961   -1.548989
     17          8           0        2.494652    0.225763   -1.604099
     18          1           0        4.160250    1.039740    0.283287
     19          1           0        3.715395    0.344905    1.864069
     20          1           0        4.048619    2.078270    1.713957
     21          1           0        1.624292    1.697094    1.872070
     22          1           0        2.447071    2.575852   -0.941322
     23          1           0        0.862462    2.850581   -0.192677
     24          1           0        2.310134    3.622353    0.495812
     25          1           0        2.893568   -1.005960    0.012632
     26          1           0        0.498324   -3.475567   -0.508146
     27          1           0        1.851764   -2.937389    0.485628
     28          1           0        0.406650   -1.523867    1.844359
     29          1           0       -0.419268   -3.086751    1.735058
     30          1           0       -1.937454    0.686922   -1.973039
     31          1           0       -4.860500    1.376240   -0.746102
     32          1           0       -3.965750    2.875441   -0.405406
     33          1           0       -3.660690    1.974279   -1.909537
     34          1           0       -3.337632    0.340281    1.718724
     35          1           0       -1.734506    1.065883    1.572259
     36          1           0       -3.168043    2.127485    1.590619
     37          1           0        0.158173   -0.286942   -2.223822
     38          1           0       -0.436254   -1.948899   -2.169622
     39          1           0        2.773858   -0.438710   -2.255417
 ---------------------------------------------------------------------

 SCF Done:  E(UB3LYP) =  -805.953356076     A.U. after   33 cycles
 SCF Done:  E(UB3LYP) =  -805.953356076     a.u. after    1 cycles

 The electronic state is 2-A.
 Alpha  occ. eigenvalues --  -19.02935 -19.01994 -18.96500 -14.23748 -14.20946
 Alpha  occ. eigenvalues --  -10.19325 -10.12303 -10.11745 -10.10702 -10.09733
 Alpha  occ. eigenvalues --  -10.09728 -10.09092 -10.08450 -10.06209 -10.05452
 Alpha  occ. eigenvalues --  -10.05070 -10.04398  -0.97475  -0.90483  -0.89795
 Alpha  occ. eigenvalues --   -0.84933  -0.82454  -0.68479  -0.67480  -0.65380
 Alpha  occ. eigenvalues --   -0.62391  -0.60828  -0.59131  -0.57068  -0.53558
 Alpha  occ. eigenvalues --   -0.51002  -0.48528  -0.46727  -0.43914  -0.41807
 Alpha  occ. eigenvalues --   -0.39775  -0.39592  -0.38378  -0.36975  -0.36220
 Alpha  occ. eigenvalues --   -0.36011  -0.34522  -0.33437  -0.32675  -0.31371
 Alpha  occ. eigenvalues --   -0.30960  -0.30565  -0.30218  -0.29584  -0.29165
 Alpha  occ. eigenvalues --   -0.28579  -0.28203  -0.28191  -0.27563  -0.26764
 Alpha  occ. eigenvalues --   -0.25617  -0.25038  -0.24186  -0.22548  -0.21654
 Alpha  occ. eigenvalues --   -0.19764  -0.19083  -0.16938  -0.13206  -0.11892
 Alpha  occ. eigenvalues --   -0.09019   0.04239
 Alpha virt. eigenvalues --    0.06038   0.06553   0.07030   0.07812   0.08429
 Alpha virt. eigenvalues --    0.08605   0.09500   0.09635   0.10438   0.10698
 Alpha virt. eigenvalues --    0.11038   0.11353   0.11883   0.12528   0.12933

  Beta  occ. eigenvalues --  -19.02918 -19.01993 -18.96371 -14.23709 -14.20943
  Beta  occ. eigenvalues --  -10.19311 -10.12293 -10.11632 -10.10681 -10.09712
  Beta  occ. eigenvalues --  -10.09615 -10.09073 -10.08431 -10.06179 -10.05459
  Beta  occ. eigenvalues --  -10.05053 -10.04429  -0.97458  -0.90461  -0.89553
  Beta  occ. eigenvalues --   -0.84822  -0.82438  -0.68425  -0.67410  -0.65317
  Beta  occ. eigenvalues --   -0.62347  -0.60732  -0.59074  -0.56995  -0.53523
  Beta  occ. eigenvalues --   -0.50912  -0.48396  -0.46660  -0.43854  -0.41747
  Beta  occ. eigenvalues --   -0.39714  -0.39547  -0.38308  -0.36875  -0.36138
  Beta  occ. eigenvalues --   -0.35952  -0.34428  -0.33380  -0.32643  -0.31329
  Beta  occ. eigenvalues --   -0.30821  -0.30523  -0.30175  -0.29521  -0.29110
  Beta  occ. eigenvalues --   -0.28547  -0.28166  -0.28151  -0.27500  -0.26685
  Beta  occ. eigenvalues --   -0.25585  -0.24971  -0.24075  -0.22196  -0.21599
  Beta  occ. eigenvalues --   -0.19679  -0.18747  -0.16911  -0.13164  -0.11785
  Beta  occ. eigenvalues --   -0.08768
  Beta virt. eigenvalues --    0.06351   0.06759   0.07360   0.07815   0.08211
  Beta virt. eigenvalues --    0.08796   0.09044   0.09673   0.09919   0.10562
  Beta virt. eigenvalues --    0.10819   0.11212   0.11630   0.12159   0.12548

 Mulliken charges and spin densities:
               1          2
     1  C    0.759864  -1.343756
     2  C   -0.945624   1.189431
     3  C    0.310189  -0.838502
     4  O    0.058606   0.016495
     5  C    0.119316  -0.700937
     6  N    0.009505   0.063229
     7  C    0.105581  -0.383675
     8  C    0.006283   0.049930
     9  C   -0.357836  -0.320579
    10  O   -0.323752   0.058383
    11  C   -0.003264   0.568050
    12  C   -0.315824   0.105290
    13  N    0.076488   0.090585
    14  C    0.474400  -0.730382
    15  C   -0.120857  -0.268140
    16  C   -0.215584  -0.536683
    17  O   -0.301971   0.079640
    18  H   -0.124684   0.297595
    19  H   -0.145321   0.292285
    20  H   -0.156150   0.306027
    21  H   -0.154156   0.322106
    22  H    0.081520   0.072725
    23  H    0.040502   0.097800
    24  H   -0.163257   0.294259
    25  H    0.188948   0.012158
    26  H    0.181717  -0.046062
    27  H   -0.356299   0.509334
    28  H    0.196232  -0.022823
    29  H    0.140917   0.048894
    30  H   -0.033626   0.163147
    31  H    0.092401   0.057121
    32  H   -0.207971   0.346663
    33  H   -0.235912   0.357368
    34  H    0.210042  -0.014880
    35  H    0.109223   0.072579
    36  H   -0.211646   0.320946
    37  H    0.161651   0.018913
    38  H   -0.009023   0.192513
    39  H    0.059369   0.202951
 Sum of Mulliken charges =  -1.00000   1.00000

 Dipole moment (field-independent basis, Debye):
    X=             -0.1729    Y=             -2.1547    Z=             -1.8252  Tot=              2.8292
 Quadrupole moment (field-independent basis, Debye-Ang):
   XX=           -168.0944   YY=           -151.5227   ZZ=           -137.6860
   XY=             -0.3873   XZ=             -0.7282   YZ=              4.0762

 Summary of Natural Population Analysis:

                                       Natural Population
                Natural  -----------------------------------------------
    Atom  No    Charge         Core      Valence    Rydberg      Total
 -----------------------------------------------------------------------
      C    1   -0.30447      0.99964     2.29988    0.00495     3.30447
      C    2    0.06567      0.99956     1.92081    0.01396     2.93433
      C    3   -0.29579      0.99964     2.29105    0.00510     3.29579
      O    4   -0.31031      0.99986     3.29967    0.01078     4.31031
      C    5    0.30528      0.99959     1.67305    0.02209     2.69472
      N    6   -0.28540      0.99970     2.77111    0.01459     3.78540
      C    7   -0.08240      0.99962     2.07154    0.01124     3.08240
      C    8   -0.24122      0.99959     2.23240    0.00922     3.24122
      C    9    0.27872      0.99957     1.70172    0.01999     2.72128
      O   10   -0.30850      0.99988     3.30241    0.00621     4.30850
      C   11   -0.13476      0.99947     2.12540    0.00990     3.13476
      C   12    0.08053      0.99948     1.90750    0.01249     2.91947
      N   13   -0.22498      0.99968     2.71487    0.01044     3.72498
      C   14   -0.16759      0.99964     2.16057    0.00739     3.16759
      C   15   -0.17855      0.99963     2.17068    0.00824     3.17855
      C   16   -0.08722      0.99959     2.07557    0.01206     3.08722
      O   17   -0.37795      0.99989     3.37164    0.00642     4.37795
      H   18    0.10365      0.00000     0.39519    0.00116     0.39635
      H   19    0.10229      0.00000     0.39643    0.00128     0.39771
      H   20    0.10302      0.00000     0.39606    0.00092     0.39698
      H   21    0.08633      0.00000     0.41220    0.00147     0.41367
      H   22    0.10640      0.00000     0.39214    0.00146     0.39360
      H   23    0.10521      0.00000     0.39347    0.00132     0.39479
      H   24    0.09429      0.00000     0.40469    0.00102     0.40571
      H   25    0.06800      0.00000     0.42976    0.00224     0.43200
      H   26    0.09062      0.00000     0.40828    0.00110     0.40938
      H   27    0.09720      0.00000     0.40158    0.00122     0.40280
      H   28    0.11330      0.00000     0.38474    0.00197     0.38670
      H   29    0.10295      0.00000     0.39590    0.00115     0.39705
      H   30    0.08407      0.00000     0.41464    0.00129     0.41593
      H   31    0.08733      0.00000     0.41170    0.00097     0.41267
      H   32    0.09458      0.00000     0.40407    0.00135     0.40542
      H   33    0.09778      0.00000     0.40109    0.00112     0.40222
      H   34    0.10952      0.00000     0.38943    0.00105     0.39048
      H   35    0.10345      0.00000     0.39526    0.00129     0.39655
      H   36    0.09057      0.00000     0.40843    0.00100     0.40943
      H   37    0.10601      0.00000     0.39260    0.00139     0.39399
      H   38    0.08906      0.00000     0.40981    0.00113     0.41094
      H   39    0.23332      0.00000     0.26292    0.00376     0.26668
 =======================================================================
   * Total *   -0.00000     16.99403    48.79026    0.21571    66.00000

 Normal termination of Gaussian 16 at Fri Dec 11 14:20:31 2020.
