 Gaussian 16, Revision A.03,

 -----------------------------------------------------------
 # opt freq B3LYP/6-31G(d) empiricaldispersion=gd3bj scf=xqc
 -----------------------------------------------------------

 -------------------------------
 CID_107049373_JID_5696_neutraal
 -------------------------------
 Symbolic Z-matrix:
 Charge =  0 Multiplicity = 1

 SCF Done:  E(RB3LYP) =  -1026.35468545     A.U. after   15 cycles
 SCF Done:  E(RB3LYP) =  -1026.35913774     A.U. after   13 cycles
 SCF Done:  E(RB3LYP) =  -1026.35590607     A.U. after   14 cycles
 SCF Done:  E(RB3LYP) =  -1026.35788062     A.U. after   13 cycles
 SCF Done:  E(RB3LYP) =  -1026.36098464     A.U. after   10 cycles
 SCF Done:  E(RB3LYP) =  -1026.35978084     A.U. after   15 cycles
 SCF Done:  E(RB3LYP) =  -1026.36132251     A.U. after   12 cycles
 SCF Done:  E(RB3LYP) =  -1026.36179587     A.U. after   12 cycles
 SCF Done:  E(RB3LYP) =  -1026.36189876     A.U. after   12 cycles
 SCF Done:  E(RB3LYP) =  -1026.36207377     A.U. after   12 cycles
 SCF Done:  E(RB3LYP) =  -1026.36319635     A.U. after   10 cycles
 SCF Done:  E(RB3LYP) =  -1026.36319663     A.U. after    7 cycles
 SCF Done:  E(RB3LYP) =  -1026.36319625     A.U. after    8 cycles
 SCF Done:  E(RB3LYP) =  -1026.36319683     A.U. after    9 cycles
 SCF Done:  E(RB3LYP) =  -1026.36319676     A.U. after    8 cycles
 Optimization completed.
    -- Stationary point found.
 Normal termination of Gaussian 16 at Thu Dec 10 17:51:29 2020.

 --------------------------------------------------------------------
 #N Geom=AllCheck Guess=TCheck SCRF=Check GenChk RB3LYP/6-31G(d) Freq
 --------------------------------------------------------------------

 Structure from the checkpoint file:  "JID_5696.chk"
 -------------------------------
 CID_107049373_JID_5696_neutraal
 -------------------------------
 Charge =  0 Multiplicity = 1

 SCF Done:  E(RB3LYP) =  -1026.36319676     A.U. after    1 cycles

  Exact polarizability: 146.699   6.082 170.529  -9.022   1.446 109.577
 Approx polarizability: 209.338   9.520 243.464 -24.450  -0.888 173.963

                      1                      2                      3
                      A                      A                      A
 Frequencies --     16.1977                35.8824                44.2205
 Red. masses --      5.2239                 3.6070                 4.1423
 Frc consts  --      0.0008                 0.0027                 0.0048
 IR Inten    --      1.7047                 0.0478                 1.9361

                      4                      5                      6
                      A                      A                      A
 Frequencies --     58.8902                81.3203                94.5814
 Red. masses --      2.8249                 3.2618                 1.1692
 Frc consts  --      0.0058                 0.0127                 0.0062
 IR Inten    --      0.7347                 0.0763                 0.0228

                      7                      8                      9
                      A                      A                      A
 Frequencies --    106.0666               139.0392               148.8554
 Red. masses --      3.0211                 2.8361                 4.1489
 Frc consts  --      0.0200                 0.0323                 0.0542
 IR Inten    --      0.3042                 0.6585                 0.3658

                     10                     11                     12
                      A                      A                      A
 Frequencies --    191.2274               204.8821               220.1691
 Red. masses --      2.6299                 2.2034                 2.2060
 Frc consts  --      0.0567                 0.0545                 0.0630
 IR Inten    --      4.3127                 2.7323                 2.6149

                     13                     14                     15
                      A                      A                      A
 Frequencies --    260.8614               269.4151               286.0578
 Red. masses --      1.6691                 1.2972                 1.1777
 Frc consts  --      0.0669                 0.0555                 0.0568
 IR Inten    --      2.3031                 0.4470                 0.3694

                     16                     17                     18
                      A                      A                      A
 Frequencies --    314.0998               323.1387               336.9327
 Red. masses --      2.9110                 2.8117                 3.1767
 Frc consts  --      0.1692                 0.1730                 0.2125
 IR Inten    --      0.8892                 2.7029                 2.0548

                     19                     20                     21
                      A                      A                      A
 Frequencies --    350.9758               380.8020               429.3446
 Red. masses --      2.5617                 3.0257                 3.2782
 Frc consts  --      0.1859                 0.2585                 0.3560
 IR Inten    --      0.1940                 1.2237                 0.1611

                     22                     23                     24
                      A                      A                      A
 Frequencies --    446.3950               480.5351               541.1250
 Red. masses --      2.4328                 2.5699                 3.2604
 Frc consts  --      0.2856                 0.3496                 0.5625
 IR Inten    --      3.3634                 5.5581                 4.1492

                     25                     26                     27
                      A                      A                      A
 Frequencies --    596.7482               667.9724               693.0040
 Red. masses --      3.8077                 4.5357                 9.5894
 Frc consts  --      0.7989                 1.1924                 2.7134
 IR Inten    --      4.0507                 1.6642                 1.1847

                     28                     29                     30
                      A                      A                      A
 Frequencies --    746.3809               755.3371               800.8692
 Red. masses --      4.7941                 5.3120                 3.8960
 Frc consts  --      1.5735                 1.7856                 1.4723
 IR Inten    --      9.8042                10.0662                16.3992

                     31                     32                     33
                      A                      A                      A
 Frequencies --    816.3416               834.1025               904.1462
 Red. masses --      2.4705                 1.5476                 2.5598
 Frc consts  --      0.9700                 0.6344                 1.2329
 IR Inten    --     47.3227                65.2684                 3.0111

                     34                     35                     36
                      A                      A                      A
 Frequencies --    906.3476               950.1828               968.8381
 Red. masses --      2.2546                 1.1588                 1.4878
 Frc consts  --      1.0912                 0.6164                 0.8228
 IR Inten    --      7.0513                 2.0669                 2.7811

                     37                     38                     39
                      A                      A                      A
 Frequencies --    972.5964              1025.6489              1045.0634
 Red. masses --      1.6858                 2.0010                 3.2550
 Frc consts  --      0.9395                 1.2402                 2.0946
 IR Inten    --     23.4727                10.6568                20.8610

                     40                     41                     42
                      A                      A                      A
 Frequencies --   1056.5736              1080.2371              1101.4360
 Red. masses --      2.8849                 2.2029                 1.4690
 Frc consts  --      1.8975                 1.5145                 1.0500
 IR Inten    --      3.2835                 9.7151                 4.2834

                     43                     44                     45
                      A                      A                      A
 Frequencies --   1108.1887              1138.3464              1142.8352
 Red. masses --      7.2209                 2.6190                 2.3019
 Frc consts  --      5.2248                 1.9996                 1.7713
 IR Inten    --      7.7139                32.3327                 5.4310

                     46                     47                     48
                      A                      A                      A
 Frequencies --   1161.8097              1169.1364              1180.1435
 Red. masses --      1.3125                 1.2795                 1.4862
 Frc consts  --      1.0438                 1.0304                 1.2196
 IR Inten    --      0.2053                18.0645                15.7082

                     49                     50                     51
                      A                      A                      A
 Frequencies --   1205.4001              1207.3563              1236.5341
 Red. masses --      1.8733                 1.5206                 2.2437
 Frc consts  --      1.6037                 1.3060                 2.0213
 IR Inten    --      7.7482                 1.8817                22.1332

                     52                     53                     54
                      A                      A                      A
 Frequencies --   1263.7577              1302.8509              1316.4522
 Red. masses --      2.9751                 1.3798                 1.2926
 Frc consts  --      2.7995                 1.3799                 1.3199
 IR Inten    --     30.7555                 4.7241                 9.3084

                     55                     56                     57
                      A                      A                      A
 Frequencies --   1320.1346              1329.3460              1361.0985
 Red. masses --      1.9559                 1.7499                 1.3267
 Frc consts  --      2.0083                 1.8220                 1.4481
 IR Inten    --     14.6193                13.2364                 2.0488

                     58                     59                     60
                      A                      A                      A
 Frequencies --   1377.1677              1388.5407              1418.5879
 Red. masses --      1.4147                 1.4347                 7.3035
 Frc consts  --      1.5809                 1.6297                 8.6596
 IR Inten    --     28.1507                 6.9695                18.3705

                     61                     62                     63
                      A                      A                      A
 Frequencies --   1428.2027              1435.6881              1449.3524
 Red. masses --      1.2476                 4.1241                 1.2263
 Frc consts  --      1.4993                 5.0085                 1.5177
 IR Inten    --      4.8340                 9.2897                 0.8662

                     64                     65                     66
                      A                      A                      A
 Frequencies --   1468.7186              1480.8163              1496.6715
 Red. masses --      1.1893                 1.1750                 1.1211
 Frc consts  --      1.5116                 1.5180                 1.4796
 IR Inten    --      0.2880                 4.2714                 5.1432

                     67                     68                     69
                      A                      A                      A
 Frequencies --   1500.4443              1504.9271              1514.4227
 Red. masses --      1.1364                 1.0422                 1.0440
 Frc consts  --      1.5074                 1.3907                 1.4107
 IR Inten    --     12.3205                10.5464                 0.1628

                     70                     71                     72
                      A                      A                      A
 Frequencies --   1522.0415              1529.0474              1531.9533
 Red. masses --      1.0742                 1.2921                 1.0552
 Frc consts  --      1.4662                 1.7798                 1.4590
 IR Inten    --     12.7796                16.6947                 4.6875

                     73                     74                     75
                      A                      A                      A
 Frequencies --   1533.1125              1534.8398              1546.3315
 Red. masses --      1.1015                 1.0628                 1.0629
 Frc consts  --      1.5254                 1.4751                 1.4975
 IR Inten    --     10.7727                 6.8969                 6.9001

                     76                     77                     78
                      A                      A                      A
 Frequencies --   1552.1001              1557.5163              2978.7468
 Red. masses --      2.2112                 1.1908                 1.0566
 Frc consts  --      3.1385                 1.7020                 5.5239
 IR Inten    --     17.1791                17.4031                71.7226

                     79                     80                     81
                      A                      A                      A
 Frequencies --   3039.7092              3050.2718              3056.0206
 Red. masses --      1.0466                 1.0417                 1.0838
 Frc consts  --      5.6974                 5.7102                 5.9639
 IR Inten    --     33.3539                24.7541                13.4065

                     82                     83                     84
                      A                      A                      A
 Frequencies --   3057.7437              3075.6282              3080.9012
 Red. masses --      1.0804                 1.0770                 1.0665
 Frc consts  --      5.9518                 6.0023                 5.9642
 IR Inten    --     16.4706                60.5866                15.0072

                     85                     86                     87
                      A                      A                      A
 Frequencies --   3088.9368              3094.0459              3111.7401
 Red. masses --      1.0322                 1.0588                 1.0952
 Frc consts  --      5.8025                 5.9718                 6.2484
 IR Inten    --     19.2598                11.7810                21.2825

                     88                     89                     90
                      A                      A                      A
 Frequencies --   3115.6038              3121.2735              3137.4538
 Red. masses --      1.0929                 1.1023                 1.0981
 Frc consts  --      6.2507                 6.3272                 6.3687
 IR Inten    --     34.2643                31.0662                 4.4193

                     91                     92                     93
                      A                      A                      A
 Frequencies --   3137.7715              3144.5929              3159.4677
 Red. masses --      1.1033                 1.1052                 1.1013
 Frc consts  --      6.4003                 6.4391                 6.4772
 IR Inten    --     18.1854                11.9655                 5.7749

                     94                     95                     96
                      A                      A                      A
 Frequencies --   3162.3621              3199.4144              3489.3020
 Red. masses --      1.1069                 1.1051                 1.0730
 Frc consts  --      6.5219                 6.6650                 7.6969
 IR Inten    --      6.6528                 0.8598                 6.5594

 - Thermochemistry -
 -------------------
 Temperature   298.150 Kelvin.  Pressure   1.00000 Atm.
 Atom     1 has atomic number  6 and mass  12.00000

 Molecular mass:   229.13612 amu.
 Principal axes and moments of inertia in atomic units:
                           1         2         3
     Eigenvalues --  3238.575123856.162206248.15206
           X            0.98889   0.14865   0.00005
           Y           -0.14865   0.98885   0.00909
           Z            0.00130  -0.00899   0.99996
 This molecule is an asymmetric top.
 Rotational symmetry number  1.
 Warning -- assumption of classical behavior for rotation
           may cause significant error
 Rotational temperatures (Kelvin)      0.02674     0.02246     0.01386
 Rotational constants (GHZ):           0.55726     0.46801     0.28884
 Zero-point vibrational energy     772773.9 (Joules/Mol)
                                  184.69738 (Kcal/Mol)
 Warning -- explicit consideration of  25 degrees of freedom as
           vibrations may cause significant error
 Vibrational temperatures:     23.30    51.63    63.62    84.73   117.00
          (Kelvin)            136.08   152.61   200.05   214.17   275.13
                              294.78   316.77   375.32   387.63   411.57
                              451.92   464.92   484.77   504.98   547.89
                              617.73   642.26   691.38   778.56   858.59
                              961.06   997.08  1073.88  1086.76  1152.27
                             1174.53  1200.09  1300.86  1304.03  1367.10
                             1393.94  1399.35  1475.68  1503.61  1520.17
                             1554.22  1584.72  1594.44  1637.83  1644.29
                             1671.59  1682.13  1697.96  1734.30  1737.12
                             1779.10  1818.27  1874.51  1894.08  1899.38
                             1912.63  1958.32  1981.44  1997.80  2041.03
                             2054.87  2065.63  2085.29  2113.16  2130.56
                             2153.38  2158.80  2165.25  2178.92  2189.88
                             2199.96  2204.14  2205.81  2208.29  2224.83
                             2233.13  2240.92  4285.75  4373.46  4388.66
                             4396.93  4399.41  4425.14  4432.73  4444.29
                             4451.64  4477.10  4482.66  4490.82  4514.10
                             4514.55  4524.37  4545.77  4549.93  4603.24
                             5020.33

 Zero-point correction=                           0.294334 (Hartree/Particle)
 Thermal correction to Energy=                    0.311549
 Thermal correction to Enthalpy=                  0.312493
 Thermal correction to Gibbs Free Energy=         0.247272
 Sum of electronic and zero-point Energies=          -1026.068863
 Sum of electronic and thermal Energies=             -1026.051648
 Sum of electronic and thermal Enthalpies=           -1026.050703
 Sum of electronic and thermal Free Energies=        -1026.115925

                     E (Thermal)             CV                S
                      KCal/Mol        Cal/Mol-Kelvin    Cal/Mol-Kelvin
 Total                  195.500             61.811            137.270
 Electronic               0.000              0.000              0.000
 Translational            0.889              2.981             42.190
 Rotational               0.889              2.981             32.723
 Vibrational            193.723             55.850             62.357
 Vibration     1          0.593              1.986              7.053
 Vibration     2          0.594              1.982              5.474
 Vibration     3          0.595              1.980              5.060
 Vibration     4          0.596              1.974              4.494
 Vibration     5          0.600              1.962              3.859
 Vibration     6          0.603              1.953              3.563
 Vibration     7          0.605              1.944              3.340
 Vibration     8          0.615              1.914              2.817
 Vibration     9          0.618              1.904              2.687
 Vibration    10          0.634              1.852              2.216
 Vibration    11          0.640              1.833              2.089
 Vibration    12          0.647              1.810              1.958
 Vibration    13          0.669              1.744              1.656
 Vibration    14          0.674              1.729              1.600
 Vibration    15          0.684              1.700              1.497
 Vibration    16          0.702              1.647              1.341
 Vibration    17          0.708              1.629              1.294
 Vibration    18          0.718              1.602              1.227
 Vibration    19          0.728              1.573              1.162
 Vibration    20          0.751              1.511              1.036
 Vibration    21          0.791              1.406              0.861
 Vibration    22          0.806              1.369              0.807
 Vibration    23          0.837              1.293              0.709
 Vibration    24          0.896              1.159              0.563
 Vibration    25          0.955              1.039              0.455

 Optimization completed.
    -- Stationary point found.
 Normal termination of Gaussian 16 at Thu Dec 10 18:04:02 2020.

 ----------------------------------------------------------------------
 # B3LYP/6-311++G(d,p) empiricaldispersion=gd3bj scf=xqc pop=npa geom=c
 heck
 ----------------------------------------------------------------------

 ---------------------------------------
 CID_107049373_JID_5696_Energie_neutraal
 ---------------------------------------
 Structure from the checkpoint file:  "JID_5696.chk"
 Charge =  0 Multiplicity = 1

 SCF Done:  E(RB3LYP) =  -1026.56327156     A.U. after   15 cycles
 Normal termination of Gaussian 16 at Thu Dec 10 18:10:38 2020.

 ----------------------------------------------------------------------
 # B3LYP/6-311++G(d,p) empiricaldispersion=gd3bj scf=xqc pop=npa geom=c
 heck
 ----------------------------------------------------------------------

 -------------------------------------
 CID_107049373_JID_5696_Energie_kation
 -------------------------------------
 Structure from the checkpoint file:  "JID_5696.chk"
 Charge =  1 Multiplicity = 2

 SCF Done:  E(UB3LYP) =  -1026.27895904     A.U. after   26 cycles
 Normal termination of Gaussian 16 at Thu Dec 10 18:26:12 2020.
 Gaussian 16:  ES64L-G16RevA.03 25-Dec-2016

 ----------------------------------------------------------------------
 # B3LYP/6-311++G(d,p) empiricaldispersion=gd3bj scf=xqc pop=npa geom=c
 heck
 ----------------------------------------------------------------------

 ------------------------------------
 CID_107049373_JID_5696_Energie_anion
 ------------------------------------
 Structure from the checkpoint file:  "JID_5696.chk"
 Charge = -1 Multiplicity = 2

                         Standard orientation:
 ---------------------------------------------------------------------
 Center     Atomic      Atomic             Coordinates (Angstroms)
 Number     Number       Type             X           Y           Z
 ---------------------------------------------------------------------
      1          6           0       -2.190402   -1.761925   -1.208983
      2          6           0       -2.834194   -1.045790   -0.022739
      3          6           0       -2.370056   -1.622655    1.316170
      4         16           0       -2.713120    0.810908   -0.105625
      5          6           0       -1.079158    1.236786   -0.836786
      6          6           0       -0.124833    1.954447    0.130764
      7          6           0        0.469670    0.988188    1.195684
      8          6           0        1.321052   -0.077942    0.594274
      9          7           0        1.064102   -1.386203    0.663245
     10          7           0        2.066921   -1.903894   -0.045198
     11          7           0        2.904235   -0.996938   -0.535069
     12          7           0        2.445245    0.167859   -0.138008
     13          6           0        2.232350   -3.328347   -0.262593
     14          7           0        0.862729    2.685622   -0.659417
     15          6           0        1.683241    3.614757    0.109220
     16          1           0       -1.098078   -1.719106   -1.150427
     17          1           0       -2.510302   -1.335136   -2.164179
     18          1           0       -2.473755   -2.821552   -1.191725
     19          1           0       -3.920979   -1.170924   -0.097268
     20          1           0       -1.282698   -1.573361    1.412989
     21          1           0       -2.826571   -1.089211    2.154954
     22          1           0       -2.661387   -2.679763    1.384967
     23          1           0       -0.615498    0.340289   -1.257159
     24          1           0       -1.277577    1.917811   -1.667421
     25          1           0       -0.705888    2.703996    0.682073
     26          1           0        1.071646    1.568488    1.903189
     27          1           0       -0.342230    0.523567    1.760043
     28          1           0        2.363907   -3.833701    0.696801
     29          1           0        1.348933   -3.725160   -0.767895
     30          1           0        3.116993   -3.459832   -0.884883
     31          1           0        1.480723    2.018381   -1.119855
     32          1           0        2.310785    3.145714    0.886637
     33          1           0        2.348229    4.151272   -0.574848
     34          1           0        1.035033    4.353455    0.595075
 ---------------------------------------------------------------------

 SCF Done:  E(UB3LYP) =  -1026.55447654     A.U. after   33 cycles
 SCF Done:  E(UB3LYP) =  -1026.55447654     a.u. after    1 cycles

 The electronic state is 2-A.
 Alpha  occ. eigenvalues --  -88.73280 -14.30864 -14.25526 -14.23332 -14.22183
 Alpha  occ. eigenvalues --  -14.20156 -10.12065 -10.11232 -10.10843 -10.10472
 Alpha  occ. eigenvalues --  -10.09931 -10.09526 -10.08213 -10.05708 -10.05462
 Alpha  occ. eigenvalues --   -7.81903  -5.78305  -5.77915  -5.77282  -1.02676
 Alpha  occ. eigenvalues --   -0.83231  -0.81807  -0.78054  -0.71735  -0.68499
 Alpha  occ. eigenvalues --   -0.65110  -0.62256  -0.59200  -0.58475  -0.54852
 Alpha  occ. eigenvalues --   -0.52823  -0.51235  -0.48605  -0.45471  -0.40797
 Alpha  occ. eigenvalues --   -0.40594  -0.38840  -0.37682  -0.36460  -0.35053
 Alpha  occ. eigenvalues --   -0.34449  -0.33948  -0.31901  -0.31650  -0.31310
 Alpha  occ. eigenvalues --   -0.31035  -0.30252  -0.28433  -0.28095  -0.27268
 Alpha  occ. eigenvalues --   -0.27216  -0.25615  -0.24812  -0.24529  -0.23036
 Alpha  occ. eigenvalues --   -0.20577  -0.19680  -0.19552  -0.18118  -0.17365
 Alpha  occ. eigenvalues --   -0.13568  -0.12264   0.04751
 Alpha virt. eigenvalues --    0.06790   0.06967   0.07401   0.08670   0.09208
 Alpha virt. eigenvalues --    0.09615   0.09771   0.10012   0.10829   0.11300
 Alpha virt. eigenvalues --    0.11764   0.12189   0.12645   0.12875   0.13192

  Beta  occ. eigenvalues --  -88.73279 -14.30621 -14.25203 -14.23192 -14.22139
  Beta  occ. eigenvalues --  -14.20153 -10.12090 -10.11233 -10.10805 -10.10464
  Beta  occ. eigenvalues --  -10.09930 -10.09523 -10.08210 -10.05666 -10.05447
  Beta  occ. eigenvalues --   -7.81902  -5.78304  -5.77914  -5.77281  -1.02327
  Beta  occ. eigenvalues --   -0.82913  -0.81769  -0.77795  -0.71714  -0.68471
  Beta  occ. eigenvalues --   -0.65025  -0.62137  -0.59179  -0.58419  -0.54830
  Beta  occ. eigenvalues --   -0.52746  -0.50967  -0.48544  -0.45432  -0.40467
  Beta  occ. eigenvalues --   -0.40288  -0.38543  -0.37636  -0.36415  -0.35022
  Beta  occ. eigenvalues --   -0.34415  -0.33915  -0.31849  -0.31478  -0.31175
  Beta  occ. eigenvalues --   -0.30958  -0.30229  -0.28384  -0.28057  -0.27190
  Beta  occ. eigenvalues --   -0.27107  -0.25588  -0.24783  -0.24434  -0.22984
  Beta  occ. eigenvalues --   -0.19587  -0.19549  -0.19377  -0.17888  -0.16618
  Beta  occ. eigenvalues --   -0.13512  -0.12251
  Beta virt. eigenvalues --    0.06701   0.07504   0.07994   0.08519   0.09152
  Beta virt. eigenvalues --    0.09402   0.09789   0.10165   0.10381   0.11246
  Beta virt. eigenvalues --    0.11509   0.12046   0.12311   0.12972   0.13104

 Mulliken charges and spin densities:
               1          2
     1  C    0.578718  -1.183854
     2  C   -0.659102   0.772862
     3  C   -0.101917  -0.593009
     4  S    0.071336  -0.143000
     5  C    0.219570  -0.204095
     6  C   -1.214024   0.248564
     7  C    0.212436  -0.140479
     8  C   -0.701736   0.070934
     9  N   -0.126306   0.177909
    10  N   -0.069634   0.198471
    11  N    0.137360   0.205295
    12  N   -0.305498  -0.077390
    13  C    1.225816  -1.509002
    14  N    0.051998   0.000350
    15  C   -0.337482  -0.029305
    16  H    0.091410   0.049783
    17  H    0.009150   0.139253
    18  H   -0.541755   0.705063
    19  H   -0.080685   0.312245
    20  H    0.269203  -0.100138
    21  H    0.030572   0.077641
    22  H   -0.157419   0.301285
    23  H    0.145607  -0.007656
    24  H    0.258687   0.023862
    25  H    0.162547   0.002222
    26  H    0.189990   0.003082
    27  H    0.176645  -0.019211
    28  H   -0.085715   0.252504
    29  H   -0.749646   0.955948
    30  H   -0.287553   0.457369
    31  H    0.251316   0.007094
    32  H    0.109358   0.018152
    33  H    0.120025   0.008888
    34  H    0.106727   0.018361
 Sum of Mulliken charges =  -1.00000   1.00000

 Dipole moment (field-independent basis, Debye):
    X=              0.3320    Y=              8.6569    Z=              4.0413  Tot=              9.5595
 Quadrupole moment (field-independent basis, Debye-Ang):
   XX=           -155.2440   YY=           -168.0942   ZZ=           -124.9260
   XY=             -0.1837   XZ=              3.6125   YZ=             -9.1351

 Summary of Natural Population Analysis:

                                       Natural Population
                Natural  -----------------------------------------------
    Atom  No    Charge         Core      Valence    Rydberg      Total
 -----------------------------------------------------------------------
      C    1   -0.29274      0.99963     2.28566    0.00745     3.29274
      C    2   -0.16076      0.99958     2.14754    0.01364     3.16076
      C    3   -0.29611      0.99962     2.28923    0.00726     3.29611
      S    4    0.07107      4.99961     2.91229    0.01703     7.92893
      C    5   -0.25856      0.99954     2.24659    0.01243     3.25856
      C    6   -0.00648      0.99958     1.99448    0.01242     3.00648
      C    7   -0.22308      0.99957     2.21522    0.00829     3.22308
      C    8    0.14473      0.99965     1.83499    0.02063     2.85527
      N    9   -0.14127      0.99968     2.63086    0.01074     3.64127
      N   10    0.01567      0.99972     2.46865    0.01596     3.48433
      N   11    0.00612      0.99977     2.47814    0.01596     3.49388
      N   12   -0.17856      0.99971     2.66479    0.01407     3.67856
      C   13   -0.17752      0.99963     2.17005    0.00784     3.17752
      N   14   -0.34465      0.99974     2.83522    0.00970     3.84465
      C   15   -0.17804      0.99967     2.17131    0.00706     3.17804
      H   16    0.10353      0.00000     0.39453    0.00194     0.39647
      H   17    0.10056      0.00000     0.39834    0.00110     0.39944
      H   18    0.10819      0.00000     0.38959    0.00222     0.39181
      H   19    0.09878      0.00000     0.39997    0.00125     0.40122
      H   20    0.11174      0.00000     0.38631    0.00194     0.38826
      H   21    0.09618      0.00000     0.40276    0.00106     0.40382
      H   22    0.10037      0.00000     0.39846    0.00117     0.39963
      H   23    0.10970      0.00000     0.38824    0.00206     0.39030
      H   24    0.10919      0.00000     0.38924    0.00157     0.39081
      H   25    0.09065      0.00000     0.40707    0.00228     0.40935
      H   26    0.10542      0.00000     0.39360    0.00098     0.39458
      H   27    0.11698      0.00000     0.38187    0.00115     0.38302
      H   28    0.09897      0.00000     0.40007    0.00096     0.40103
      H   29    0.11412      0.00000     0.37894    0.00694     0.38588
      H   30    0.10817      0.00000     0.39007    0.00176     0.39183
      H   31    0.18667      0.00000     0.31038    0.00295     0.31333
      H   32    0.08160      0.00000     0.41678    0.00162     0.41840
      H   33    0.09287      0.00000     0.40611    0.00102     0.40713
      H   34    0.08652      0.00000     0.41244    0.00104     0.41348
 =======================================================================
   * Total *    0.00000     18.99469    42.78982    0.21549    62.00000

 Normal termination of Gaussian 16 at Thu Dec 10 18:46:03 2020.
