 Gaussian 16, Revision A.03,

 -----------------------------------------------------------
 # opt freq B3LYP/6-31G(d) empiricaldispersion=gd3bj scf=xqc
 -----------------------------------------------------------

 -------------------------------
 CID_104257949_JID_5115_neutraal
 -------------------------------
 Symbolic Z-matrix:
 Charge =  0 Multiplicity = 1

 SCF Done:  E(RB3LYP) =  -667.730283354     A.U. after   15 cycles
 SCF Done:  E(RB3LYP) =  -667.735153752     A.U. after   12 cycles
 SCF Done:  E(RB3LYP) =  -667.735837465     A.U. after   12 cycles
 SCF Done:  E(RB3LYP) =  -667.735956748     A.U. after   11 cycles
 SCF Done:  E(RB3LYP) =  -667.735980749     A.U. after   10 cycles
 SCF Done:  E(RB3LYP) =  -667.735990020     A.U. after   10 cycles
 SCF Done:  E(RB3LYP) =  -667.735996967     A.U. after   10 cycles
 SCF Done:  E(RB3LYP) =  -667.736000630     A.U. after   10 cycles
 SCF Done:  E(RB3LYP) =  -667.736004293     A.U. after   10 cycles
 SCF Done:  E(RB3LYP) =  -667.736004952     A.U. after   10 cycles
 SCF Done:  E(RB3LYP) =  -667.736005016     A.U. after    7 cycles
 SCF Done:  E(RB3LYP) =  -667.736005052     A.U. after    7 cycles
 Optimization completed.
    -- Stationary point found.
 Normal termination of Gaussian 16 at Sun Dec 13 12:23:52 2020.

 --------------------------------------------------------------------
 #N Geom=AllCheck Guess=TCheck SCRF=Check GenChk RB3LYP/6-31G(d) Freq
 --------------------------------------------------------------------

 Structure from the checkpoint file:  "JID_5115.chk"
 -------------------------------
 CID_104257949_JID_5115_neutraal
 -------------------------------
 Charge =  0 Multiplicity = 1

 SCF Done:  E(RB3LYP) =  -667.736005052     A.U. after    1 cycles

  Exact polarizability: 194.705   0.948  96.006   2.314  -1.342 119.922
 Approx polarizability: 269.166   2.272 127.042   1.238  -4.141 216.758

 ******    1 imaginary frequencies (negative Signs) ******

                      1                      2                      3
                      A                      A                      A
 Frequencies --    -45.2434                18.5572                45.5750
 Red. masses --      1.0310                 4.2680                 3.5831
 Frc consts  --      0.0012                 0.0009                 0.0044
 IR Inten    --      0.1362                 0.7638                 0.3615

                      4                      5                      6
                      A                      A                      A
 Frequencies --     80.6383               114.2297               131.0979
 Red. masses --      2.2930                 2.1907                 2.8752
 Frc consts  --      0.0088                 0.0168                 0.0291
 IR Inten    --      0.5794                 3.2491                 0.1438

                      7                      8                      9
                      A                      A                      A
 Frequencies --    148.3396               167.4769               199.2456
 Red. masses --      2.6306                 2.6632                 3.2407
 Frc consts  --      0.0341                 0.0440                 0.0758
 IR Inten    --      1.3579                 1.3539                 0.3827

                     10                     11                     12
                      A                      A                      A
 Frequencies --    224.4606               258.8010               295.2591
 Red. masses --      1.2863                 1.4798                 2.7425
 Frc consts  --      0.0382                 0.0584                 0.1409
 IR Inten    --      0.1710                 1.5810                 3.1235

                     13                     14                     15
                      A                      A                      A
 Frequencies --    317.0719               371.9288               373.9331
 Red. masses --      4.8350                 3.7299                 4.0729
 Frc consts  --      0.2864                 0.3040                 0.3355
 IR Inten    --      0.8678                 1.2327                 1.8179

                     16                     17                     18
                      A                      A                      A
 Frequencies --    433.3484               442.3961               474.4860
 Red. masses --      4.1286                 4.0969                 4.4582
 Frc consts  --      0.4568                 0.4724                 0.5914
 IR Inten    --      0.9631                 1.5793                12.4797

                     19                     20                     21
                      A                      A                      A
 Frequencies --    498.9268               575.4791               609.8191
 Red. masses --      3.9129                 5.0226                 5.1619
 Frc consts  --      0.5739                 0.9800                 1.1310
 IR Inten    --      5.1348                 0.4025                 1.6340

                     22                     23                     24
                      A                      A                      A
 Frequencies --    641.6477               679.6405               751.6160
 Red. masses --      3.6091                 2.9322                 3.5539
 Frc consts  --      0.8755                 0.7980                 1.1829
 IR Inten    --      1.5476                 5.0799                19.4412

                     25                     26                     27
                      A                      A                      A
 Frequencies --    778.4553               789.8832               794.2754
 Red. masses --      5.9480                 3.1440                 2.4726
 Frc consts  --      2.1237                 1.1557                 0.9191
 IR Inten    --      9.7791                34.4632                50.9010

                     28                     29                     30
                      A                      A                      A
 Frequencies --    828.6952               829.6364               871.2318
 Red. masses --      1.3906                 2.0502                 2.9959
 Frc consts  --      0.5626                 0.8314                 1.3398
 IR Inten    --     24.4418                27.0790                72.2862

                     31                     32                     33
                      A                      A                      A
 Frequencies --    921.9198               929.2877               958.3778
 Red. masses --      2.6850                 3.3652                 1.2906
 Frc consts  --      1.3446                 1.7122                 0.6984
 IR Inten    --      3.5154                17.2820                 0.9974

                     34                     35                     36
                      A                      A                      A
 Frequencies --    966.9277               994.3983              1039.4047
 Red. masses --      2.5108                 2.2134                 1.9374
 Frc consts  --      1.3831                 1.2895                 1.2332
 IR Inten    --      5.3452                 2.4124                28.9926

                     37                     38                     39
                      A                      A                      A
 Frequencies --   1048.0721              1072.2111              1096.2651
 Red. masses --      1.8432                 1.5352                 1.7225
 Frc consts  --      1.1929                 1.0399                 1.2197
 IR Inten    --      6.9943                 3.0903                16.1703

                     40                     41                     42
                      A                      A                      A
 Frequencies --   1113.6007              1142.6655              1156.4389
 Red. masses --      2.2791                 1.5598                 3.3438
 Frc consts  --      1.6653                 1.1999                 2.6347
 IR Inten    --      5.2918                 2.9279                28.6922

                     43                     44                     45
                      A                      A                      A
 Frequencies --   1172.4836              1182.6832              1231.8103
 Red. masses --      1.4653                 2.8560                 2.2347
 Frc consts  --      1.1868                 2.3537                 1.9978
 IR Inten    --     14.1935                 3.7586                 5.5000

                     46                     47                     48
                      A                      A                      A
 Frequencies --   1244.6886              1278.4398              1300.9278
 Red. masses --      2.6371                 2.1519                 1.8328
 Frc consts  --      2.4071                 2.0722                 1.8276
 IR Inten    --     21.1876                48.7991                17.9499

                     49                     50                     51
                      A                      A                      A
 Frequencies --   1317.5234              1339.1373              1356.4233
 Red. masses --      5.1981                 1.3765                 1.7586
 Frc consts  --      5.3163                 1.4544                 1.9064
 IR Inten    --     39.4058                 2.7840                42.3679

                     52                     53                     54
                      A                      A                      A
 Frequencies --   1372.0007              1396.3550              1432.6557
 Red. masses --      2.4219                 1.4463                 1.3226
 Frc consts  --      2.6860                 1.6615                 1.5994
 IR Inten    --      2.1253                 4.6461                 3.9209

                     55                     56                     57
                      A                      A                      A
 Frequencies --   1439.6153              1447.1186              1484.4447
 Red. masses --      3.1085                 1.2454                 1.1608
 Frc consts  --      3.7957                 1.5366                 1.5070
 IR Inten    --    106.3062                 1.6359                 1.2991

                     58                     59                     60
                      A                      A                      A
 Frequencies --   1493.1022              1511.6222              1516.4089
 Red. masses --      1.8337                 1.1985                 1.0451
 Frc consts  --      2.4086                 1.6135                 1.4160
 IR Inten    --     27.6734                14.4580                 6.6078

                     61                     62                     63
                      A                      A                      A
 Frequencies --   1518.5722              1523.0139              1529.2882
 Red. masses --      1.0669                 1.0588                 1.6075
 Frc consts  --      1.4496                 1.4470                 2.2150
 IR Inten    --      1.0067                 5.5405                 4.2494

                     64                     65                     66
                      A                      A                      A
 Frequencies --   1530.8144              1533.6122              1545.6346
 Red. masses --      1.0431                 1.0696                 1.0545
 Frc consts  --      1.4402                 1.4822                 1.4842
 IR Inten    --      4.0402                 3.1331                13.0212

                     67                     68                     69
                      A                      A                      A
 Frequencies --   1613.4826              1655.3268              1667.1241
 Red. masses --      8.2494                 8.0012                 8.2245
 Frc consts  --     12.6532                12.9173                13.4678
 IR Inten    --    104.1563                 1.9099                 9.4683

                     70                     71                     72
                      A                      A                      A
 Frequencies --   2985.4946              3046.7588              3049.5250
 Red. masses --      1.0565                 1.0660                 1.0393
 Frc consts  --      5.5483                 5.8302                 5.6947
 IR Inten    --     60.6349                15.4694                23.1623

                     73                     74                     75
                      A                      A                      A
 Frequencies --   3053.6126              3079.4562              3086.3974
 Red. masses --      1.0359                 1.0836                 1.0772
 Frc consts  --      5.6911                 6.0542                 6.0460
 IR Inten    --     21.6759                10.5354                45.6789

                     76                     77                     78
                      A                      A                      A
 Frequencies --   3098.7354              3100.6486              3122.6634
 Red. masses --      1.0988                 1.1008                 1.1029
 Frc consts  --      6.2162                 6.2352                 6.3363
 IR Inten    --      5.3635                18.2841                40.1464

                     79                     80                     81
                      A                      A                      A
 Frequencies --   3125.6963              3130.0983              3161.8529
 Red. masses --      1.1019                 1.1037                 1.0995
 Frc consts  --      6.3428                 6.3711                 6.4762
 IR Inten    --     51.4246                27.2173                 6.5109

                     82                     83                     84
                      A                      A                      A
 Frequencies --   3201.7486              3225.4109              3492.4250
 Red. masses --      1.0892                 1.0953                 1.0737
 Frc consts  --      6.5786                 6.7138                 7.7158
 IR Inten    --      7.1869                 7.1902                 0.1538

 - Thermochemistry -
 -------------------
 Temperature   298.150 Kelvin.  Pressure   1.00000 Atm.
 Atom     1 has atomic number  6 and mass  12.00000

 Molecular mass:   205.12151 amu.
 Principal axes and moments of inertia in atomic units:
                           1         2         3
     Eigenvalues --  1450.896255429.294375734.60260
           X            0.99999  -0.00427   0.00065
           Y            0.00426   0.99996   0.00844
           Z           -0.00068  -0.00843   0.99996
 This molecule is an asymmetric top.
 Rotational symmetry number  1.
 Warning -- assumption of classical behavior for rotation
           may cause significant error
 Rotational temperatures (Kelvin)      0.05970     0.01595     0.01510
 Rotational constants (GHZ):           1.24388     0.33241     0.31471
    1 imaginary frequencies ignored.
 Zero-point vibrational energy     662614.9 (Joules/Mol)
                                  158.36875 (Kcal/Mol)
 Warning -- explicit consideration of  20 degrees of freedom as
           vibrations may cause significant error
 Vibrational temperatures:     26.70    65.57   116.02   164.35   188.62
          (Kelvin)            213.43   240.96   286.67   322.95   372.36
                              424.81   456.20   535.12   538.01   623.49
                              636.51   682.68   717.84   827.99   877.39
                              923.19   977.85  1081.41  1120.02  1136.47
                             1142.79  1192.31  1193.66  1253.51  1326.44
                             1337.04  1378.89  1391.19  1430.72  1495.47
                             1507.94  1542.67  1577.28  1602.22  1644.04
                             1663.86  1686.94  1701.62  1772.30  1790.83
                             1839.39  1871.74  1895.62  1926.72  1951.59
                             1974.00  2009.04  2061.27  2071.29  2082.08
                             2135.78  2148.24  2174.89  2181.77  2184.89
                             2191.28  2200.30  2202.50  2206.53  2223.82
                             2321.44  2381.65  2398.62  4295.46  4383.61
                             4387.59  4393.47  4430.65  4440.64  4458.39
                             4461.14  4492.82  4497.18  4503.51  4549.20
                             4606.60  4640.65  5024.82

 Zero-point correction=                           0.252377 (Hartree/Particle)
 Thermal correction to Energy=                    0.266184
 Thermal correction to Enthalpy=                  0.267128
 Thermal correction to Gibbs Free Energy=         0.210464
 Sum of electronic and zero-point Energies=           -667.483628
 Sum of electronic and thermal Energies=              -667.469821
 Sum of electronic and thermal Enthalpies=            -667.468877
 Sum of electronic and thermal Free Energies=         -667.525541

                     E (Thermal)             CV                S
                      KCal/Mol        Cal/Mol-Kelvin    Cal/Mol-Kelvin
 Total                  167.033             52.044            119.259
 Electronic               0.000              0.000              0.000
 Translational            0.889              2.981             41.860
 Rotational               0.889              2.981             32.180
 Vibrational            165.255             46.083             45.219
 Vibration     1          0.593              1.986              6.783
 Vibration     2          0.595              1.979              5.001
 Vibration     3          0.600              1.962              3.875
 Vibration     4          0.607              1.938              3.196
 Vibration     5          0.612              1.922              2.930
 Vibration     6          0.618              1.904              2.693
 Vibration     7          0.624              1.882              2.464
 Vibration     8          0.637              1.841              2.140
 Vibration     9          0.649              1.804              1.923
 Vibration    10          0.668              1.748              1.670
 Vibration    11          0.689              1.683              1.444
 Vibration    12          0.704              1.641              1.325
 Vibration    13          0.744              1.530              1.072
 Vibration    14          0.745              1.526              1.064
 Vibration    15          0.794              1.398              0.848
 Vibration    16          0.802              1.378              0.819
 Vibration    17          0.831              1.307              0.725
 Vibration    18          0.854              1.252              0.661
 Vibration    19          0.932              1.084              0.494
 Vibration    20          0.969              1.011              0.433

                           ! Non-Optimized Parameters !
 Normal termination of Gaussian 16 at Sun Dec 13 12:32:21 2020.

 ----------------------------------------------------------------------
 # B3LYP/6-311++G(d,p) empiricaldispersion=gd3bj scf=xqc pop=npa geom=c
 heck
 ----------------------------------------------------------------------

 ---------------------------------------
 CID_104257949_JID_5115_Energie_neutraal
 ---------------------------------------
 Structure from the checkpoint file:  "JID_5115.chk"
 Charge =  0 Multiplicity = 1

 SCF Done:  E(RB3LYP) =  -667.915866656     A.U. after   16 cycles
 Normal termination of Gaussian 16 at Sun Dec 13 12:36:40 2020.

 ----------------------------------------------------------------------
 # B3LYP/6-311++G(d,p) empiricaldispersion=gd3bj scf=xqc pop=npa geom=c
 heck
 ----------------------------------------------------------------------

 -------------------------------------
 CID_104257949_JID_5115_Energie_kation
 -------------------------------------
 Structure from the checkpoint file:  "JID_5115.chk"
 Charge =  1 Multiplicity = 2

 SCF Done:  E(UB3LYP) =  -667.613067905     A.U. after   24 cycles
 Normal termination of Gaussian 16 at Sun Dec 13 12:45:49 2020.
 Gaussian 16:  ES64L-G16RevA.03 25-Dec-2016

 ----------------------------------------------------------------------
 # B3LYP/6-311++G(d,p) empiricaldispersion=gd3bj scf=xqc pop=npa geom=c
 heck
 ----------------------------------------------------------------------

 ------------------------------------
 CID_104257949_JID_5115_Energie_anion
 ------------------------------------
 Structure from the checkpoint file:  "JID_5115.chk"
 Charge = -1 Multiplicity = 2

                         Standard orientation:
 ---------------------------------------------------------------------
 Center     Atomic      Atomic             Coordinates (Angstroms)
 Number     Number       Type             X           Y           Z
 ---------------------------------------------------------------------
      1          6           0       -2.692287    2.529692   -0.287636
      2          6           0       -3.160664    1.205030    0.317576
      3          6           0       -2.530048   -0.029817   -0.347411
      4          6           0       -1.029331    0.007005   -0.257323
      5          7           0       -0.153254    0.044909   -1.208316
      6          6           0        1.082917    0.025892   -0.551546
      7          6           0        0.852454   -0.032033    0.830488
      8          8           0       -0.503142   -0.045095    1.030190
      9          6           0        1.899195   -0.064171    1.733343
     10          6           0        3.166660   -0.033800    1.149704
     11          6           0        3.325645    0.024616   -0.253304
     12          7           0        2.291482    0.054692   -1.110050
     13          6           0        4.707848    0.055110   -0.857141
     14          7           0       -3.105443   -1.247927    0.224515
     15          6           0       -2.631803   -2.483868   -0.395423
     16          1           0       -1.612900    2.670705   -0.164215
     17          1           0       -3.196806    3.374580    0.192246
     18          1           0       -2.909153    2.572728   -1.361073
     19          1           0       -2.928849    1.182695    1.390745
     20          1           0       -4.246327    1.096590    0.224223
     21          1           0       -2.760037   -0.020454   -1.418883
     22          1           0        1.752225   -0.108232    2.807262
     23          1           0        4.050405   -0.054699    1.780092
     24          1           0        4.629773    0.117288   -1.944131
     25          1           0        5.282004    0.916487   -0.495021
     26          1           0        5.275649   -0.846498   -0.596776
     27          1           0       -2.902334   -1.266522    1.222704
     28          1           0       -1.539884   -2.635366   -0.350680
     29          1           0       -3.118464   -3.333900    0.092310
     30          1           0       -2.923174   -2.488306   -1.451322
 ---------------------------------------------------------------------

 SCF Done:  E(UB3LYP) =  -667.911714299     A.U. after   33 cycles
 SCF Done:  E(UB3LYP) =  -667.911714299     a.u. after    1 cycles

 The electronic state is 2-A.
 Alpha  occ. eigenvalues --  -19.05392 -14.19300 -14.16564 -14.14918 -10.10716
 Alpha  occ. eigenvalues --  -10.09270 -10.09113 -10.08567 -10.07462 -10.07183
 Alpha  occ. eigenvalues --  -10.05643 -10.04810 -10.04754 -10.03840 -10.03077
 Alpha  occ. eigenvalues --   -0.98595  -0.81069  -0.80429  -0.76664  -0.67708
 Alpha  occ. eigenvalues --   -0.66265  -0.63979  -0.59966  -0.57064  -0.53444
 Alpha  occ. eigenvalues --   -0.50433  -0.48329  -0.47682  -0.45582  -0.39565
 Alpha  occ. eigenvalues --   -0.37618  -0.36966  -0.35724  -0.34683  -0.33767
 Alpha  occ. eigenvalues --   -0.32606  -0.31554  -0.30444  -0.30076  -0.29128
 Alpha  occ. eigenvalues --   -0.27559  -0.27071  -0.26756  -0.25963  -0.24707
 Alpha  occ. eigenvalues --   -0.24310  -0.23681  -0.22734  -0.22606  -0.19399
 Alpha  occ. eigenvalues --   -0.16193  -0.13592  -0.12922  -0.11659  -0.10170
 Alpha  occ. eigenvalues --    0.05293
 Alpha virt. eigenvalues --    0.07374   0.08179   0.08396   0.09405   0.10057
 Alpha virt. eigenvalues --    0.10307   0.11000   0.11225   0.11729   0.12598
 Alpha virt. eigenvalues --    0.13075   0.13349   0.13750   0.13833   0.14121

  Beta  occ. eigenvalues --  -19.05346 -14.19243 -14.16585 -14.14525 -10.10318
  Beta  occ. eigenvalues --  -10.09301 -10.09199 -10.08568 -10.07337 -10.07225
  Beta  occ. eigenvalues --  -10.05608 -10.04808 -10.04723 -10.03531 -10.02912
  Beta  occ. eigenvalues --   -0.98426  -0.80650  -0.80299  -0.76384  -0.67550
  Beta  occ. eigenvalues --   -0.65793  -0.63778  -0.59827  -0.56900  -0.53314
  Beta  occ. eigenvalues --   -0.50120  -0.48205  -0.47339  -0.45404  -0.39382
  Beta  occ. eigenvalues --   -0.37437  -0.36794  -0.35433  -0.34532  -0.33577
  Beta  occ. eigenvalues --   -0.32420  -0.31370  -0.30340  -0.30006  -0.29062
  Beta  occ. eigenvalues --   -0.27460  -0.26989  -0.26690  -0.25820  -0.24610
  Beta  occ. eigenvalues --   -0.24184  -0.23017  -0.22619  -0.22251  -0.18481
  Beta  occ. eigenvalues --   -0.16126  -0.12726  -0.11960  -0.11273  -0.09134
  Beta virt. eigenvalues --    0.07766   0.08237   0.08474   0.09338   0.10028
  Beta virt. eigenvalues --    0.10587   0.10854   0.11112   0.11267   0.11844
  Beta virt. eigenvalues --    0.12653   0.13114   0.13725   0.13816   0.13946

 Mulliken charges and spin densities:
               1          2
     1  C    0.274679  -0.853309
     2  C   -0.214099   0.193166
     3  C   -1.585036   0.436388
     4  C    0.325409  -0.412533
     5  N    0.094245  -0.000319
     6  C   -0.227742  -0.072713
     7  C    0.952295  -0.154914
     8  O   -0.011563   0.013275
     9  C   -0.860434   0.361770
    10  C    0.070827   0.112506
    11  C    0.045460  -0.020698
    12  N   -0.116656   0.197420
    13  C   -0.536122  -0.004788
    14  N    0.048743   0.015514
    15  C   -0.272907   0.002196
    16  H    0.131919   0.040425
    17  H   -0.487345   0.634288
    18  H    0.094495   0.016005
    19  H    0.107831   0.014256
    20  H   -0.261926   0.430526
    21  H    0.162393   0.051949
    22  H    0.102163   0.002886
    23  H    0.128082  -0.007579
    24  H    0.139644   0.000045
    25  H    0.126352  -0.001549
    26  H    0.123035   0.002799
    27  H    0.253675  -0.002341
    28  H    0.168562   0.001120
    29  H    0.120261  -0.000142
    30  H    0.103760   0.004350
 Sum of Mulliken charges =  -1.00000   1.00000

 Dipole moment (field-independent basis, Debye):
    X=              1.3014    Y=             -3.5667    Z=              1.9825  Tot=              4.2832
 Quadrupole moment (field-independent basis, Debye-Ang):
   XX=           -144.8156   YY=           -113.4150   ZZ=           -108.6175
   XY=             13.6604   XZ=              4.9803   YZ=             -2.3127

 Summary of Natural Population Analysis:

                                       Natural Population
                Natural  -----------------------------------------------
    Atom  No    Charge         Core      Valence    Rydberg      Total
 -----------------------------------------------------------------------
      C    1   -0.28667      0.99966     2.28157    0.00543     3.28667
      C    2   -0.18609      0.99962     2.17597    0.01050     3.18609
      C    3   -0.04094      0.99953     2.02774    0.01367     3.04094
      C    4    0.33405      0.99956     1.64229    0.02410     2.66595
      N    5   -0.26425      0.99966     2.75620    0.00839     3.76425
      C    6    0.16913      0.99945     1.81427    0.01715     2.83087
      C    7    0.10053      0.99932     1.88650    0.01365     2.89947
      O    8   -0.25780      0.99986     3.25015    0.00780     4.25780
      C    9   -0.05729      0.99953     2.04921    0.00855     3.05729
      C   10   -0.10366      0.99953     2.09535    0.00878     3.10366
      C   11    0.08326      0.99957     1.90337    0.01379     2.91674
      N   12   -0.19274      0.99964     2.67965    0.01344     3.69274
      C   13   -0.29453      0.99964     2.29049    0.00440     3.29453
      N   14   -0.32879      0.99975     2.81840    0.01064     3.82879
      C   15   -0.17895      0.99967     2.17265    0.00663     3.17895
      H   16    0.10227      0.00000     0.39657    0.00117     0.39773
      H   17    0.09824      0.00000     0.40041    0.00136     0.40176
      H   18    0.09539      0.00000     0.40363    0.00098     0.40461
      H   19    0.09518      0.00000     0.40332    0.00151     0.40482
      H   20    0.09905      0.00000     0.39890    0.00206     0.40095
      H   21    0.10073      0.00000     0.39725    0.00202     0.39927
      H   22    0.09379      0.00000     0.40467    0.00154     0.40621
      H   23    0.08992      0.00000     0.40917    0.00090     0.41008
      H   24    0.10579      0.00000     0.39307    0.00114     0.39421
      H   25    0.09456      0.00000     0.40447    0.00097     0.40544
      H   26    0.09450      0.00000     0.40452    0.00098     0.40550
      H   27    0.17131      0.00000     0.32656    0.00213     0.32869
      H   28    0.08593      0.00000     0.41260    0.00147     0.41407
      H   29    0.08797      0.00000     0.41125    0.00078     0.41203
      H   30    0.09012      0.00000     0.40902    0.00087     0.40988
 =======================================================================
   * Total *    0.00000     14.99399    39.81923    0.18678    55.00000

 Normal termination of Gaussian 16 at Sun Dec 13 12:58:21 2020.
