 Gaussian 16, Revision A.03,

 -----------------------------------------------------------
 # opt freq B3LYP/6-31G(d) empiricaldispersion=gd3bj scf=xqc
 -----------------------------------------------------------

 -------------------------------
 CID_112385226_JID_9964_neutraal
 -------------------------------
 Symbolic Z-matrix:
 Charge =  0 Multiplicity = 1

 SCF Done:  E(RB3LYP) =  -865.895203649     A.U. after   13 cycles
 SCF Done:  E(RB3LYP) =  -865.896802162     A.U. after   12 cycles
 SCF Done:  E(RB3LYP) =  -865.895537705     A.U. after   13 cycles
 SCF Done:  E(RB3LYP) =  -865.900657221     A.U. after   11 cycles
 SCF Done:  E(RB3LYP) =  -865.900603822     A.U. after   14 cycles
 SCF Done:  E(RB3LYP) =  -865.902407294     A.U. after   11 cycles
 SCF Done:  E(RB3LYP) =  -865.902970711     A.U. after   11 cycles
 SCF Done:  E(RB3LYP) =  -865.903177470     A.U. after   11 cycles
 SCF Done:  E(RB3LYP) =  -865.903292356     A.U. after   10 cycles
 SCF Done:  E(RB3LYP) =  -865.903363312     A.U. after   10 cycles
 SCF Done:  E(RB3LYP) =  -865.903417805     A.U. after    9 cycles
 SCF Done:  E(RB3LYP) =  -865.903423316     A.U. after    8 cycles
 SCF Done:  E(RB3LYP) =  -865.903425967     A.U. after    9 cycles
 SCF Done:  E(RB3LYP) =  -865.903426343     A.U. after    7 cycles
 SCF Done:  E(RB3LYP) =  -865.903426468     A.U. after    7 cycles
 Optimization completed.
    -- Stationary point found.
 Normal termination of Gaussian 16 at Mon Dec 14 13:37:53 2020.

 --------------------------------------------------------------------
 #N Geom=AllCheck Guess=TCheck SCRF=Check GenChk RB3LYP/6-31G(d) Freq
 --------------------------------------------------------------------

 Structure from the checkpoint file:  "JID_9964.chk"
 -------------------------------
 CID_112385226_JID_9964_neutraal
 -------------------------------
 Charge =  0 Multiplicity = 1

 SCF Done:  E(RB3LYP) =  -865.903426468     A.U. after    1 cycles

  Exact polarizability: 196.364  23.305 141.850   6.510  -4.570 162.713
 Approx polarizability: 266.337  35.747 201.737  11.190 -14.126 271.834

                      1                      2                      3
                      A                      A                      A
 Frequencies --     27.0106                35.6583                63.9233
 Red. masses --      4.8405                 3.9207                 3.6027
 Frc consts  --      0.0021                 0.0029                 0.0087
 IR Inten    --      0.2089                 0.0333                 0.8400

                      4                      5                      6
                      A                      A                      A
 Frequencies --     64.8641                77.1304               108.1627
 Red. masses --      4.6284                 3.2795                 3.2275
 Frc consts  --      0.0115                 0.0115                 0.0222
 IR Inten    --      2.1636                 0.8319                 0.2782

                      7                      8                      9
                      A                      A                      A
 Frequencies --    117.9351               137.0497               164.4898
 Red. masses --      3.0928                 4.4166                 2.5839
 Frc consts  --      0.0253                 0.0489                 0.0412
 IR Inten    --      0.2332                 6.5039                 3.2403

                     10                     11                     12
                      A                      A                      A
 Frequencies --    176.3705               208.1835               225.0496
 Red. masses --      2.3958                 2.8703                 3.9957
 Frc consts  --      0.0439                 0.0733                 0.1192
 IR Inten    --      1.5886                 0.4641                 2.1838

                     13                     14                     15
                      A                      A                      A
 Frequencies --    263.3375               274.4859               290.0497
 Red. masses --      2.3485                 2.2793                 1.3864
 Frc consts  --      0.0960                 0.1012                 0.0687
 IR Inten    --      6.5476                17.4054                46.6884

                     16                     17                     18
                      A                      A                      A
 Frequencies --    303.9890               311.5395               322.4493
 Red. masses --      1.4066                 2.6314                 2.3668
 Frc consts  --      0.0766                 0.1505                 0.1450
 IR Inten    --    119.3987                10.3592                21.6370

                     19                     20                     21
                      A                      A                      A
 Frequencies --    330.1017               349.1827               374.9345
 Red. masses --      1.3061                 2.8803                 4.1277
 Frc consts  --      0.0839                 0.2069                 0.3419
 IR Inten    --    136.9825                 1.6007                 0.8528

                     22                     23                     24
                      A                      A                      A
 Frequencies --    385.2459               435.2800               455.3740
 Red. masses --      4.4268                 2.8793                 2.6780
 Frc consts  --      0.3871                 0.3214                 0.3272
 IR Inten    --      5.7129                 4.6920                 4.1040

                     25                     26                     27
                      A                      A                      A
 Frequencies --    472.9945               496.8800               506.2959
 Red. masses --      2.6435                 2.7146                 4.1482
 Frc consts  --      0.3485                 0.3949                 0.6265
 IR Inten    --      5.0711                 7.6305                 2.0878

                     28                     29                     30
                      A                      A                      A
 Frequencies --    525.2575               553.7673               596.5063
 Red. masses --      3.3483                 3.2024                 3.6055
 Frc consts  --      0.5443                 0.5786                 0.7559
 IR Inten    --      3.5283                11.2192                 0.7729

                     31                     32                     33
                      A                      A                      A
 Frequencies --    650.4179               680.3749               737.2145
 Red. masses --      4.1137                 2.7423                 3.5809
 Frc consts  --      1.0253                 0.7479                 1.1466
 IR Inten    --      0.8641                 6.0819                 7.3006

                     34                     35                     36
                      A                      A                      A
 Frequencies --    762.1654               784.3753               793.7973
 Red. masses --      1.5429                 2.9697                 2.6737
 Frc consts  --      0.5281                 1.0765                 0.9926
 IR Inten    --     20.5583                18.8838                 2.5143

                     37                     38                     39
                      A                      A                      A
 Frequencies --    808.5779               837.3442               862.5187
 Red. masses --      1.1497                 2.6441                 2.5826
 Frc consts  --      0.4429                 1.0923                 1.1320
 IR Inten    --      4.4579                 1.2079                 7.1965

                     40                     41                     42
                      A                      A                      A
 Frequencies --    868.3256               886.4734               921.6492
 Red. masses --      1.8950                 1.4557                 3.0575
 Frc consts  --      0.8418                 0.6740                 1.5302
 IR Inten    --     11.5820                 1.3429                 2.6846

                     43                     44                     45
                      A                      A                      A
 Frequencies --    946.4883               951.7368               983.0281
 Red. masses --      1.4783                 2.2586                 1.2552
 Frc consts  --      0.7803                 1.2054                 0.7146
 IR Inten    --      3.7356                19.9621                 0.0686

                     46                     47                     48
                      A                      A                      A
 Frequencies --    990.8527              1006.4204              1015.8877
 Red. masses --      2.4095                 2.4275                 2.3493
 Frc consts  --      1.3938                 1.4487                 1.4285
 IR Inten    --     14.8468                22.6175                 8.6761

                     49                     50                     51
                      A                      A                      A
 Frequencies --   1043.9448              1055.1550              1066.3390
 Red. masses --      2.6741                 2.0988                 2.4775
 Frc consts  --      1.7170                 1.3768                 1.6598
 IR Inten    --      3.0356                12.3904                70.6692

                     52                     53                     54
                      A                      A                      A
 Frequencies --   1075.5224              1078.7574              1084.8365
 Red. masses --      2.4475                 2.5379                 2.8485
 Frc consts  --      1.6681                 1.7401                 1.9751
 IR Inten    --     39.2822                51.6451                42.7275

                     55                     56                     57
                      A                      A                      A
 Frequencies --   1100.9233              1114.3962              1140.2227
 Red. masses --      2.7083                 2.0232                 2.0922
 Frc consts  --      1.9340                 1.4804                 1.6027
 IR Inten    --     31.3523                14.2450                17.5826

                     58                     59                     60
                      A                      A                      A
 Frequencies --   1160.9874              1181.6598              1190.5670
 Red. masses --      2.4851                 2.0973                 1.8709
 Frc consts  --      1.9735                 1.7254                 1.5625
 IR Inten    --     34.3514                17.2330                65.5646

                     61                     62                     63
                      A                      A                      A
 Frequencies --   1196.2956              1207.1213              1211.4727
 Red. masses --      1.0953                 1.6289                 1.8913
 Frc consts  --      0.9236                 1.3984                 1.6354
 IR Inten    --      0.0463                13.2106                59.3593

                     64                     65                     66
                      A                      A                      A
 Frequencies --   1225.0767              1239.7938              1248.5181
 Red. masses --      2.0279                 1.4822                 1.3213
 Frc consts  --      1.7931                 1.3423                 1.2135
 IR Inten    --     16.7011                13.0746                 6.3816

                     67                     68                     69
                      A                      A                      A
 Frequencies --   1252.5435              1288.5622              1308.0001
 Red. masses --      1.2846                 1.5840                 1.3564
 Frc consts  --      1.1874                 1.5495                 1.3673
 IR Inten    --     23.5897                 2.3668                13.7042

                     70                     71                     72
                      A                      A                      A
 Frequencies --   1308.2815              1324.4395              1342.4366
 Red. masses --      1.7631                 1.2468                 1.2486
 Frc consts  --      1.7780                 1.2886                 1.3258
 IR Inten    --      3.1842                 8.1259                27.1779

                     73                     74                     75
                      A                      A                      A
 Frequencies --   1350.1427              1361.8764              1386.4078
 Red. masses --      1.1440                 4.0329                 1.2956
 Frc consts  --      1.2287                 4.4070                 1.4673
 IR Inten    --      2.5367                 2.2804                 2.3619

                     76                     77                     78
                      A                      A                      A
 Frequencies --   1394.3841              1395.1858              1408.4980
 Red. masses --      1.5634                 1.3150                 1.2750
 Frc consts  --      1.7909                 1.5081                 1.4902
 IR Inten    --      1.2128                 7.9964                 1.4230

                     79                     80                     81
                      A                      A                      A
 Frequencies --   1414.8935              1420.1148              1425.2207
 Red. masses --      1.2497                 1.4456                 1.2989
 Frc consts  --      1.4740                 1.7176                 1.5545
 IR Inten    --      3.3501                 3.0028                38.6300

                     82                     83                     84
                      A                      A                      A
 Frequencies --   1425.9084              1442.9672              1450.4859
 Red. masses --      1.2345                 1.3087                 1.4507
 Frc consts  --      1.4788                 1.6055                 1.7983
 IR Inten    --     21.4522                37.0982                11.6366

                     85                     86                     87
                      A                      A                      A
 Frequencies --   1468.2647              1500.3490              1501.7202
 Red. masses --      1.4982                 1.2307                 1.9332
 Frc consts  --      1.9030                 1.6323                 2.5686
 IR Inten    --     16.8369                 0.6107                 7.1113

                     88                     89                     90
                      A                      A                      A
 Frequencies --   1508.6371              1515.0621              1519.9707
 Red. masses --      1.0649                 1.1038                 1.0894
 Frc consts  --      1.4279                 1.4928                 1.4828
 IR Inten    --      3.1132                 3.7140                 5.4485

                     91                     92                     93
                      A                      A                      A
 Frequencies --   1524.6447              1532.1615              1545.2045
 Red. masses --      1.0578                 1.0737                 2.0033
 Frc consts  --      1.4487                 1.4851                 2.8182
 IR Inten    --      3.4929                 5.5060                10.9564

                     94                     95                     96
                      A                      A                      A
 Frequencies --   1548.1216              1550.3913              1642.2804
 Red. masses --      1.1365                 1.1329                 6.3778
 Frc consts  --      1.6048                 1.6044                10.1349
 IR Inten    --      3.1540                 2.8806                 1.5869

                     97                     98                     99
                      A                      A                      A
 Frequencies --   1668.5734              2845.4485              2938.3663
 Red. masses --      5.8146                 1.0739                 1.0732
 Frc consts  --      9.5381                 5.1227                 5.4596
 IR Inten    --      0.4324               158.4073                82.0379

                    100                    101                    102
                      A                      A                      A
 Frequencies --   3006.7172              3026.3419              3031.5780
 Red. masses --      1.0847                 1.0691                 1.0634
 Frc consts  --      5.7774                 5.7689                 5.7581
 IR Inten    --     59.0889                29.4131                23.3845

                    103                    104                    105
                      A                      A                      A
 Frequencies --   3046.9748              3055.5920              3057.9084
 Red. masses --      1.0658                 1.0787                 1.0381
 Frc consts  --      5.8298                 5.9341                 5.7193
 IR Inten    --     49.7737                39.4372                11.2001

                    106                    107                    108
                      A                      A                      A
 Frequencies --   3071.8283              3079.2363              3093.5653
 Red. masses --      1.0991                 1.0582                 1.0988
 Frc consts  --      6.1107                 5.9116                 6.1958
 IR Inten    --     38.8238                25.0505                45.6380

                    109                    110                    111
                      A                      A                      A
 Frequencies --   3112.1956              3115.6601              3122.7516
 Red. masses --      1.0963                 1.0856                 1.1014
 Frc consts  --      6.2561                 6.2092                 6.3281
 IR Inten    --     25.1624                13.3475                38.8454

                    112                    113                    114
                      A                      A                      A
 Frequencies --   3126.7248              3151.7697              3152.9608
 Red. masses --      1.1070                 1.1008                 1.0888
 Frc consts  --      6.3767                 6.4428                 6.3774
 IR Inten    --     22.5671                38.2033                 2.7534

                    115                    116                    117
                      A                      A                      A
 Frequencies --   3171.2187              3174.8257              3193.1475
 Red. masses --      1.0866                 1.0886                 1.0911
 Frc consts  --      6.4383                 6.4651                 6.5549
 IR Inten    --     15.3458                 1.7964                24.0190

                    118                    119                    120
                      A                      A                      A
 Frequencies --   3208.6870              3738.8686              3776.0621
 Red. masses --      1.0972                 1.0663                 1.0661
 Frc consts  --      6.6557                 8.7822                 8.9566
 IR Inten    --     30.8825                10.4512                13.5220

 - Thermochemistry -
 -------------------
 Temperature   298.150 Kelvin.  Pressure   1.00000 Atm.
 Atom     1 has atomic number  6 and mass  12.00000

 Molecular mass:   265.16779 amu.
 Principal axes and moments of inertia in atomic units:
                           1         2         3
     Eigenvalues --  3519.240446494.987817251.00853
           X            0.99996   0.00875   0.00083
           Y           -0.00877   0.99954   0.02895
           Z           -0.00057  -0.02895   0.99958
 This molecule is an asymmetric top.
 Rotational symmetry number  1.
 Warning -- assumption of classical behavior for rotation
           may cause significant error
 Rotational temperatures (Kelvin)      0.02461     0.01334     0.01195
 Rotational constants (GHZ):           0.51282     0.27787     0.24890
 Zero-point vibrational energy     967700.5 (Joules/Mol)
                                  231.28598 (Kcal/Mol)
 Warning -- explicit consideration of  30 degrees of freedom as
           vibrations may cause significant error
 Vibrational temperatures:     38.86    51.30    91.97    93.32   110.97
          (Kelvin)            155.62   169.68   197.18   236.66   253.76
                              299.53   323.80   378.88   394.92   417.32
                              437.37   448.24   463.93   474.94   502.40
                              539.45   554.28   626.27   655.18   680.53
                              714.90   728.45   755.73   796.75   858.24
                              935.81   978.91  1060.69  1096.59  1128.54
                             1142.10  1163.36  1204.75  1240.97  1249.33
                             1275.44  1326.05  1361.79  1369.34  1414.36
                             1425.62  1448.01  1461.64  1502.00  1518.13
                             1534.22  1547.44  1552.09  1560.84  1583.98
                             1603.37  1640.53  1670.40  1700.14  1712.96
                             1721.20  1736.78  1743.04  1762.61  1783.79
                             1796.34  1802.13  1853.95  1881.92  1882.33
                             1905.57  1931.47  1942.55  1959.44  1994.73
                             2006.21  2007.36  2026.51  2035.72  2043.23
                             2050.57  2051.56  2076.11  2086.93  2112.51
                             2158.67  2160.64  2170.59  2179.84  2186.90
                             2193.62  2204.44  2223.20  2227.40  2230.67
                             2362.88  2400.70  4093.97  4227.65  4326.00
                             4354.23  4361.76  4383.92  4396.32  4399.65
                             4419.68  4430.33  4450.95  4477.76  4482.74
                             4492.94  4498.66  4534.69  4536.41  4562.68
                             4567.87  4594.23  4616.58  5379.40  5432.91

 Zero-point correction=                           0.368578 (Hartree/Particle)
 Thermal correction to Energy=                    0.387492
 Thermal correction to Enthalpy=                  0.388436
 Thermal correction to Gibbs Free Energy=         0.321198
 Sum of electronic and zero-point Energies=           -865.534849
 Sum of electronic and thermal Energies=              -865.515934
 Sum of electronic and thermal Enthalpies=            -865.514990
 Sum of electronic and thermal Free Energies=         -865.582229

                     E (Thermal)             CV                S
                      KCal/Mol        Cal/Mol-Kelvin    Cal/Mol-Kelvin
 Total                  243.155             73.005            141.516
 Electronic               0.000              0.000              0.000
 Translational            0.889              2.981             42.625
 Rotational               0.889              2.981             33.471
 Vibrational            241.378             67.043             65.420
 Vibration     1          0.593              1.984              6.038
 Vibration     2          0.594              1.982              5.487
 Vibration     3          0.597              1.972              4.332
 Vibration     4          0.597              1.971              4.303
 Vibration     5          0.599              1.964              3.963
 Vibration     6          0.606              1.943              3.302
 Vibration     7          0.608              1.934              3.134
 Vibration     8          0.614              1.916              2.845
 Vibration     9          0.623              1.886              2.498
 Vibration    10          0.628              1.871              2.366
 Vibration    11          0.641              1.828              2.060
 Vibration    12          0.650              1.803              1.918
 Vibration    13          0.670              1.740              1.640
 Vibration    14          0.677              1.720              1.568
 Vibration    15          0.686              1.692              1.474
 Vibration    16          0.695              1.666              1.395
 Vibration    17          0.700              1.652              1.354
 Vibration    18          0.707              1.630              1.298
 Vibration    19          0.713              1.615              1.260
 Vibration    20          0.726              1.577              1.170
 Vibration    21          0.746              1.523              1.060
 Vibration    22          0.754              1.502              1.018
 Vibration    23          0.796              1.393              0.842
 Vibration    24          0.814              1.349              0.780
 Vibration    25          0.830              1.310              0.729
 Vibration    26          0.852              1.257              0.666
 Vibration    27          0.862              1.236              0.643
 Vibration    28          0.880              1.194              0.598
 Vibration    29          0.909              1.131              0.536
 Vibration    30          0.954              1.039              0.456

                           ! Non-Optimized Parameters !
 Normal termination of Gaussian 16 at Mon Dec 14 14:06:20 2020.

 ----------------------------------------------------------------------
 # B3LYP/6-311++G(d,p) empiricaldispersion=gd3bj scf=xqc pop=npa geom=c
 heck
 ----------------------------------------------------------------------

 ---------------------------------------
 CID_112385226_JID_9964_Energie_neutraal
 ---------------------------------------
 Structure from the checkpoint file:  "JID_9964.chk"
 Charge =  0 Multiplicity = 1

 SCF Done:  E(RB3LYP) =  -866.160290445     A.U. after   14 cycles
 Normal termination of Gaussian 16 at Mon Dec 14 14:18:19 2020.

 ----------------------------------------------------------------------
 # B3LYP/6-311++G(d,p) empiricaldispersion=gd3bj scf=xqc pop=npa geom=c
 heck
 ----------------------------------------------------------------------

 -------------------------------------
 CID_112385226_JID_9964_Energie_kation
 -------------------------------------
 Structure from the checkpoint file:  "JID_9964.chk"
 Charge =  1 Multiplicity = 2

 SCF Done:  E(UB3LYP) =  -865.877752707     A.U. after   25 cycles
 Normal termination of Gaussian 16 at Mon Dec 14 14:49:09 2020.
 Gaussian 16:  ES64L-G16RevA.03 25-Dec-2016

 ----------------------------------------------------------------------
 # B3LYP/6-311++G(d,p) empiricaldispersion=gd3bj scf=xqc pop=npa geom=c
 heck
 ----------------------------------------------------------------------

 ------------------------------------
 CID_112385226_JID_9964_Energie_anion
 ------------------------------------
 Structure from the checkpoint file:  "JID_9964.chk"
 Charge = -1 Multiplicity = 2

                         Standard orientation:
 ---------------------------------------------------------------------
 Center     Atomic      Atomic             Coordinates (Angstroms)
 Number     Number       Type             X           Y           Z
 ---------------------------------------------------------------------
      1          6           0        0.478082   -2.731823   -0.947361
      2          6           0        1.605758   -1.968542   -1.634646
      3          8           0        2.821365   -1.896757   -0.893908
      4          6           0        2.785296   -1.284825    0.382699
      5          6           0        3.065878    0.221077    0.343037
      6          6           0        1.926290    1.081425   -0.236716
      7          7           0        0.600718    0.697737    0.211292
      8          6           0        0.267238    1.024257    1.594612
      9          6           0       -0.786610    0.042073    2.102245
     10          6           0       -1.904800   -0.174057    1.107035
     11          6           0       -3.090734   -0.803785    1.505901
     12          6           0       -4.114160   -1.058464    0.597937
     13          6           0       -3.960132   -0.684700   -0.738990
     14          6           0       -2.787202   -0.055064   -1.144069
     15          6           0       -1.754472    0.206651   -0.234667
     16          6           0       -0.508664    0.929421   -0.716780
     17          6           0       -0.847696    2.414751   -0.991813
     18          8           0        0.176337    3.098737   -1.704224
     19          8           0        3.369823    0.572863    1.700796
     20          1           0        0.825135   -3.717274   -0.618541
     21          1           0       -0.350820   -2.871631   -1.650767
     22          1           0        0.081322   -2.185213   -0.088344
     23          1           0        1.892761   -2.481093   -2.558708
     24          1           0        1.256722   -0.966717   -1.916594
     25          1           0        1.840396   -1.465553    0.903215
     26          1           0        3.589401   -1.743919    0.965673
     27          1           0        3.952639    0.381682   -0.289798
     28          1           0        2.179141    2.140298   -0.001465
     29          1           0        1.952423    1.002242   -1.326840
     30          1           0        1.174260    0.940723    2.193178
     31          1           0       -0.101658    2.062577    1.697448
     32          1           0       -0.296631   -0.921430    2.299688
     33          1           0       -1.193779    0.386822    3.061076
     34          1           0       -3.204882   -1.098852    2.546732
     35          1           0       -5.025781   -1.548165    0.928625
     36          1           0       -4.747210   -0.885697   -1.460124
     37          1           0       -2.660981    0.232541   -2.185635
     38          1           0       -0.213141    0.505930   -1.684238
     39          1           0       -1.737384    2.461362   -1.626338
     40          1           0       -1.098908    2.926851   -0.051637
     41          1           0        0.888394    3.298500   -1.080309
     42          1           0        3.608911    1.512740    1.712793
 ---------------------------------------------------------------------

 SCF Done:  E(UB3LYP) =  -866.151151448     A.U. after   33 cycles
 SCF Done:  E(UB3LYP) =  -866.151151448     a.u. after    1 cycles

 The electronic state is 2-A.
 Alpha  occ. eigenvalues --  -19.03242 -19.02912 -19.02527 -14.21352 -10.12718
 Alpha  occ. eigenvalues --  -10.12442 -10.12271 -10.11698 -10.11549 -10.10230
 Alpha  occ. eigenvalues --  -10.09664 -10.09437 -10.09310 -10.08679 -10.08643
 Alpha  occ. eigenvalues --  -10.08575 -10.08488 -10.08419 -10.07195  -0.94366
 Alpha  occ. eigenvalues --   -0.93139  -0.92606  -0.84190  -0.77246  -0.70039
 Alpha  occ. eigenvalues --   -0.69563  -0.67722  -0.65050  -0.64338  -0.61432
 Alpha  occ. eigenvalues --   -0.58651  -0.54913  -0.54080  -0.51928  -0.51391
 Alpha  occ. eigenvalues --   -0.48058  -0.45684  -0.43205  -0.42917  -0.42373
 Alpha  occ. eigenvalues --   -0.40452  -0.39668  -0.38785  -0.37458  -0.37031
 Alpha  occ. eigenvalues --   -0.36177  -0.35400  -0.35011  -0.34335  -0.33945
 Alpha  occ. eigenvalues --   -0.32846  -0.32186  -0.31097  -0.30703  -0.29689
 Alpha  occ. eigenvalues --   -0.29409  -0.28852  -0.28417  -0.27503  -0.26736
 Alpha  occ. eigenvalues --   -0.26396  -0.25167  -0.24352  -0.24157  -0.23621
 Alpha  occ. eigenvalues --   -0.21543  -0.19888  -0.18209  -0.16968  -0.16462
 Alpha  occ. eigenvalues --   -0.15561  -0.11882   0.04032
 Alpha virt. eigenvalues --    0.05314   0.06441   0.06768   0.07279   0.07507
 Alpha virt. eigenvalues --    0.07777   0.08348   0.08825   0.09357   0.09557
 Alpha virt. eigenvalues --    0.10020   0.10560   0.11003   0.11437   0.11975

  Beta  occ. eigenvalues --  -19.03238 -19.02887 -19.02479 -14.21349 -10.12713
  Beta  occ. eigenvalues --  -10.12432 -10.12257 -10.11693 -10.11544 -10.10186
  Beta  occ. eigenvalues --  -10.09646 -10.09435 -10.09309 -10.08668 -10.08626
  Beta  occ. eigenvalues --  -10.08559 -10.08469 -10.08413 -10.07191  -0.94349
  Beta  occ. eigenvalues --   -0.93090  -0.92515  -0.84169  -0.77219  -0.70007
  Beta  occ. eigenvalues --   -0.69530  -0.67703  -0.65011  -0.64299  -0.61394
  Beta  occ. eigenvalues --   -0.58608  -0.54875  -0.54043  -0.51886  -0.51352
  Beta  occ. eigenvalues --   -0.48027  -0.45629  -0.43153  -0.42857  -0.42340
  Beta  occ. eigenvalues --   -0.40418  -0.39634  -0.38749  -0.37409  -0.36995
  Beta  occ. eigenvalues --   -0.36147  -0.35367  -0.34981  -0.34308  -0.33920
  Beta  occ. eigenvalues --   -0.32820  -0.32154  -0.31075  -0.30668  -0.29657
  Beta  occ. eigenvalues --   -0.29389  -0.28818  -0.28386  -0.27466  -0.26719
  Beta  occ. eigenvalues --   -0.26362  -0.25133  -0.24315  -0.24135  -0.23589
  Beta  occ. eigenvalues --   -0.21530  -0.19856  -0.18158  -0.16953  -0.16382
  Beta  occ. eigenvalues --   -0.15529  -0.11830
  Beta virt. eigenvalues --    0.05918   0.06562   0.06992   0.07095   0.07476
  Beta virt. eigenvalues --    0.07539   0.08197   0.08686   0.09080   0.09500
  Beta virt. eigenvalues --    0.09765   0.10500   0.10723   0.11216   0.11510

 Mulliken charges and spin densities:
               1          2
     1  C   -0.308576  -0.074771
     2  C   -0.484175   0.060685
     3  O   -0.076642   0.009904
     4  C   -0.242113   0.082322
     5  C    0.897271  -1.497099
     6  C    0.011353  -0.058314
     7  N    0.245855   0.028183
     8  C   -0.543508  -0.287934
     9  C    0.622388  -0.967629
    10  C   -0.330976   0.626043
    11  C   -0.236629   0.239889
    12  C    0.378596  -0.805064
    13  C    0.415586  -0.837775
    14  C   -0.705598   0.347476
    15  C    0.163339   0.129528
    16  C   -0.292320   0.414495
    17  C    0.145828  -0.709974
    18  O   -0.189730  -0.002320
    19  O   -0.220099   0.014733
    20  H    0.137368   0.016183
    21  H    0.028643   0.097673
    22  H    0.346854  -0.179901
    23  H    0.078127   0.101229
    24  H    0.183503  -0.090458
    25  H    0.089456   0.045071
    26  H    0.167460   0.013570
    27  H   -0.042649   0.258530
    28  H   -0.735129   0.901759
    29  H    0.121081   0.035095
    30  H    0.458306  -0.216066
    31  H   -0.342629   0.474515
    32  H    0.067752   0.118997
    33  H    0.082756   0.068131
    34  H   -0.067314   0.245792
    35  H   -0.420960   0.580663
    36  H   -0.348898   0.523270
    37  H   -0.024561   0.184524
    38  H    0.018196   0.211737
    39  H    0.113218   0.075793
    40  H    0.057645   0.078195
    41  H    0.040624   0.211381
    42  H   -0.258697   0.531940
 Sum of Mulliken charges =  -1.00000   1.00000

 Dipole moment (field-independent basis, Debye):
    X=             -1.6813    Y=             -4.5593    Z=             -0.5696  Tot=              4.8927
 Quadrupole moment (field-independent basis, Debye-Ang):
   XX=           -205.5783   YY=           -170.5392   ZZ=           -150.8701
   XY=            -18.8749   XZ=             -7.2846   YZ=             -0.5640

 Summary of Natural Population Analysis:

                                       Natural Population
                Natural  -----------------------------------------------
    Atom  No    Charge         Core      Valence    Rydberg      Total
 -----------------------------------------------------------------------
      C    1   -0.30374      0.99966     2.29990    0.00418     3.30374
      C    2   -0.00673      0.99958     1.99610    0.01104     3.00673
      O    3   -0.30216      0.99989     3.29393    0.00835     4.30216
      C    4   -0.01598      0.99953     2.00282    0.01363     3.01598
      C    5    0.04947      0.99956     1.93611    0.01486     2.95053
      C    6   -0.09703      0.99958     2.08229    0.01517     3.09703
      N    7   -0.29618      0.99970     2.77961    0.01687     3.79618
      C    8   -0.08699      0.99960     2.07637    0.01102     3.08699
      C    9   -0.19764      0.99959     2.18981    0.00824     3.19764
      C   10   -0.01179      0.99946     2.00307    0.00927     3.01179
      C   11   -0.09459      0.99952     2.08578    0.00930     3.09459
      C   12   -0.10153      0.99956     2.09197    0.00999     3.10153
      C   13   -0.10190      0.99956     2.09221    0.01013     3.10190
      C   14   -0.09547      0.99951     2.08658    0.00938     3.09547
      C   15   -0.01706      0.99944     2.00675    0.01087     3.01706
      C   16   -0.01902      0.99954     2.00598    0.01351     3.01902
      C   17   -0.01283      0.99955     2.00092    0.01236     3.01283
      O   18   -0.37004      0.99990     3.36375    0.00639     4.37004
      O   19   -0.37811      0.99989     3.37168    0.00654     4.37811
      H   20    0.09626      0.00000     0.40277    0.00097     0.40374
      H   21    0.10270      0.00000     0.39637    0.00093     0.39730
      H   22    0.10436      0.00000     0.39414    0.00150     0.39564
      H   23    0.08450      0.00000     0.41439    0.00111     0.41550
      H   24    0.07783      0.00000     0.42049    0.00168     0.42217
      H   25    0.08721      0.00000     0.41122    0.00157     0.41279
      H   26    0.09206      0.00000     0.40674    0.00120     0.40794
      H   27    0.08186      0.00000     0.41674    0.00140     0.41814
      H   28    0.08490      0.00000     0.41012    0.00498     0.41510
      H   29    0.10466      0.00000     0.39384    0.00150     0.39534
      H   30    0.11487      0.00000     0.38351    0.00162     0.38513
      H   31    0.08165      0.00000     0.41678    0.00157     0.41835
      H   32    0.10277      0.00000     0.39593    0.00130     0.39723
      H   33    0.10209      0.00000     0.39696    0.00095     0.39791
      H   34    0.09780      0.00000     0.40086    0.00134     0.40220
      H   35    0.10137      0.00000     0.39744    0.00118     0.39863
      H   36    0.10149      0.00000     0.39738    0.00113     0.39851
      H   37    0.09957      0.00000     0.39897    0.00146     0.40043
      H   38    0.10109      0.00000     0.39689    0.00202     0.39891
      H   39    0.08773      0.00000     0.41105    0.00122     0.41227
      H   40    0.08113      0.00000     0.41770    0.00117     0.41887
      H   41    0.23378      0.00000     0.26197    0.00425     0.26622
      H   42    0.23763      0.00000     0.25337    0.00900     0.26237
 =======================================================================
   * Total *    0.00000     18.99261    52.76125    0.24614    72.00000

 Normal termination of Gaussian 16 at Mon Dec 14 15:30:40 2020.
