 Gaussian 16, Revision A.03,

 -----------------------------------------------------------
 # opt freq B3LYP/6-31G(d) empiricaldispersion=gd3bj scf=xqc
 -----------------------------------------------------------

 ------------------------------
 CID_83836536_JID_6251_neutraal
 ------------------------------
 Symbolic Z-matrix:
 Charge =  0 Multiplicity = 1

 SCF Done:  E(RB3LYP) =  -721.866560721     A.U. after   15 cycles
 SCF Done:  E(RB3LYP) =  -721.871569239     A.U. after   12 cycles
 SCF Done:  E(RB3LYP) =  -721.872073195     A.U. after   11 cycles
 SCF Done:  E(RB3LYP) =  -721.872161612     A.U. after   10 cycles
 SCF Done:  E(RB3LYP) =  -721.872201651     A.U. after   10 cycles
 SCF Done:  E(RB3LYP) =  -721.872262196     A.U. after   10 cycles
 SCF Done:  E(RB3LYP) =  -721.872317758     A.U. after   10 cycles
 SCF Done:  E(RB3LYP) =  -721.872396152     A.U. after   10 cycles
 SCF Done:  E(RB3LYP) =  -721.872546719     A.U. after   11 cycles
 SCF Done:  E(RB3LYP) =  -721.872535535     A.U. after   10 cycles
 SCF Done:  E(RB3LYP) =  -721.872741800     A.U. after   10 cycles
 SCF Done:  E(RB3LYP) =  -721.872742292     A.U. after    8 cycles
 SCF Done:  E(RB3LYP) =  -721.872742663     A.U. after    9 cycles
 SCF Done:  E(RB3LYP) =  -721.872742827     A.U. after    9 cycles
 SCF Done:  E(RB3LYP) =  -721.872742858     A.U. after    7 cycles
 Optimization completed.
    -- Stationary point found.
 Normal termination of Gaussian 16 at Thu Dec 10 21:54:07 2020.

 --------------------------------------------------------------------
 #N Geom=AllCheck Guess=TCheck SCRF=Check GenChk RB3LYP/6-31G(d) Freq
 --------------------------------------------------------------------

 Structure from the checkpoint file:  "JID_6251.chk"
 ------------------------------
 CID_83836536_JID_6251_neutraal
 ------------------------------
 Charge =  0 Multiplicity = 1

 SCF Done:  E(RB3LYP) =  -721.872742858     A.U. after    1 cycles

  Exact polarizability: 223.224   3.188 127.112  -2.686  -2.978  79.794
 Approx polarizability: 287.089   9.704 221.589  -9.416 -11.223 124.575

                      1                      2                      3
                      A                      A                      A
 Frequencies --     16.9574                38.9131                45.2210
 Red. masses --      4.1994                 3.0653                 3.4831
 Frc consts  --      0.0007                 0.0027                 0.0042
 IR Inten    --      0.4848                 1.5605                 3.4477

                      4                      5                      6
                      A                      A                      A
 Frequencies --     65.4896               121.5715               166.7531
 Red. masses --      4.0121                 4.0293                 5.3304
 Frc consts  --      0.0101                 0.0351                 0.0873
 IR Inten    --      2.7123                 1.0156                 0.6202

                      7                      8                      9
                      A                      A                      A
 Frequencies --    217.8066               245.5156               250.7357
 Red. masses --      3.2316                 6.2487                 4.1561
 Frc consts  --      0.0903                 0.2219                 0.1539
 IR Inten    --      0.9326                 0.9465                 3.1087

                     10                     11                     12
                      A                      A                      A
 Frequencies --    301.3242               358.2096               379.3027
 Red. masses --      1.9428                 6.0676                 2.6383
 Frc consts  --      0.1039                 0.4587                 0.2236
 IR Inten    --      2.5239                 4.5059                32.4842

                     13                     14                     15
                      A                      A                      A
 Frequencies --    411.9646               436.9473               461.3259
 Red. masses --      1.6476                 4.5362                 1.7733
 Frc consts  --      0.1647                 0.5103                 0.2223
 IR Inten    --     48.8612                 1.0880                82.2773

                     16                     17                     18
                      A                      A                      A
 Frequencies --    539.6249               582.2523               597.5757
 Red. masses --      6.7078                 2.6068                 3.9459
 Frc consts  --      1.1508                 0.5207                 0.8302
 IR Inten    --      1.3070                43.1160                 3.6297

                     19                     20                     21
                      A                      A                      A
 Frequencies --    605.8676               627.7196               653.7681
 Red. masses --      3.5210                 3.4047                 8.2763
 Frc consts  --      0.7615                 0.7904                 2.0842
 IR Inten    --     21.2635                 3.6689                 0.2621

                     22                     23                     24
                      A                      A                      A
 Frequencies --    725.3238               740.9827               779.9133
 Red. masses --      8.3799                 4.2024                 4.4605
 Frc consts  --      2.5975                 1.3594                 1.5986
 IR Inten    --      4.7978                36.2081                23.8763

                     25                     26                     27
                      A                      A                      A
 Frequencies --    793.5866               805.6921               858.9028
 Red. masses --      1.5288                 1.9576                 2.7613
 Frc consts  --      0.5673                 0.7487                 1.2002
 IR Inten    --     27.5345                11.4887                28.8963

                     28                     29                     30
                      A                      A                      A
 Frequencies --    868.0765               895.4566               916.8567
 Red. masses --      4.4095                 1.9114                 7.7830
 Frc consts  --      1.9578                 0.9030                 3.8548
 IR Inten    --     11.9333                25.5707                 1.9125

                     31                     32                     33
                      A                      A                      A
 Frequencies --    933.8532               940.4203               954.2986
 Red. masses --      1.3364                 1.5797                 2.4733
 Frc consts  --      0.6867                 0.8231                 1.3271
 IR Inten    --      1.3727                 3.6487                 3.7365

                     34                     35                     36
                      A                      A                      A
 Frequencies --    963.1987               987.6134              1019.6998
 Red. masses --      1.3158                 3.9729                 2.1682
 Frc consts  --      0.7192                 2.2831                 1.3283
 IR Inten    --      1.2809                33.9447                11.1525

                     37                     38                     39
                      A                      A                      A
 Frequencies --   1038.8387              1050.3603              1062.8299
 Red. masses --      1.7075                 2.2468                 2.2089
 Frc consts  --      1.0857                 1.4605                 1.4701
 IR Inten    --      5.0720                 6.1635                 8.3088

                     40                     41                     42
                      A                      A                      A
 Frequencies --   1113.6811              1130.6311              1137.3401
 Red. masses --      3.0117                 1.6694                 2.2048
 Frc consts  --      2.2008                 1.2573                 1.6804
 IR Inten    --      1.4885                 5.2180                 2.7462

                     43                     44                     45
                      A                      A                      A
 Frequencies --   1146.9075              1148.0325              1202.1842
 Red. masses --      3.2208                 2.0858                 2.8297
 Frc consts  --      2.4961                 1.6197                 2.4095
 IR Inten    --     27.5822                 8.3211                29.5761

                     46                     47                     48
                      A                      A                      A
 Frequencies --   1213.6804              1235.4152              1259.3504
 Red. masses --      1.2123                 1.2413                 1.4539
 Frc consts  --      1.0521                 1.1163                 1.3585
 IR Inten    --      9.0289                11.3552                 8.4603

                     49                     50                     51
                      A                      A                      A
 Frequencies --   1263.7497              1285.5999              1300.3998
 Red. masses --      1.4840                 3.1102                 1.4701
 Frc consts  --      1.3964                 3.0287                 1.4647
 IR Inten    --      5.1871               120.8033               102.5609

                     52                     53                     54
                      A                      A                      A
 Frequencies --   1309.5747              1321.3043              1337.9453
 Red. masses --      1.3362                 2.3009                 1.3004
 Frc consts  --      1.3501                 2.3667                 1.3716
 IR Inten    --     29.4318                15.9711                 1.3025

                     55                     56                     57
                      A                      A                      A
 Frequencies --   1349.9434              1367.9001              1396.8954
 Red. masses --      1.3284                 1.2868                 3.3141
 Frc consts  --      1.4263                 1.4187                 3.8102
 IR Inten    --      5.6160                 4.3709                49.7004

                     58                     59                     60
                      A                      A                      A
 Frequencies --   1420.8213              1429.7584              1446.2503
 Red. masses --      1.5082                 1.5692                 3.0569
 Frc consts  --      1.7939                 1.8900                 3.7672
 IR Inten    --     27.0082                36.7909               198.9139

                     61                     62                     63
                      A                      A                      A
 Frequencies --   1457.3541              1519.0334              1520.5386
 Red. masses --      1.3825                 2.1689                 1.1545
 Frc consts  --      1.7300                 2.9487                 1.5727
 IR Inten    --      3.5295                 7.1460                 4.1546

                     64                     65                     66
                      A                      A                      A
 Frequencies --   1537.2097              1538.8251              1546.5260
 Red. masses --      1.2936                 1.0997                 1.4476
 Frc consts  --      1.8010                 1.5343                 2.0399
 IR Inten    --     14.6782                 8.5889               117.7520

                     67                     68                     69
                      A                      A                      A
 Frequencies --   1556.1770              1612.5722              1679.1138
 Red. masses --      1.1035                 7.2488                 7.1300
 Frc consts  --      1.5745                11.1059                11.8440
 IR Inten    --      3.8163               316.3592                71.4477

                     70                     71                     72
                      A                      A                      A
 Frequencies --   1713.6720              2927.2734              2942.7341
 Red. masses --     10.6100                 1.0738                 1.0741
 Frc consts  --     18.3579                 5.4210                 5.4804
 IR Inten    --    695.3678                61.9690                94.8972

                     73                     74                     75
                      A                      A                      A
 Frequencies --   3012.6488              3062.0707              3077.1531
 Red. masses --      1.0723                 1.0636                 1.0863
 Frc consts  --      5.7341                 5.8757                 6.0603
 IR Inten    --     46.7204                34.1831                12.4734

                     76                     77                     78
                      A                      A                      A
 Frequencies --   3093.7689              3098.2760              3115.5181
 Red. masses --      1.0895                 1.0898                 1.0952
 Frc consts  --      6.1440                 6.1637                 6.2635
 IR Inten    --     37.5504                30.4658                24.7901

                     79                     80                     81
                      A                      A                      A
 Frequencies --   3119.1374              3179.0792              3212.0096
 Red. masses --      1.0972                 1.0891                 1.0903
 Frc consts  --      6.2896                 6.4849                 6.6277
 IR Inten    --     36.9157                27.1267                12.3923

                     82                     83                     84
                      A                      A                      A
 Frequencies --   3226.8962              3511.9508              3617.5877
 Red. masses --      1.0964                 1.0749                 1.0761
 Frc consts  --      6.7266                 7.8112                 8.2972
 IR Inten    --     11.8061                 1.5357                53.5168

 - Thermochemistry -
 -------------------
 Temperature   298.150 Kelvin.  Pressure   1.00000 Atm.
 Atom     1 has atomic number  6 and mass  12.00000

 Molecular mass:   218.11676 amu.
 Principal axes and moments of inertia in atomic units:
                           1         2         3
     Eigenvalues --   795.616629542.49747**********
           X            0.99999  -0.00250   0.00284
           Y            0.00247   0.99995   0.00916
           Z           -0.00286  -0.00915   0.99995
 This molecule is an asymmetric top.
 Rotational symmetry number  1.
 Warning -- assumption of classical behavior for rotation
           may cause significant error
 Rotational temperatures (Kelvin)      0.10886     0.00908     0.00854
 Rotational constants (GHZ):           2.26836     0.18913     0.17803
 Zero-point vibrational energy     658874.7 (Joules/Mol)
                                  157.47482 (Kcal/Mol)
 Warning -- explicit consideration of  19 degrees of freedom as
           vibrations may cause significant error
 Vibrational temperatures:     24.40    55.99    65.06    94.22   174.91
          (Kelvin)            239.92   313.38   353.24   360.75   433.54
                              515.38   545.73   592.73   628.67   663.75
                              776.40   837.73   859.78   871.71   903.15
                              940.63  1043.58  1066.11  1122.12  1141.79
                             1159.21  1235.77  1248.97  1288.36  1319.15
                             1343.61  1353.06  1373.02  1385.83  1420.96
                             1467.12  1494.66  1511.23  1529.18  1602.34
                             1626.73  1636.38  1650.14  1651.76  1729.67
                             1746.22  1777.49  1811.92  1818.25  1849.69
                             1870.99  1884.19  1901.06  1925.00  1942.27
                             1968.10  2009.82  2044.24  2057.10  2080.83
                             2096.81  2185.55  2187.72  2211.70  2214.03
                             2225.11  2238.99  2320.13  2415.87  2465.59
                             4211.69  4233.94  4334.53  4405.64  4427.34
                             4451.24  4457.73  4482.54  4487.74  4573.99
                             4621.37  4642.78  5052.91  5204.90

 Zero-point correction=                           0.250952 (Hartree/Particle)
 Thermal correction to Energy=                    0.264241
 Thermal correction to Enthalpy=                  0.265186
 Thermal correction to Gibbs Free Energy=         0.208369
 Sum of electronic and zero-point Energies=           -721.621791
 Sum of electronic and thermal Energies=              -721.608501
 Sum of electronic and thermal Enthalpies=            -721.607557
 Sum of electronic and thermal Free Energies=         -721.664374

                     E (Thermal)             CV                S
                      KCal/Mol        Cal/Mol-Kelvin    Cal/Mol-Kelvin
 Total                  165.814             51.352            119.581
 Electronic               0.000              0.000              0.000
 Translational            0.889              2.981             42.043
 Rotational               0.889              2.981             32.709
 Vibrational            164.037             45.390             44.829
 Vibration     1          0.593              1.986              6.962
 Vibration     2          0.594              1.981              5.314
 Vibration     3          0.595              1.979              5.016
 Vibration     4          0.597              1.971              4.285
 Vibration     5          0.609              1.931              3.075
 Vibration     6          0.624              1.883              2.472
 Vibration     7          0.646              1.814              1.977
 Vibration     8          0.660              1.770              1.763
 Vibration     9          0.663              1.762              1.725
 Vibration    10          0.693              1.671              1.410
 Vibration    11          0.733              1.558              1.130
 Vibration    12          0.749              1.514              1.042
 Vibration    13          0.776              1.444              0.920
 Vibration    14          0.797              1.390              0.836
 Vibration    15          0.819              1.336              0.762
 Vibration    16          0.895              1.162              0.566
 Vibration    17          0.939              1.070              0.481
 Vibration    18          0.955              1.037              0.454
 Vibration    19          0.964              1.019              0.440

                           ! Non-Optimized Parameters !
 Normal termination of Gaussian 16 at Thu Dec 10 22:01:48 2020.

 ----------------------------------------------------------------------
 # B3LYP/6-311++G(d,p) empiricaldispersion=gd3bj scf=xqc pop=npa geom=c
 heck
 ----------------------------------------------------------------------

 --------------------------------------
 CID_83836536_JID_6251_Energie_neutraal
 --------------------------------------
 Structure from the checkpoint file:  "JID_6251.chk"
 Charge =  0 Multiplicity = 1

 SCF Done:  E(RB3LYP) =  -722.070894577     A.U. after   16 cycles
 Normal termination of Gaussian 16 at Thu Dec 10 22:05:33 2020.

 ----------------------------------------------------------------------
 # B3LYP/6-311++G(d,p) empiricaldispersion=gd3bj scf=xqc pop=npa geom=c
 heck
 ----------------------------------------------------------------------

 ------------------------------------
 CID_83836536_JID_6251_Energie_kation
 ------------------------------------
 Structure from the checkpoint file:  "JID_6251.chk"
 Charge =  1 Multiplicity = 2

 SCF Done:  E(UB3LYP) =  -721.786141586     A.U. after   23 cycles
 Normal termination of Gaussian 16 at Thu Dec 10 22:12:44 2020.
 Gaussian 16:  ES64L-G16RevA.03 25-Dec-2016

 ----------------------------------------------------------------------
 # B3LYP/6-311++G(d,p) empiricaldispersion=gd3bj scf=xqc pop=npa geom=c
 heck
 ----------------------------------------------------------------------

 -----------------------------------
 CID_83836536_JID_6251_Energie_anion
 -----------------------------------
 Structure from the checkpoint file:  "JID_6251.chk"
 Charge = -1 Multiplicity = 2

                         Standard orientation:
 ---------------------------------------------------------------------
 Center     Atomic      Atomic             Coordinates (Angstroms)
 Number     Number       Type             X           Y           Z
 ---------------------------------------------------------------------
      1          6           0        3.612225    1.140838    0.201813
      2          6           0        4.942722    0.618969    0.776950
      3          7           0        5.293883   -0.449975   -0.159247
      4          6           0        4.053033   -1.200593   -0.348079
      5          6           0        2.993471   -0.091481   -0.529327
      6          6           0        1.633128   -0.517687    0.010864
      7          7           0        0.619933    0.492444   -0.280629
      8          6           0       -0.690408    0.207721   -0.131810
      9          7           0       -1.244813   -0.956319    0.052390
     10          6           0       -2.609686   -0.669719    0.079573
     11          6           0       -2.794164    0.718064   -0.088624
     12          8           0       -1.545905    1.291796   -0.226170
     13          6           0       -4.041949    1.295882   -0.096616
     14          6           0       -5.101216    0.388959    0.074640
     15          6           0       -4.835831   -0.975472    0.235657
     16          7           0       -3.609750   -1.529575    0.242890
     17          1           0        2.962937    1.528283    0.995869
     18          1           0        3.794947    1.954420   -0.505552
     19          1           0        5.725388    1.383654    0.809415
     20          1           0        4.782833    0.253919    1.809065
     21          1           0        6.044029   -1.038592    0.196009
     22          1           0        3.786454   -1.822756    0.528916
     23          1           0        4.121496   -1.862133   -1.217464
     24          1           0        2.884868    0.133687   -1.595084
     25          1           0        1.300123   -1.450073   -0.453547
     26          1           0        1.696473   -0.704379    1.093985
     27          1           0        0.874133    1.465356   -0.175067
     28          1           0       -4.198199    2.361664   -0.225247
     29          1           0       -6.127033    0.742275    0.082271
     30          1           0       -5.663928   -1.668601    0.367716
 ---------------------------------------------------------------------

 SCF Done:  E(UB3LYP) =  -722.063344904     A.U. after   33 cycles
 SCF Done:  E(UB3LYP) =  -722.063344904     a.u. after    1 cycles

 The electronic state is 2-A.
 Alpha  occ. eigenvalues --  -19.09768 -14.25129 -14.19956 -14.19810 -14.19173
 Alpha  occ. eigenvalues --  -10.19776 -10.13023 -10.12215 -10.11424 -10.09839
 Alpha  occ. eigenvalues --  -10.09727 -10.09219 -10.08596 -10.08348 -10.07628
 Alpha  occ. eigenvalues --  -10.07466  -1.03374  -0.86572  -0.84917  -0.82418
 Alpha  occ. eigenvalues --   -0.79845  -0.70710  -0.69346  -0.64565  -0.63517
 Alpha  occ. eigenvalues --   -0.59048  -0.54047  -0.53393  -0.50622  -0.49646
 Alpha  occ. eigenvalues --   -0.47729  -0.45960  -0.42174  -0.41753  -0.40738
 Alpha  occ. eigenvalues --   -0.39953  -0.38935  -0.36703  -0.35541  -0.33800
 Alpha  occ. eigenvalues --   -0.33323  -0.32453  -0.30898  -0.30190  -0.28776
 Alpha  occ. eigenvalues --   -0.28597  -0.28015  -0.27551  -0.25726  -0.24817
 Alpha  occ. eigenvalues --   -0.23686  -0.23041  -0.19983  -0.19488  -0.17142
 Alpha  occ. eigenvalues --   -0.15397  -0.13442  -0.11971   0.04165
 Alpha virt. eigenvalues --    0.05546   0.06758   0.07097   0.07877   0.08270
 Alpha virt. eigenvalues --    0.08734   0.09408   0.09686   0.10322   0.10593
 Alpha virt. eigenvalues --    0.10904   0.11672   0.12180   0.13410   0.13845

  Beta  occ. eigenvalues --  -19.09781 -14.25109 -14.19927 -14.19841 -14.18932
  Beta  occ. eigenvalues --  -10.19675 -10.13024 -10.12162 -10.11415 -10.09832
  Beta  occ. eigenvalues --  -10.09711 -10.09183 -10.08591 -10.08155 -10.07608
  Beta  occ. eigenvalues --  -10.07448  -1.03340  -0.86509  -0.84690  -0.82378
  Beta  occ. eigenvalues --   -0.79729  -0.70470  -0.69238  -0.64456  -0.63447
  Beta  occ. eigenvalues --   -0.58975  -0.53839  -0.53326  -0.50485  -0.49559
  Beta  occ. eigenvalues --   -0.47665  -0.45880  -0.42108  -0.41663  -0.40642
  Beta  occ. eigenvalues --   -0.39901  -0.38746  -0.36653  -0.35445  -0.33739
  Beta  occ. eigenvalues --   -0.33270  -0.32400  -0.30791  -0.30120  -0.28633
  Beta  occ. eigenvalues --   -0.28255  -0.27826  -0.27494  -0.25666  -0.24695
  Beta  occ. eigenvalues --   -0.23608  -0.22966  -0.19946  -0.19176  -0.16333
  Beta  occ. eigenvalues --   -0.15151  -0.13382  -0.11651
  Beta virt. eigenvalues --    0.06517   0.06831   0.07586   0.07633   0.08304
  Beta virt. eigenvalues --    0.08606   0.08999   0.09581   0.10081   0.10424
  Beta virt. eigenvalues --    0.10936   0.11241   0.11836   0.12301   0.13604

 Mulliken charges and spin densities:
               1          2
     1  C   -0.273623  -0.033389
     2  C    1.619571  -2.071391
     3  N   -0.356756   0.230283
     4  C    0.201315  -0.668101
     5  C   -0.549192   0.826139
     6  C   -0.313951  -0.430325
     7  N   -0.261674   0.123371
     8  C    0.038918  -0.019463
     9  N   -0.112434  -0.036730
    10  C   -0.096943  -0.250909
    11  C    1.092306  -0.206868
    12  O   -0.129468  -0.015465
    13  C   -0.784309   0.277353
    14  C    0.016398  -0.023267
    15  C   -0.248305   0.008286
    16  N   -0.127608   0.108425
    17  H   -0.164336   0.286605
    18  H   -0.070612   0.236999
    19  H   -0.415150   0.590215
    20  H   -0.334519   0.472806
    21  H   -0.247865   0.495115
    22  H   -0.199790   0.333966
    23  H    0.017651   0.144033
    24  H   -0.030216   0.222667
    25  H    0.260726  -0.061577
    26  H    0.052924   0.151068
    27  H    0.022359   0.268900
    28  H    0.099638   0.043754
    29  H    0.132700  -0.001772
    30  H    0.162245  -0.000726
 Sum of Mulliken charges =  -1.00000   1.00000

 Dipole moment (field-independent basis, Debye):
    X=             -7.0628    Y=              2.2366    Z=             -2.1985  Tot=              7.7278
 Quadrupole moment (field-independent basis, Debye-Ang):
   XX=           -211.6854   YY=           -125.3869   ZZ=           -119.7536
   XY=            -10.0048   XZ=             -7.2329   YZ=              0.4301

 Summary of Natural Population Analysis:

                                       Natural Population
                Natural  -----------------------------------------------
    Atom  No    Charge         Core      Valence    Rydberg      Total
 -----------------------------------------------------------------------
      C    1   -0.19727      0.99962     2.18835    0.00929     3.19727
      C    2   -0.08739      0.99964     2.07600    0.01176     3.08739
      N    3   -0.34128      0.99975     2.82923    0.01231     3.84128
      C    4   -0.08478      0.99961     2.07331    0.01186     3.08478
      C    5   -0.11838      0.99959     2.10858    0.01021     3.11838
      C    6   -0.08198      0.99958     2.07216    0.01023     3.08198
      N    7   -0.31082      0.99964     2.80220    0.00898     3.81082
      C    8    0.37975      0.99959     1.59963    0.02102     2.62025
      N    9   -0.28955      0.99966     2.78115    0.00874     3.78955
      C   10    0.16845      0.99947     1.81376    0.01833     2.83155
      C   11    0.11278      0.99932     1.87437    0.01353     2.88722
      O   12   -0.25492      0.99986     3.24840    0.00667     4.25492
      C   13   -0.08000      0.99952     2.07165    0.00883     3.08000
      C   14   -0.13364      0.99959     2.12557    0.00849     3.13364
      C   15    0.01488      0.99961     1.97134    0.01418     2.98512
      N   16   -0.20523      0.99967     2.69307    0.01249     3.70523
      H   17    0.09788      0.00000     0.40063    0.00149     0.40212
      H   18    0.10110      0.00000     0.39759    0.00131     0.39890
      H   19    0.09692      0.00000     0.40116    0.00192     0.40308
      H   20    0.07979      0.00000     0.41746    0.00275     0.42021
      H   21    0.17908      0.00000     0.31639    0.00452     0.32092
      H   22    0.07952      0.00000     0.41883    0.00165     0.42048
      H   23    0.09571      0.00000     0.40326    0.00103     0.40429
      H   24    0.10143      0.00000     0.39727    0.00130     0.39857
      H   25    0.10668      0.00000     0.39138    0.00194     0.39332
      H   26    0.09262      0.00000     0.40555    0.00183     0.40738
      H   27    0.19629      0.00000     0.30087    0.00284     0.30371
      H   28    0.10140      0.00000     0.39755    0.00105     0.39860
      H   29    0.09710      0.00000     0.40189    0.00101     0.40290
      H   30    0.08387      0.00000     0.41480    0.00133     0.41613
 =======================================================================
   * Total *   -0.00000     15.99373    41.79339    0.21288    58.00000

 Normal termination of Gaussian 16 at Thu Dec 10 22:22:48 2020.
