 Gaussian 16, Revision A.03,

 -----------------------------------------------------------
 # opt freq B3LYP/6-31G(d) empiricaldispersion=gd3bj scf=xqc
 -----------------------------------------------------------

 ------------------------------
 CID_148888708_JID_395_neutraal
 ------------------------------
 Symbolic Z-matrix:
 Charge =  0 Multiplicity = 1

 SCF Done:  E(RB3LYP) =  -812.531293151     A.U. after   16 cycles
 SCF Done:  E(RB3LYP) =  -812.536094977     A.U. after   13 cycles
 SCF Done:  E(RB3LYP) =  -812.536499287     A.U. after   13 cycles
 SCF Done:  E(RB3LYP) =  -812.536615596     A.U. after   12 cycles
 SCF Done:  E(RB3LYP) =  -812.536692245     A.U. after   11 cycles
 SCF Done:  E(RB3LYP) =  -812.536700803     A.U. after   10 cycles
 SCF Done:  E(RB3LYP) =  -812.536703920     A.U. after   10 cycles
 SCF Done:  E(RB3LYP) =  -812.536705141     A.U. after   10 cycles
 SCF Done:  E(RB3LYP) =  -812.536706008     A.U. after    9 cycles
 SCF Done:  E(RB3LYP) =  -812.536707177     A.U. after    9 cycles
 SCF Done:  E(RB3LYP) =  -812.536707628     A.U. after    9 cycles
 SCF Done:  E(RB3LYP) =  -812.536707885     A.U. after    8 cycles
 SCF Done:  E(RB3LYP) =  -812.536708013     A.U. after    8 cycles
 Optimization completed.
    -- Stationary point found.
 Normal termination of Gaussian 16 at Tue Dec  8 10:31:28 2020.

 --------------------------------------------------------------------
 #N Geom=AllCheck Guess=TCheck SCRF=Check GenChk RB3LYP/6-31G(d) Freq
 --------------------------------------------------------------------

 Structure from the checkpoint file:  "JID_395.chk"
 ------------------------------
 CID_148888708_JID_395_neutraal
 ------------------------------
 Charge =  0 Multiplicity = 1

 SCF Done:  E(RB3LYP) =  -812.536708013     A.U. after    1 cycles

  Exact polarizability: 116.892   6.373 108.363  -4.740   0.873  54.088
 Approx polarizability: 188.589  15.300 177.525 -13.148   2.533  84.721

                      1                      2                      3
                      A                      A                      A
 Frequencies --     36.5351               118.3755               140.7838
 Red. masses --      4.0119                 2.8423                 1.1599
 Frc consts  --      0.0032                 0.0235                 0.0135
 IR Inten    --      1.9455                 2.1270                 0.5465

                      4                      5                      6
                      A                      A                      A
 Frequencies --    151.3213               170.6170               182.1504
 Red. masses --      2.8777                 2.1313                 1.6372
 Frc consts  --      0.0388                 0.0366                 0.0320
 IR Inten    --      2.2256                 0.3671                 1.1902

                      7                      8                      9
                      A                      A                      A
 Frequencies --    238.1152               295.9013               356.4256
 Red. masses --      3.9620                 3.3207                 4.4791
 Frc consts  --      0.1324                 0.1713                 0.3353
 IR Inten    --      4.7300                 6.1171                 5.6702

                     10                     11                     12
                      A                      A                      A
 Frequencies --    378.3988               482.8947               494.5810
 Red. masses --      4.9900                 5.5040                 1.7919
 Frc consts  --      0.4210                 0.7562                 0.2582
 IR Inten    --      7.3236                24.5611               101.2793

                     13                     14                     15
                      A                      A                      A
 Frequencies --    575.1764               585.7129               604.1366
 Red. masses --      5.5659                 3.9410                 3.9653
 Frc consts  --      1.0849                 0.7966                 0.8527
 IR Inten    --     11.8565                10.4294                13.1058

                     16                     17                     18
                      A                      A                      A
 Frequencies --    639.0055               750.6005               782.8474
 Red. masses --      3.6777                 5.3719                 8.4617
 Frc consts  --      0.8848                 1.7832                 3.0554
 IR Inten    --     24.7090                 8.2970                16.7282

                     19                     20                     21
                      A                      A                      A
 Frequencies --    808.7828               878.2108               914.8168
 Red. masses --     11.6347                 4.9593                 1.2996
 Frc consts  --      4.4840                 2.2536                 0.6408
 IR Inten    --     36.9475                13.0234                45.1557

                     22                     23                     24
                      A                      A                      A
 Frequencies --    999.1836              1054.5833              1077.4640
 Red. masses --      2.7382                 1.9176                 1.6231
 Frc consts  --      1.6107                 1.2565                 1.1102
 IR Inten    --     16.1608                 7.1326                11.0736

                     25                     26                     27
                      A                      A                      A
 Frequencies --   1097.9338              1156.0969              1187.3439
 Red. masses --      2.2801                 1.3447                 1.7336
 Frc consts  --      1.6194                 1.0589                 1.4400
 IR Inten    --     55.3314                19.8905                 1.2002

                     28                     29                     30
                      A                      A                      A
 Frequencies --   1218.2439              1338.5004              1374.8362
 Red. masses --      2.8133                 3.6423                 2.2814
 Frc consts  --      2.4600                 3.8447                 2.5407
 IR Inten    --      8.4426                32.7767                81.9942

                     31                     32                     33
                      A                      A                      A
 Frequencies --   1429.5354              1456.2894              1486.1544
 Red. masses --      1.2703                 2.2227                 1.4349
 Frc consts  --      1.5295                 2.7774                 1.8672
 IR Inten    --      9.9651                23.6490                20.0291

                     34                     35                     36
                      A                      A                      A
 Frequencies --   1507.0395              1510.9582              1513.4073
 Red. masses --      1.0915                 1.0649                 1.0825
 Frc consts  --      1.4606                 1.4323                 1.4609
 IR Inten    --     31.0064                19.2538                 8.0734

                     37                     38                     39
                      A                      A                      A
 Frequencies --   1532.7351              1560.2634              1597.9290
 Red. masses --      1.2114                 1.5512                 6.1670
 Frc consts  --      1.6767                 2.2249                 9.2776
 IR Inten    --      8.0691                71.3077               164.0377

                     40                     41                     42
                      A                      A                      A
 Frequencies --   1707.9916              3036.0489              3041.9670
 Red. masses --      8.6265                 1.0473                 1.0452
 Frc consts  --     14.8272                 5.6879                 5.6987
 IR Inten    --     67.7977                57.5751                 9.7693

                     43                     44                     45
                      A                      A                      A
 Frequencies --   3110.5452              3119.5880              3151.7915
 Red. masses --      1.0907                 1.0878                 1.1031
 Frc consts  --      6.2177                 6.2370                 6.4564
 IR Inten    --     14.6580                27.1265                 8.1786

                     46                     47                     48
                      A                      A                      A
 Frequencies --   3159.6619              3400.4040              3614.2553
 Red. masses --      1.1054                 1.0747                 1.0759
 Frc consts  --      6.5020                 7.3212                 8.2803
 IR Inten    --     14.3695                 9.0234                14.0191

 - Thermochemistry -
 -------------------
 Temperature   298.150 Kelvin.  Pressure   1.00000 Atm.
 Atom     1 has atomic number  6 and mass  12.00000

 Molecular mass:   156.04697 amu.
 Principal axes and moments of inertia in atomic units:
                           1         2         3
     Eigenvalues --  1286.632691617.526122772.47279
           X            0.99776  -0.06576   0.01236
           Y            0.06575   0.99784   0.00091
           Z           -0.01239  -0.00010   0.99992
 This molecule is an asymmetric top.
 Rotational symmetry number  1.
 Warning -- assumption of classical behavior for rotation
           may cause significant error
 Rotational temperatures (Kelvin)      0.06732     0.05355     0.03124
 Rotational constants (GHZ):           1.40269     1.11574     0.65095
 Zero-point vibrational energy     365017.4 (Joules/Mol)
                                   87.24125 (Kcal/Mol)
 Warning -- explicit consideration of  15 degrees of freedom as
           vibrations may cause significant error
 Vibrational temperatures:     52.57   170.32   202.56   217.72   245.48
          (Kelvin)            262.07   342.59   425.74   512.82   544.43
                              694.78   711.59   827.55   842.71   869.22
                              919.39  1079.95  1126.34  1163.66  1263.55
                             1316.22  1437.60  1517.31  1550.23  1579.68
                             1663.37  1708.32  1752.78  1925.80  1978.08
                             2056.78  2095.28  2138.24  2168.29  2173.93
                             2177.46  2205.26  2244.87  2299.06  2457.42
                             4368.20  4376.71  4475.38  4488.39  4534.72
                             4546.05  4892.42  5200.11

 Zero-point correction=                           0.139028 (Hartree/Particle)
 Thermal correction to Energy=                    0.149239
 Thermal correction to Enthalpy=                  0.150183
 Thermal correction to Gibbs Free Energy=         0.102631
 Sum of electronic and zero-point Energies=           -812.397680
 Sum of electronic and thermal Energies=              -812.387469
 Sum of electronic and thermal Enthalpies=            -812.386525
 Sum of electronic and thermal Free Energies=         -812.434077

                     E (Thermal)             CV                S
                      KCal/Mol        Cal/Mol-Kelvin    Cal/Mol-Kelvin
 Total                   93.649             36.572            100.082
 Electronic               0.000              0.000              0.000
 Translational            0.889              2.981             41.044
 Rotational               0.889              2.981             30.135
 Vibrational             91.871             30.610             28.903
 Vibration     1          0.594              1.982              5.439
 Vibration     2          0.609              1.934              3.127
 Vibration     3          0.615              1.913              2.793
 Vibration     4          0.619              1.901              2.656
 Vibration     5          0.626              1.879              2.429
 Vibration     6          0.630              1.864              2.306
 Vibration     7          0.656              1.782              1.817
 Vibration     8          0.690              1.681              1.440
 Vibration     9          0.732              1.562              1.138
 Vibration    10          0.749              1.516              1.046
 Vibration    11          0.839              1.288              0.702
 Vibration    12          0.850              1.262              0.672
 Vibration    13          0.932              1.085              0.494
 Vibration    14          0.943              1.062              0.475
 Vibration    15          0.963              1.023              0.443

                           ! Non-Optimized Parameters !
 Normal termination of Gaussian 16 at Tue Dec  8 10:35:09 2020.

 ----------------------------------------------------------------------
 # B3LYP/6-311++G(d,p) empiricaldispersion=gd3bj scf=xqc pop=npa geom=c
 heck
 ----------------------------------------------------------------------

 --------------------------------------
 CID_148888708_JID_395_Energie_neutraal
 --------------------------------------
 Structure from the checkpoint file:  "JID_395.chk"
 Charge =  0 Multiplicity = 1

 SCF Done:  E(RB3LYP) =  -812.682056175     A.U. after   16 cycles
 Normal termination of Gaussian 16 at Tue Dec  8 10:41:08 2020.

 ----------------------------------------------------------------------
 # B3LYP/6-311++G(d,p) empiricaldispersion=gd3bj scf=xqc pop=npa geom=c
 heck
 ----------------------------------------------------------------------

 ------------------------------------
 CID_148888708_JID_395_Energie_kation
 ------------------------------------
 Structure from the checkpoint file:  "JID_395.chk"
 Charge =  1 Multiplicity = 2

 SCF Done:  E(UB3LYP) =  -812.376444230     A.U. after   24 cycles
 Normal termination of Gaussian 16 at Tue Dec  8 10:47:49 2020.
 Gaussian 16:  ES64L-G16RevA.03 25-Dec-2016

 ----------------------------------------------------------------------
 # B3LYP/6-311++G(d,p) empiricaldispersion=gd3bj scf=xqc pop=npa geom=c
 heck
 ----------------------------------------------------------------------

 -----------------------------------
 CID_148888708_JID_395_Energie_anion
 -----------------------------------
 Structure from the checkpoint file:  "JID_395.chk"
 Charge = -1 Multiplicity = 2

                         Standard orientation:
 ---------------------------------------------------------------------
 Center     Atomic      Atomic             Coordinates (Angstroms)
 Number     Number       Type             X           Y           Z
 ---------------------------------------------------------------------
      1          6           0        2.310881    1.297186    0.649058
      2          6           0        1.958686   -0.001492   -0.060244
      3          7           0        2.798387   -0.744767   -0.673420
      4          6           0        0.538461   -0.449018   -0.013856
      5          7           0        0.253140   -1.734223    0.054547
      6         16           0       -1.394972   -1.890778    0.128557
      7          7           0       -1.788179   -0.269654    0.040381
      8          6           0       -0.650626    0.398705   -0.021725
      9          7           0       -0.639334    1.776162   -0.058853
     10          6           0       -1.904110    2.477992   -0.236945
     11          1           0        3.321055    1.224664    1.063714
     12          1           0        1.611693    1.536392    1.454268
     13          1           0        2.310848    2.142497   -0.052406
     14          1           0        3.740944   -0.345226   -0.588943
     15          1           0        0.140832    2.174024   -0.562749
     16          1           0       -1.709887    3.553122   -0.218398
     17          1           0       -2.409258    2.211166   -1.175561
     18          1           0       -2.574520    2.222949    0.586849
 ---------------------------------------------------------------------

 SCF Done:  E(UB3LYP) =  -812.688571564     A.U. after   32 cycles

 The electronic state is 2-A.
 Alpha  occ. eigenvalues --  -88.74407 -14.20503 -14.16534 -14.15338 -14.13054
 Alpha  occ. eigenvalues --  -10.10055 -10.08480 -10.06370 -10.04873 -10.04411
 Alpha  occ. eigenvalues --   -7.82742  -5.79225  -5.78664  -5.78226  -0.85580
 Alpha  occ. eigenvalues --   -0.80077  -0.75553  -0.70745  -0.61730  -0.59034
 Alpha  occ. eigenvalues --   -0.56085  -0.48093  -0.43946  -0.42377  -0.35573
 Alpha  occ. eigenvalues --   -0.34371  -0.32189  -0.31828  -0.30435  -0.30072
 Alpha  occ. eigenvalues --   -0.28127  -0.27440  -0.25681  -0.21750  -0.18637
 Alpha  occ. eigenvalues --   -0.17709  -0.16922  -0.13398  -0.12685  -0.11248
 Alpha  occ. eigenvalues --   -0.07963   0.04865
 Alpha virt. eigenvalues --    0.07101   0.08881   0.10552   0.11295   0.11964
 Alpha virt. eigenvalues --    0.12546   0.13147   0.13438   0.13809   0.14635
 Alpha virt. eigenvalues --    0.15398   0.16736   0.17108   0.17602   0.19155

  Beta  occ. eigenvalues --  -88.74351 -14.20507 -14.16356 -14.14640 -14.12743
  Beta  occ. eigenvalues --  -10.10102 -10.08468 -10.06223 -10.04803 -10.04408
  Beta  occ. eigenvalues --   -7.82692  -5.79203  -5.78645  -5.78031  -0.85283
  Beta  occ. eigenvalues --   -0.79806  -0.75037  -0.69994  -0.61469  -0.58887
  Beta  occ. eigenvalues --   -0.55923  -0.47531  -0.43734  -0.42127  -0.35339
  Beta  occ. eigenvalues --   -0.34268  -0.32111  -0.31494  -0.30261  -0.29820
  Beta  occ. eigenvalues --   -0.28048  -0.26750  -0.25372  -0.21249  -0.17624
  Beta  occ. eigenvalues --   -0.17053  -0.16017  -0.12221  -0.11358  -0.10775
  Beta  occ. eigenvalues --   -0.07151
  Beta virt. eigenvalues --    0.07523   0.09053   0.10570   0.11176   0.11347
  Beta virt. eigenvalues --    0.11929   0.12853   0.13456   0.13805   0.13893
  Beta virt. eigenvalues --    0.14924   0.15746   0.16756   0.17183   0.17574

 Mulliken charges and spin densities:
               1          2
     1  C   -0.173876  -0.448722
     2  C   -0.278144   0.033247
     3  N   -0.357742   0.212285
     4  C    0.109472  -0.343313
     5  N   -0.086270   0.296864
     6  S    0.248344   0.146880
     7  N   -0.290285   0.055339
     8  C   -0.377590   0.364873
     9  N   -0.094659   0.042175
    10  C   -0.119003  -0.230263
    11  H    0.157013  -0.033483
    12  H    0.117307   0.054692
    13  H   -0.329066   0.483079
    14  H    0.161988   0.001238
    15  H    0.264149  -0.016271
    16  H   -0.220275   0.331212
    17  H    0.148390   0.001946
    18  H    0.120249   0.048221
 Sum of Mulliken charges =  -1.00000   1.00000

 Dipole moment (field-independent basis, Debye):
    X=             -1.7421    Y=              2.7828    Z=              1.0959  Tot=              3.4612
 Quadrupole moment (field-independent basis, Debye-Ang):
   XX=            -93.0713   YY=            -98.4619   ZZ=            -77.3263
   XY=              1.8697   XZ=              5.3066   YZ=             -1.5154

 Summary of Natural Population Analysis:

                                       Natural Population
                Natural  -----------------------------------------------
    Atom  No    Charge         Core      Valence    Rydberg      Total
 -----------------------------------------------------------------------
      C    1   -0.32042      0.99963     2.31458    0.00620     3.32042
      C    2    0.13810      0.99963     1.84444    0.01784     2.86190
      N    3   -0.26760      0.99971     2.75993    0.00796     3.76760
      C    4    0.03838      0.99950     1.94502    0.01710     2.96162
      N    5   -0.18269      0.99969     2.67066    0.01234     3.68269
      S    6    0.35804      4.99954     2.60556    0.03687     7.64196
      N    7   -0.33775      0.99969     2.82655    0.01151     3.83775
      C    8    0.16233      0.99954     1.82015    0.01798     2.83767
      N    9   -0.32078      0.99967     2.81089    0.01022     3.82078
      C   10   -0.17931      0.99966     2.17012    0.00953     3.17931
      H   11    0.09813      0.00000     0.40102    0.00085     0.40187
      H   12    0.10636      0.00000     0.39247    0.00117     0.39364
      H   13    0.10211      0.00000     0.39492    0.00296     0.39789
      H   14    0.14286      0.00000     0.35484    0.00230     0.35714
      H   15    0.18705      0.00000     0.31030    0.00264     0.31295
      H   16    0.08996      0.00000     0.40913    0.00092     0.41004
      H   17    0.08635      0.00000     0.41217    0.00148     0.41365
      H   18    0.09888      0.00000     0.39954    0.00158     0.40112
 =======================================================================
   * Total *    0.00000     13.99626    26.84230    0.16143    41.00000

 Normal termination of Gaussian 16 at Tue Dec  8 10:54:47 2020.
