 Gaussian 16, Revision A.03,

 -----------------------------------------------------------
 # opt freq B3LYP/6-31G(d) empiricaldispersion=gd3bj scf=xqc
 -----------------------------------------------------------

 -------------------------------
 CID_116764993_JID_5358_neutraal
 -------------------------------
 Symbolic Z-matrix:
 Charge =  0 Multiplicity = 1

 SCF Done:  E(RB3LYP) =  -713.445863631     A.U. after   13 cycles
 SCF Done:  E(RB3LYP) =  -713.450771933     A.U. after   11 cycles
 SCF Done:  E(RB3LYP) =  -713.450600244     A.U. after   11 cycles
 SCF Done:  E(RB3LYP) =  -713.451514775     A.U. after   11 cycles
 SCF Done:  E(RB3LYP) =  -713.451660602     A.U. after   10 cycles
 SCF Done:  E(RB3LYP) =  -713.451857877     A.U. after   10 cycles
 SCF Done:  E(RB3LYP) =  -713.451885708     A.U. after    9 cycles
 SCF Done:  E(RB3LYP) =  -713.451895332     A.U. after    9 cycles
 SCF Done:  E(RB3LYP) =  -713.451899349     A.U. after    8 cycles
 SCF Done:  E(RB3LYP) =  -713.451904957     A.U. after    9 cycles
 SCF Done:  E(RB3LYP) =  -713.456844767     A.U. after   11 cycles
 SCF Done:  E(RB3LYP) =  -713.456801954     A.U. after   10 cycles
 SCF Done:  E(RB3LYP) =  -713.456869955     A.U. after   10 cycles
 SCF Done:  E(RB3LYP) =  -713.456884544     A.U. after    9 cycles
 SCF Done:  E(RB3LYP) =  -713.456886397     A.U. after    7 cycles
 SCF Done:  E(RB3LYP) =  -713.456886691     A.U. after    6 cycles
 Optimization completed.
    -- Stationary point found.
 Normal termination of Gaussian 16 at Thu Dec 10 17:18:24 2020.

 --------------------------------------------------------------------
 #N Geom=AllCheck Guess=TCheck SCRF=Check GenChk RB3LYP/6-31G(d) Freq
 --------------------------------------------------------------------

 Structure from the checkpoint file:  "JID_5358.chk"
 -------------------------------
 CID_116764993_JID_5358_neutraal
 -------------------------------
 Charge =  0 Multiplicity = 1

 SCF Done:  E(RB3LYP) =  -713.456886691     A.U. after    1 cycles

  Exact polarizability: 140.065   2.159 138.033  -1.153   3.011 117.398
 Approx polarizability: 173.973   1.844 182.224  -1.290   1.970 178.917

                      1                      2                      3
                      A                      A                      A
 Frequencies --     50.1686                56.9752                72.3401
 Red. masses --      3.5254                 3.1340                 3.1222
 Frc consts  --      0.0052                 0.0060                 0.0096
 IR Inten    --      0.0912                 0.2863                 0.1424

                      4                      5                      6
                      A                      A                      A
 Frequencies --     78.5673               106.3934               128.5373
 Red. masses --      1.7756                 3.6779                 2.2575
 Frc consts  --      0.0065                 0.0245                 0.0220
 IR Inten    --      0.6199                 0.9362                 5.5442

                      7                      8                      9
                      A                      A                      A
 Frequencies --    151.1338               166.5187               183.2686
 Red. masses --      2.6259                 2.4592                 1.3418
 Frc consts  --      0.0353                 0.0402                 0.0266
 IR Inten    --      0.5026                 4.5916                 0.1973

                     10                     11                     12
                      A                      A                      A
 Frequencies --    210.3964               216.7584               239.2570
 Red. masses --      2.5384                 1.9755                 1.8204
 Frc consts  --      0.0662                 0.0547                 0.0614
 IR Inten    --      1.0145                 3.0231                 4.7190

                     13                     14                     15
                      A                      A                      A
 Frequencies --    252.5964               271.3727               276.3178
 Red. masses --      1.8413                 1.8730                 3.2485
 Frc consts  --      0.0692                 0.0813                 0.1461
 IR Inten    --      0.8746                 2.0907                 3.9979

                     16                     17                     18
                      A                      A                      A
 Frequencies --    299.2484               312.2670               331.8541
 Red. masses --      3.4389                 2.8349                 2.6648
 Frc consts  --      0.1814                 0.1629                 0.1729
 IR Inten    --      1.4021                 5.7376                 1.3289

                     19                     20                     21
                      A                      A                      A
 Frequencies --    356.1630               374.9532               415.3660
 Red. masses --      2.5950                 2.3878                 2.0016
 Frc consts  --      0.1940                 0.1978                 0.2035
 IR Inten    --      9.1952                 1.6656                 0.8604

                     22                     23                     24
                      A                      A                      A
 Frequencies --    453.7472               503.2811               537.9614
 Red. masses --      2.7284                 2.9775                 2.8320
 Frc consts  --      0.3310                 0.4443                 0.4829
 IR Inten    --      1.9094                 0.6676                12.9304

                     25                     26                     27
                      A                      A                      A
 Frequencies --    554.2629               637.6231               697.5334
 Red. masses --      3.3670                 2.3669                 3.0129
 Frc consts  --      0.6094                 0.5670                 0.8637
 IR Inten    --      9.5692                 2.7821                 6.8079

                     28                     29                     30
                      A                      A                      A
 Frequencies --    725.2043               810.3811               822.6300
 Red. masses --      3.3204                 1.6110                 1.5813
 Frc consts  --      1.0289                 0.6233                 0.6305
 IR Inten    --      7.4738                60.6825                 1.0327

                     31                     32                     33
                      A                      A                      A
 Frequencies --    830.7618               865.5806               912.7471
 Red. masses --      1.2595                 3.2701                 2.3888
 Frc consts  --      0.5121                 1.4435                 1.1725
 IR Inten    --      4.1578                16.7536                 6.3740

                     34                     35                     36
                      A                      A                      A
 Frequencies --    925.2333               940.8597               951.8982
 Red. masses --      2.0540                 2.5029                 1.8381
 Frc consts  --      1.0360                 1.3054                 0.9813
 IR Inten    --      3.7437                 7.5008                 4.3139

                     37                     38                     39
                      A                      A                      A
 Frequencies --    989.2055              1008.6819              1033.0048
 Red. masses --      2.1234                 2.3177                 2.0912
 Frc consts  --      1.2242                 1.3894                 1.3148
 IR Inten    --      0.9633                11.3821                 3.2385

                     40                     41                     42
                      A                      A                      A
 Frequencies --   1053.2606              1064.1709              1083.4211
 Red. masses --      1.7011                 2.8531                 2.1220
 Frc consts  --      1.1118                 1.9037                 1.4675
 IR Inten    --      9.1164                46.0861                 2.2914

                     43                     44                     45
                      A                      A                      A
 Frequencies --   1117.4503              1133.7507              1144.9448
 Red. masses --      4.2488                 3.3806                 3.0595
 Frc consts  --      3.1259                 2.5603                 2.3630
 IR Inten    --     75.9203                18.3226                 5.1836

                     46                     47                     48
                      A                      A                      A
 Frequencies --   1147.8966              1162.1246              1168.8949
 Red. masses --      2.6276                 3.1365                 3.0812
 Frc consts  --      2.0399                 2.4958                 2.4804
 IR Inten    --    101.8765                46.0990               139.4039

                     49                     50                     51
                      A                      A                      A
 Frequencies --   1174.2483              1190.9634              1195.9753
 Red. masses --      2.0198                 1.3648                 1.3154
 Frc consts  --      1.6409                 1.1406                 1.1085
 IR Inten    --     28.0410                 8.0617                 7.2153

                     52                     53                     54
                      A                      A                      A
 Frequencies --   1211.6439              1216.4362              1229.4092
 Red. masses --      2.1861                 1.8213                 1.3508
 Frc consts  --      1.8909                 1.5879                 1.2029
 IR Inten    --      6.3828                29.4145                21.2498

                     55                     56                     57
                      A                      A                      A
 Frequencies --   1235.0916              1266.7233              1281.2849
 Red. masses --      1.5833                 1.5643                 1.2829
 Frc consts  --      1.4230                 1.4789                 1.2409
 IR Inten    --     17.8146                25.8808                 9.8183

                     58                     59                     60
                      A                      A                      A
 Frequencies --   1300.7583              1308.4488              1310.6983
 Red. masses --      1.3233                 1.2760                 1.2788
 Frc consts  --      1.3192                 1.2871                 1.2943
 IR Inten    --     13.9870                16.5123                 9.3122

                     61                     62                     63
                      A                      A                      A
 Frequencies --   1344.4967              1359.2577              1374.6028
 Red. masses --      1.2565                 1.2683                 1.4043
 Frc consts  --      1.3382                 1.3807                 1.5633
 IR Inten    --     12.7287                19.0495                 3.7726

                     64                     65                     66
                      A                      A                      A
 Frequencies --   1385.8722              1406.3984              1409.0689
 Red. masses --      1.5250                 1.3055                 1.4761
 Frc consts  --      1.7257                 1.5214                 1.7268
 IR Inten    --      0.5950                 8.8175                21.6666

                     67                     68                     69
                      A                      A                      A
 Frequencies --   1417.7125              1425.5979              1443.8659
 Red. masses --      1.3445                 1.3132                 1.3379
 Frc consts  --      1.5922                 1.5724                 1.6433
 IR Inten    --      3.5445                22.5829                13.2558

                     70                     71                     72
                      A                      A                      A
 Frequencies --   1447.2114              1497.4600              1500.5056
 Red. masses --      1.3184                 1.1207                 1.1266
 Frc consts  --      1.6269                 1.4806                 1.4945
 IR Inten    --     11.4723                 5.1520                 1.1548

                     73                     74                     75
                      A                      A                      A
 Frequencies --   1503.2859              1510.7709              1514.7607
 Red. masses --      1.1333                 1.1198                 1.0517
 Frc consts  --      1.5089                 1.5058                 1.4217
 IR Inten    --      8.7832                14.6782                 7.0377

                     76                     77                     78
                      A                      A                      A
 Frequencies --   1517.6468              1522.8742              1526.6544
 Red. masses --      1.0755                 1.0765                 1.0784
 Frc consts  --      1.4595                 1.4709                 1.4808
 IR Inten    --      0.9836                 6.6018                 0.8164

                     79                     80                     81
                      A                      A                      A
 Frequencies --   1528.0470              1531.5133              1532.5044
 Red. masses --      1.0617                 1.0655                 1.0958
 Frc consts  --      1.4606                 1.4725                 1.5163
 IR Inten    --     10.9176                 5.7091                16.9461

                     82                     83                     84
                      A                      A                      A
 Frequencies --   1537.0007              1549.9732              1553.9507
 Red. masses --      1.1022                 1.0840                 1.0789
 Frc consts  --      1.5341                 1.5343                 1.5350
 IR Inten    --      4.8599                 4.2683                 6.9498

                     85                     86                     87
                      A                      A                      A
 Frequencies --   1566.9150              2936.5177              2990.2615
 Red. masses --      1.0709                 1.0736                 1.0531
 Frc consts  --      1.5491                 5.4545                 5.5482
 IR Inten    --      2.0858                72.2059                23.9117

                     88                     89                     90
                      A                      A                      A
 Frequencies --   2990.7915              2999.7131              3004.2254
 Red. masses --      1.0701                 1.0500                 1.0696
 Frc consts  --      5.6397                 5.5665                 5.6879
 IR Inten    --     47.7755               105.8068                60.8876

                     91                     92                     93
                      A                      A                      A
 Frequencies --   3031.7291              3042.1355              3044.1692
 Red. masses --      1.0378                 1.1038                 1.0851
 Frc consts  --      5.6201                 6.0185                 5.9246
 IR Inten    --     78.0777                72.4158                 5.1103

                     94                     95                     96
                      A                      A                      A
 Frequencies --   3047.0115              3052.1306              3055.9259
 Red. masses --      1.0440                 1.0901                 1.0702
 Frc consts  --      5.7106                 5.9832                 5.8883
 IR Inten    --     24.5878                24.7807                 8.2290

                     97                     98                     99
                      A                      A                      A
 Frequencies --   3058.9233              3087.6033              3093.2025
 Red. masses --      1.0774                 1.0674                 1.0950
 Frc consts  --      5.9397                 5.9954                 6.1730
 IR Inten    --     67.6167                 5.3857                50.3815

                    100                    101                    102
                      A                      A                      A
 Frequencies --   3101.8286              3104.7287              3112.4224
 Red. masses --      1.0867                 1.0944                 1.0994
 Frc consts  --      6.1604                 6.2153                 6.2748
 IR Inten    --     55.3326                28.9666                44.9793

                    103                    104                    105
                      A                      A                      A
 Frequencies --   3119.3938              3128.1757              3133.4201
 Red. masses --      1.1000                 1.1049                 1.1033
 Frc consts  --      6.3063                 6.3705                 6.3821
 IR Inten    --     19.1713                34.7433                29.2449

                    106                    107                    108
                      A                      A                      A
 Frequencies --   3136.5911              3139.4195              3487.0746
 Red. masses --      1.1028                 1.0975                 1.0733
 Frc consts  --      6.3926                 6.3731                 7.6896
 IR Inten    --     14.4830                28.5228                 1.8916

 - Thermochemistry -
 -------------------
 Temperature   298.150 Kelvin.  Pressure   1.00000 Atm.
 Atom     1 has atomic number  6 and mass  12.00000

 Molecular mass:   217.16779 amu.
 Principal axes and moments of inertia in atomic units:
                           1         2         3
     Eigenvalues --  2644.335353890.315265374.71856
           X            0.99930   0.03709  -0.00378
           Y           -0.03705   0.99926   0.01017
           Z            0.00416  -0.01002   0.99994
 This molecule is an asymmetric top.
 Rotational symmetry number  1.
 Warning -- assumption of classical behavior for rotation
           may cause significant error
 Rotational temperatures (Kelvin)      0.03275     0.02226     0.01612
 Rotational constants (GHZ):           0.68249     0.46391     0.33578
 Zero-point vibrational energy     906494.2 (Joules/Mol)
                                  216.65730 (Kcal/Mol)
 Warning -- explicit consideration of  25 degrees of freedom as
           vibrations may cause significant error
 Vibrational temperatures:     72.18    81.97   104.08   113.04   153.08
          (Kelvin)            184.94   217.45   239.58   263.68   302.71
                              311.87   344.24   363.43   390.44   397.56
                              430.55   449.28   477.46   512.44   539.47
                              597.62   652.84   724.11   774.01   797.46
                              917.40  1003.59  1043.41  1165.96  1183.58
                             1195.28  1245.38  1313.24  1331.20  1353.69
                             1369.57  1423.25  1451.27  1486.26  1515.41
                             1531.10  1558.80  1607.76  1631.21  1647.32
                             1651.57  1672.04  1681.78  1689.48  1713.53
                             1720.74  1743.29  1750.18  1768.85  1777.02
                             1822.53  1843.48  1871.50  1882.57  1885.80
                             1934.43  1955.67  1977.75  1993.96  2023.49
                             2027.34  2039.77  2051.12  2077.40  2082.21
                             2154.51  2158.89  2162.89  2173.66  2179.40
                             2183.56  2191.08  2196.52  2198.52  2203.51
                             2204.93  2211.40  2230.07  2235.79  2254.44
                             4224.99  4302.32  4303.08  4315.92  4322.41
                             4361.98  4376.95  4379.88  4383.97  4391.34
                             4396.80  4401.11  4442.37  4450.43  4462.84
                             4467.01  4478.08  4488.11  4500.75  4508.29
                             4512.86  4516.92  5017.12

 Zero-point correction=                           0.345265 (Hartree/Particle)
 Thermal correction to Energy=                    0.362053
 Thermal correction to Enthalpy=                  0.362997
 Thermal correction to Gibbs Free Energy=         0.301402
 Sum of electronic and zero-point Energies=           -713.111621
 Sum of electronic and thermal Energies=              -713.094834
 Sum of electronic and thermal Enthalpies=            -713.093890
 Sum of electronic and thermal Free Energies=         -713.155485

                     E (Thermal)             CV                S
                      KCal/Mol        Cal/Mol-Kelvin    Cal/Mol-Kelvin
 Total                  227.192             62.868            129.638
 Electronic               0.000              0.000              0.000
 Translational            0.889              2.981             42.030
 Rotational               0.889              2.981             32.381
 Vibrational            225.414             56.907             55.228
 Vibration     1          0.595              1.978              4.811
 Vibration     2          0.596              1.975              4.559
 Vibration     3          0.598              1.967              4.089
 Vibration     4          0.600              1.964              3.926
 Vibration     5          0.605              1.944              3.334
 Vibration     6          0.611              1.925              2.968
 Vibration     7          0.619              1.901              2.658
 Vibration     8          0.624              1.884              2.474
 Vibration     9          0.631              1.863              2.295
 Vibration    10          0.643              1.825              2.040
 Vibration    11          0.646              1.816              1.986
 Vibration    12          0.657              1.780              1.808
 Vibration    13          0.664              1.758              1.712
 Vibration    14          0.675              1.726              1.587
 Vibration    15          0.678              1.717              1.556
 Vibration    16          0.692              1.675              1.421
 Vibration    17          0.701              1.650              1.350
 Vibration    18          0.714              1.612              1.251
 Vibration    19          0.732              1.563              1.139
 Vibration    20          0.746              1.523              1.059
 Vibration    21          0.779              1.437              0.908
 Vibration    22          0.812              1.353              0.785
 Vibration    23          0.859              1.243              0.650
 Vibration    24          0.893              1.166              0.570
 Vibration    25          0.910              1.130              0.535

 Optimization completed.
    -- Stationary point found.
 Normal termination of Gaussian 16 at Thu Dec 10 17:33:11 2020.

 ----------------------------------------------------------------------
 # B3LYP/6-311++G(d,p) empiricaldispersion=gd3bj scf=xqc pop=npa geom=c
 heck
 ----------------------------------------------------------------------

 ---------------------------------------
 CID_116764993_JID_5358_Energie_neutraal
 ---------------------------------------
 Structure from the checkpoint file:  "JID_5358.chk"
 Charge =  0 Multiplicity = 1

 SCF Done:  E(RB3LYP) =  -713.666910422     A.U. after   14 cycles
 Normal termination of Gaussian 16 at Thu Dec 10 17:39:02 2020.

 ----------------------------------------------------------------------
 # B3LYP/6-311++G(d,p) empiricaldispersion=gd3bj scf=xqc pop=npa geom=c
 heck
 ----------------------------------------------------------------------

 -------------------------------------
 CID_116764993_JID_5358_Energie_kation
 -------------------------------------
 Structure from the checkpoint file:  "JID_5358.chk"
 Charge =  1 Multiplicity = 2

 SCF Done:  E(UB3LYP) =  -713.375039471     A.U. after   23 cycles
 Normal termination of Gaussian 16 at Thu Dec 10 17:53:57 2020.
 Gaussian 16:  ES64L-G16RevA.03 25-Dec-2016

 ----------------------------------------------------------------------
 # B3LYP/6-311++G(d,p) empiricaldispersion=gd3bj scf=xqc pop=npa geom=c
 heck
 ----------------------------------------------------------------------

 ------------------------------------
 CID_116764993_JID_5358_Energie_anion
 ------------------------------------
 Structure from the checkpoint file:  "JID_5358.chk"
 Charge = -1 Multiplicity = 2

                         Standard orientation:
 ---------------------------------------------------------------------
 Center     Atomic      Atomic             Coordinates (Angstroms)
 Number     Number       Type             X           Y           Z
 ---------------------------------------------------------------------
      1          6           0       -3.069721   -2.904517    0.485316
      2          6           0       -2.484687   -1.896998   -0.499288
      3          7           0       -1.385580   -1.160287    0.120244
      4          6           0       -0.781114   -0.123670   -0.722077
      5          6           0       -1.591000    1.172370   -0.707559
      6          8           0       -1.649687    1.672875    0.621799
      7          6           0       -2.512444    2.783519    0.748487
      8          6           0        0.740556    0.023447   -0.395836
      9          6           0        1.453733   -1.234214   -0.924362
     10          6           0        2.918197   -1.277155   -0.500243
     11          8           0        3.052486   -1.227059    0.914974
     12          6           0        2.524713   -0.014226    1.427105
     13          6           0        1.034689    0.145238    1.110166
     14          8           0        1.281517    1.103064   -1.184917
     15          6           0        1.354510    2.402107   -0.623192
     16          1           0       -2.289497   -3.583496    0.843637
     17          1           0       -3.864401   -3.494834    0.016761
     18          1           0       -3.501521   -2.395965    1.356566
     19          1           0       -2.079425   -2.424766   -1.372083
     20          1           0       -3.293442   -1.243024   -0.877714
     21          1           0       -1.719138   -0.713838    0.973591
     22          1           0       -0.817998   -0.478158   -1.760567
     23          1           0       -1.155244    1.917457   -1.387092
     24          1           0       -2.612422    0.959379   -1.063486
     25          1           0       -2.175886    3.629664    0.129392
     26          1           0       -3.542645    2.527982    0.454739
     27          1           0       -2.503049    3.084046    1.799166
     28          1           0        0.928206   -2.112661   -0.537015
     29          1           0        1.385361   -1.242209   -2.019346
     30          1           0        3.392153   -2.210551   -0.818499
     31          1           0        3.462454   -0.436313   -0.959302
     32          1           0        3.103681    0.835578    1.029388
     33          1           0        2.679903   -0.046601    2.510124
     34          1           0        0.652441    1.085772    1.515447
     35          1           0        0.492860   -0.665697    1.605425
     36          1           0        0.427180    2.709352   -0.128036
     37          1           0        2.175692    2.495180    0.100148
     38          1           0        1.554683    3.079270   -1.458891
 ---------------------------------------------------------------------

 SCF Done:  E(UB3LYP) =  -713.653717227     A.U. after   25 cycles

 The electronic state is 2-A.
 Alpha  occ. eigenvalues --  -19.03149 -19.03078 -19.02713 -14.19837 -10.13470
 Alpha  occ. eigenvalues --  -10.12260 -10.12200 -10.11498 -10.11102 -10.10776
 Alpha  occ. eigenvalues --  -10.10342 -10.09634 -10.06902 -10.06776 -10.06537
 Alpha  occ. eigenvalues --   -0.94897  -0.94359  -0.93361  -0.81412  -0.70960
 Alpha  occ. eigenvalues --   -0.67291  -0.66430  -0.62659  -0.60319  -0.57140
 Alpha  occ. eigenvalues --   -0.55051  -0.53927  -0.51450  -0.49219  -0.45646
 Alpha  occ. eigenvalues --   -0.41753  -0.40286  -0.39347  -0.38804  -0.38225
 Alpha  occ. eigenvalues --   -0.37574  -0.36674  -0.36353  -0.35639  -0.34441
 Alpha  occ. eigenvalues --   -0.34147  -0.32509  -0.30979  -0.30072  -0.29731
 Alpha  occ. eigenvalues --   -0.29342  -0.28221  -0.27524  -0.26669  -0.26510
 Alpha  occ. eigenvalues --   -0.26090  -0.25517  -0.23897  -0.23076  -0.21689
 Alpha  occ. eigenvalues --   -0.20500  -0.17529  -0.16632  -0.15976  -0.12997
 Alpha  occ. eigenvalues --    0.04342
 Alpha virt. eigenvalues --    0.06386   0.06941   0.07414   0.08025   0.08713
 Alpha virt. eigenvalues --    0.08896   0.09487   0.09794   0.10503   0.10790
 Alpha virt. eigenvalues --    0.11285   0.11646   0.12223   0.12376   0.13030

  Beta  occ. eigenvalues --  -19.03147 -19.03069 -19.02709 -14.19832 -10.13470
  Beta  occ. eigenvalues --  -10.12252 -10.12197 -10.11477 -10.11075 -10.10716
  Beta  occ. eigenvalues --  -10.10336 -10.09613 -10.06899 -10.06772 -10.06511
  Beta  occ. eigenvalues --   -0.94892  -0.94346  -0.93352  -0.81398  -0.70948
  Beta  occ. eigenvalues --   -0.67281  -0.66401  -0.62612  -0.60284  -0.57066
  Beta  occ. eigenvalues --   -0.55033  -0.53872  -0.51386  -0.49182  -0.45626
  Beta  occ. eigenvalues --   -0.41737  -0.40228  -0.39326  -0.38785  -0.38202
  Beta  occ. eigenvalues --   -0.37541  -0.36645  -0.36340  -0.35600  -0.34409
  Beta  occ. eigenvalues --   -0.34124  -0.32476  -0.30957  -0.30042  -0.29710
  Beta  occ. eigenvalues --   -0.29326  -0.28196  -0.27485  -0.26645  -0.26475
  Beta  occ. eigenvalues --   -0.26077  -0.25488  -0.23875  -0.23026  -0.21671
  Beta  occ. eigenvalues --   -0.20486  -0.17515  -0.16608  -0.15964  -0.12983
  Beta virt. eigenvalues --    0.06446   0.07117   0.07415   0.07780   0.08567
  Beta virt. eigenvalues --    0.08944   0.09406   0.09796   0.10174   0.10864
  Beta virt. eigenvalues --    0.11020   0.11525   0.11967   0.12510   0.12790

 Mulliken charges and spin densities:
               1          2
     1  C    0.517271  -1.085652
     2  C    0.120968  -0.177459
     3  N    0.151088  -0.010082
     4  C   -0.036859   0.039679
     5  C   -0.704348  -0.288805
     6  O   -0.186835   0.079930
     7  C    1.352943  -1.565592
     8  C   -0.483707   0.468320
     9  C    0.050271  -0.098473
    10  C   -0.462684  -0.117408
    11  O   -0.128424   0.011698
    12  C   -0.170524  -0.343365
    13  C   -0.398805  -0.038325
    14  O    0.007107   0.019403
    15  C    0.555130  -0.757435
    16  H    0.017679   0.128940
    17  H   -0.217238   0.350180
    18  H   -0.226301   0.360455
    19  H   -0.041208   0.182033
    20  H   -0.182582   0.308765
    21  H    0.337872  -0.107997
    22  H   -0.039321   0.248376
    23  H    0.241157  -0.053194
    24  H   -0.236588   0.399303
    25  H   -0.498605   0.630723
    26  H   -0.475080   0.618229
    27  H   -0.472026   0.617081
    28  H    0.246585  -0.035235
    29  H    0.075556   0.063433
    30  H    0.108954   0.081607
    31  H    0.138587   0.022343
    32  H    0.133810  -0.016136
    33  H    0.029751   0.153383
    34  H    0.036442   0.143757
    35  H    0.189147  -0.012377
    36  H    0.065058   0.081491
    37  H   -0.097651   0.224854
    38  H   -0.316592   0.473549
 Sum of Mulliken charges =  -1.00000   1.00000

 Dipole moment (field-independent basis, Debye):
    X=              6.6503    Y=             -3.9960    Z=             -1.0129  Tot=              7.8243
 Quadrupole moment (field-independent basis, Debye-Ang):
   XX=           -169.5840   YY=           -159.4208   ZZ=           -127.4130
   XY=              4.9920   XZ=              0.8417   YZ=              0.6285

 Summary of Natural Population Analysis:

                                       Natural Population
                Natural  -----------------------------------------------
    Atom  No    Charge         Core      Valence    Rydberg      Total
 -----------------------------------------------------------------------
      C    1   -0.28754      0.99967     2.28232    0.00555     3.28754
      C    2   -0.08359      0.99964     2.07384    0.01010     3.08359
      N    3   -0.34906      0.99973     2.83845    0.01088     3.84906
      C    4   -0.02602      0.99952     2.00974    0.01676     3.02602
      C    5   -0.01708      0.99954     2.00495    0.01259     3.01708
      O    6   -0.30767      0.99988     3.29792    0.00986     4.30767
      C    7   -0.09638      0.99962     2.08727    0.00949     3.09638
      C    8    0.15529      0.99947     1.82737    0.01786     2.84471
      C    9   -0.21283      0.99956     2.20463    0.00864     3.21283
      C   10   -0.00922      0.99958     1.99783    0.01181     3.00922
      O   11   -0.30157      0.99989     3.29302    0.00866     4.30157
      C   12   -0.01021      0.99958     1.99704    0.01359     3.01021
      C   13   -0.23210      0.99956     2.22296    0.00958     3.23210
      O   14   -0.31806      0.99987     3.30727    0.01093     4.31806
      C   15   -0.10265      0.99958     2.09301    0.01006     3.10265
      H   16    0.09807      0.00000     0.40086    0.00107     0.40193
      H   17    0.09985      0.00000     0.39918    0.00097     0.40015
      H   18    0.09718      0.00000     0.40162    0.00120     0.40282
      H   19    0.08689      0.00000     0.41180    0.00131     0.41311
      H   20    0.08087      0.00000     0.41719    0.00194     0.41913
      H   21    0.17752      0.00000     0.31859    0.00389     0.32248
      H   22    0.09759      0.00000     0.40030    0.00211     0.40241
      H   23    0.08780      0.00000     0.41058    0.00162     0.41220
      H   24    0.08668      0.00000     0.41153    0.00179     0.41332
      H   25    0.08020      0.00000     0.41717    0.00263     0.41980
      H   26    0.08277      0.00000     0.41442    0.00281     0.41723
      H   27    0.09182      0.00000     0.40644    0.00174     0.40818
      H   28    0.11048      0.00000     0.38820    0.00131     0.38952
      H   29    0.10275      0.00000     0.39603    0.00122     0.39725
      H   30    0.08799      0.00000     0.41087    0.00114     0.41201
      H   31    0.08031      0.00000     0.41814    0.00155     0.41969
      H   32    0.07612      0.00000     0.42234    0.00155     0.42388
      H   33    0.08997      0.00000     0.40896    0.00108     0.41003
      H   34    0.11483      0.00000     0.38353    0.00164     0.38517
      H   35    0.11323      0.00000     0.38515    0.00162     0.38677
      H   36    0.08859      0.00000     0.40933    0.00207     0.41141
      H   37    0.07660      0.00000     0.42199    0.00141     0.42340
      H   38    0.09059      0.00000     0.40835    0.00106     0.40941
 =======================================================================
   * Total *    0.00000     14.99469    44.80023    0.20507    60.00000

 Normal termination of Gaussian 16 at Thu Dec 10 18:07:07 2020.
