 Gaussian 16, Revision A.03,

 -----------------------------------------------------------
 # opt freq B3LYP/6-31G(d) empiricaldispersion=gd3bj scf=xqc
 -----------------------------------------------------------

 ------------------------------
 CID_88789726_JID_6899_neutraal
 ------------------------------
 Symbolic Z-matrix:
 Charge =  0 Multiplicity = 1

 SCF Done:  E(RB3LYP) =  -657.618392747     A.U. after   14 cycles
 SCF Done:  E(RB3LYP) =  -657.620973716     A.U. after   13 cycles
 SCF Done:  E(RB3LYP) =  -657.621078242     A.U. after   13 cycles
 SCF Done:  E(RB3LYP) =  -657.622196239     A.U. after   13 cycles
 SCF Done:  E(RB3LYP) =  -657.622963273     A.U. after   12 cycles
 SCF Done:  E(RB3LYP) =  -657.622385247     A.U. after   12 cycles
 SCF Done:  E(RB3LYP) =  -657.622995626     A.U. after   12 cycles
 SCF Done:  E(RB3LYP) =  -657.623265825     A.U. after   12 cycles
 SCF Done:  E(RB3LYP) =  -657.623225864     A.U. after   12 cycles
 SCF Done:  E(RB3LYP) =  -657.623221373     A.U. after   12 cycles
 SCF Done:  E(RB3LYP) =  -657.623421488     A.U. after    6 cycles
 SCF Done:  E(RB3LYP) =  -657.623424346     A.U. after    9 cycles
 SCF Done:  E(RB3LYP) =  -657.623424618     A.U. after    7 cycles
 SCF Done:  E(RB3LYP) =  -657.623424692     A.U. after    7 cycles
 SCF Done:  E(RB3LYP) =  -657.623424703     A.U. after    7 cycles
 Optimization completed.
    -- Stationary point found.
 Normal termination of Gaussian 16 at Fri Dec 11 01:10:39 2020.

 --------------------------------------------------------------------
 #N Geom=AllCheck Guess=TCheck SCRF=Check GenChk RB3LYP/6-31G(d) Freq
 --------------------------------------------------------------------

 Structure from the checkpoint file:  "JID_6899.chk"
 ------------------------------
 CID_88789726_JID_6899_neutraal
 ------------------------------
 Charge =  0 Multiplicity = 1

 SCF Done:  E(RB3LYP) =  -657.623424703     A.U. after    1 cycles

  Exact polarizability: 167.862  13.707 162.204  20.995 -13.349 119.300
 Approx polarizability: 231.615  28.087 256.039  41.091 -31.591 194.013

                      1                      2                      3
                      A                      A                      A
 Frequencies --     20.8900                57.3927                69.3022
 Red. masses --      4.4517                 3.6940                 3.7330
 Frc consts  --      0.0011                 0.0072                 0.0106
 IR Inten    --      0.1226                 0.1587                 0.2334

                      4                      5                      6
                      A                      A                      A
 Frequencies --     82.3857               109.5772               133.1525
 Red. masses --      4.0554                 3.4600                 3.8835
 Frc consts  --      0.0162                 0.0245                 0.0406
 IR Inten    --      0.2483                 0.3113                 0.0831

                      7                      8                      9
                      A                      A                      A
 Frequencies --    165.8059               183.9401               201.4640
 Red. masses --      1.2000                 3.7114                 3.1657
 Frc consts  --      0.0194                 0.0740                 0.0757
 IR Inten    --      0.8698                 0.5188                 0.5694

                     10                     11                     12
                      A                      A                      A
 Frequencies --    214.6566               239.2712               256.8093
 Red. masses --      2.8123                 1.5570                 2.3936
 Frc consts  --      0.0763                 0.0525                 0.0930
 IR Inten    --      0.7762                 0.2001                 2.2162

                     13                     14                     15
                      A                      A                      A
 Frequencies --    273.9382               291.1381               332.7905
 Red. masses --      2.4371                 1.2677                 2.8133
 Frc consts  --      0.1078                 0.0633                 0.1836
 IR Inten    --      5.3595                80.0487                 9.7409

                     16                     17                     18
                      A                      A                      A
 Frequencies --    351.7793               382.2847               397.4188
 Red. masses --      2.1986                 2.8893                 3.1701
 Frc consts  --      0.1603                 0.2488                 0.2950
 IR Inten    --      3.0642                 0.3298                10.5839

                     19                     20                     21
                      A                      A                      A
 Frequencies --    420.0436               441.0376               501.3583
 Red. masses --      2.9569                 3.4425                 3.2182
 Frc consts  --      0.3074                 0.3945                 0.4766
 IR Inten    --      0.1771                 2.3633                 2.2484

                     22                     23                     24
                      A                      A                      A
 Frequencies --    524.6274               544.0621               576.7388
 Red. masses --      3.3792                 3.9418                 6.3180
 Frc consts  --      0.5480                 0.6875                 1.2382
 IR Inten    --      0.2815                 6.0701                 7.1534

                     25                     26                     27
                      A                      A                      A
 Frequencies --    588.8079               612.1613               638.9515
 Red. masses --      3.3376                 1.2197                 5.9636
 Frc consts  --      0.6818                 0.2693                 1.4345
 IR Inten    --      9.2959                59.5031                 0.4601

                     28                     29                     30
                      A                      A                      A
 Frequencies --    643.1257               661.5492               712.8607
 Red. masses --      1.2527                 2.6470                 1.7952
 Frc consts  --      0.3053                 0.6826                 0.5375
 IR Inten    --     36.9976                 3.1311                28.2742

                     31                     32                     33
                      A                      A                      A
 Frequencies --    732.9664               758.1494               783.9199
 Red. masses --      1.4124                 2.6454                 2.3316
 Frc consts  --      0.4471                 0.8959                 0.8442
 IR Inten    --      5.8401                15.5337                 4.0985

                     34                     35                     36
                      A                      A                      A
 Frequencies --    799.5441               857.0878               861.0109
 Red. masses --      2.9544                 1.2965                 2.6901
 Frc consts  --      1.1128                 0.5611                 1.1750
 IR Inten    --      4.8901                 1.0157                 1.6999

                     37                     38                     39
                      A                      A                      A
 Frequencies --    901.7054               923.0540               929.6130
 Red. masses --      2.1092                 1.3474                 1.5812
 Frc consts  --      1.0104                 0.6764                 0.8051
 IR Inten    --     11.6195                35.5708                 5.3021

                     40                     41                     42
                      A                      A                      A
 Frequencies --    947.5116               961.8887               965.1773
 Red. masses --      2.1989                 1.8967                 1.3790
 Frc consts  --      1.1631                 1.0340                 0.7569
 IR Inten    --     14.8145                 3.0064                 0.3104

                     43                     44                     45
                      A                      A                      A
 Frequencies --    989.5899              1016.1388              1024.3300
 Red. masses --      1.2434                 1.8156                 6.2023
 Frc consts  --      0.7174                 1.1045                 3.8343
 IR Inten    --      0.4224                 1.9262                 0.0927

                     46                     47                     48
                      A                      A                      A
 Frequencies --   1033.4194              1063.2006              1067.7118
 Red. masses --      1.8894                 2.0879                 1.8520
 Frc consts  --      1.1888                 1.3906                 1.2439
 IR Inten    --      3.0849                 3.5179                14.1855

                     49                     50                     51
                      A                      A                      A
 Frequencies --   1093.1387              1108.3328              1113.6986
 Red. masses --      1.5638                 2.3740                 1.5727
 Frc consts  --      1.1010                 1.7182                 1.1493
 IR Inten    --      0.2577                13.5547                22.1819

                     52                     53                     54
                      A                      A                      A
 Frequencies --   1146.8756              1192.4970              1194.8795
 Red. masses --      1.9595                 1.0965                 2.4580
 Frc consts  --      1.5185                 0.9187                 2.0677
 IR Inten    --     52.8410                 0.0336                28.1203

                     55                     56                     57
                      A                      A                      A
 Frequencies --   1217.4446              1239.7864              1254.1057
 Red. masses --      1.1532                 2.5565                 1.5343
 Frc consts  --      1.0070                 2.3152                 1.4217
 IR Inten    --      0.5402                 1.0308                29.2956

                     58                     59                     60
                      A                      A                      A
 Frequencies --   1299.7474              1324.2383              1343.2836
 Red. masses --      1.7780                 1.7906                 1.3722
 Frc consts  --      1.7697                 1.8501                 1.4588
 IR Inten    --      3.3698                 1.1462                23.2442

                     61                     62                     63
                      A                      A                      A
 Frequencies --   1367.0403              1377.4789              1394.6082
 Red. masses --      3.5135                 1.3054                 1.5335
 Frc consts  --      3.8686                 1.4593                 1.7572
 IR Inten    --      3.0326                 4.4234                31.1699

                     64                     65                     66
                      A                      A                      A
 Frequencies --   1407.2266              1434.1726              1450.7450
 Red. masses --      1.3967                 1.2254                 1.2206
 Frc consts  --      1.6296                 1.4851                 1.5136
 IR Inten    --      5.3631                 5.3022                10.7592

                     67                     68                     69
                      A                      A                      A
 Frequencies --   1477.0500              1504.8830              1505.3344
 Red. masses --      1.2116                 1.1715                 1.7462
 Frc consts  --      1.5573                 1.5631                 2.3313
 IR Inten    --      1.3836                 2.3169                 6.3069

                     70                     71                     72
                      A                      A                      A
 Frequencies --   1515.2901              1519.1047              1521.3905
 Red. masses --      1.0554                 1.1070                 1.0751
 Frc consts  --      1.4278                 1.5051                 1.4661
 IR Inten    --      6.4150                 4.1066                 5.7909

                     73                     74                     75
                      A                      A                      A
 Frequencies --   1527.1395              1549.8632              1647.0113
 Red. masses --      1.0581                 2.2281                 5.4925
 Frc consts  --      1.4539                 3.1533                 8.7784
 IR Inten    --      3.3151                11.5019                 0.4549

                     76                     77                     78
                      A                      A                      A
 Frequencies --   1668.8547              1723.4522              2228.4863
 Red. masses --      5.5888                 4.6667                 5.9510
 Frc consts  --      9.1708                 8.1670                17.4125
 IR Inten    --      5.3550                13.0969                 0.7840

                     79                     80                     81
                      A                      A                      A
 Frequencies --   3049.2645              3062.5479              3064.8656
 Red. masses --      1.0756                 1.0474                 1.0537
 Frc consts  --      5.8925                 5.7880                 5.8314
 IR Inten    --      6.5210                23.7182                39.2006

                     82                     83                     84
                      A                      A                      A
 Frequencies --   3067.0464              3102.6988              3127.5889
 Red. masses --      1.0430                 1.1025                 1.1013
 Frc consts  --      5.7808                 6.2535                 6.3470
 IR Inten    --     14.1221                10.6717                25.5736

                     85                     86                     87
                      A                      A                      A
 Frequencies --   3131.0923              3153.4458              3155.9929
 Red. masses --      1.1013                 1.0601                 1.0979
 Frc consts  --      6.3611                 6.2112                 6.4427
 IR Inten    --     17.2858                10.8179                 6.8043

                     88                     89                     90
                      A                      A                      A
 Frequencies --   3162.8952              3176.2991              3183.5311
 Red. masses --      1.1015                 1.0846                 1.0878
 Frc consts  --      6.4925                 6.4473                 6.4957
 IR Inten    --     16.1416                 3.0811                 3.5695

                     91                     92                     93
                      A                      A                      A
 Frequencies --   3193.6448              3205.2843              3220.0882
 Red. masses --      1.0924                 1.0964                 1.0933
 Frc consts  --      6.5646                 6.6367                 6.6793
 IR Inten    --     36.1272                35.7468                10.1001

                     94                     95                     96
                      A                      A                      A
 Frequencies --   3229.6540              3493.9281              3733.2154
 Red. masses --      1.1156                 1.1601                 1.0662
 Frc consts  --      6.8561                 8.3436                 8.7554
 IR Inten    --     20.0187                62.0415                15.7153

 - Thermochemistry -
 -------------------
 Temperature   298.150 Kelvin.  Pressure   1.00000 Atm.
 Atom     1 has atomic number  6 and mass  12.00000

 Molecular mass:   214.13577 amu.
 Principal axes and moments of inertia in atomic units:
                           1         2         3
     Eigenvalues --  2211.242394435.387905389.02794
           X            0.99999  -0.00444   0.00115
           Y            0.00444   0.99999  -0.00208
           Z           -0.00114   0.00209   1.00000
 This molecule is an asymmetric top.
 Rotational symmetry number  1.
 Warning -- assumption of classical behavior for rotation
           may cause significant error
 Rotational temperatures (Kelvin)      0.03917     0.01953     0.01607
 Rotational constants (GHZ):           0.81617     0.40690     0.33489
 Zero-point vibrational energy     760260.2 (Joules/Mol)
                                  181.70655 (Kcal/Mol)
 Warning -- explicit consideration of  26 degrees of freedom as
           vibrations may cause significant error
 Vibrational temperatures:     30.06    82.58    99.71   118.53   157.66
          (Kelvin)            191.58   238.56   264.65   289.86   308.84
                              344.26   369.49   394.14   418.88   478.81
                              506.13   550.02   571.80   604.35   634.55
                              721.34   754.82   782.78   829.80   847.16
                              880.76   919.31   925.31   951.82  1025.65
                             1054.58  1090.81  1127.89  1150.37  1233.16
                             1238.80  1297.35  1328.07  1337.51  1363.26
                             1383.94  1388.67  1423.80  1462.00  1473.78
                             1486.86  1529.71  1536.20  1572.78  1594.64
                             1602.36  1650.10  1715.74  1719.17  1751.63
                             1783.78  1804.38  1870.05  1905.28  1932.69
                             1966.87  1981.88  2006.53  2024.69  2063.45
                             2087.30  2125.15  2165.19  2165.84  2180.16
                             2185.65  2188.94  2197.21  2229.91  2369.68
                             2401.11  2479.66  3206.29  4387.21  4406.32
                             4409.66  4412.80  4464.09  4499.90  4504.94
                             4537.11  4540.77  4550.70  4569.99  4580.39
                             4594.94  4611.69  4632.99  4646.75  5026.98
                             5371.26

 Zero-point correction=                           0.289568 (Hartree/Particle)
 Thermal correction to Energy=                    0.306052
 Thermal correction to Enthalpy=                  0.306996
 Thermal correction to Gibbs Free Energy=         0.245722
 Sum of electronic and zero-point Energies=           -657.333857
 Sum of electronic and thermal Energies=              -657.317373
 Sum of electronic and thermal Enthalpies=            -657.316429
 Sum of electronic and thermal Free Energies=         -657.377702

                     E (Thermal)             CV                S
                      KCal/Mol        Cal/Mol-Kelvin    Cal/Mol-Kelvin
 Total                  192.050             63.844            128.962
 Electronic               0.000              0.000              0.000
 Translational            0.889              2.981             41.988
 Rotational               0.889              2.981             32.336
 Vibrational            190.273             57.883             54.638
 Vibration     1          0.593              1.986              6.548
 Vibration     2          0.596              1.975              4.545
 Vibration     3          0.598              1.969              4.173
 Vibration     4          0.600              1.961              3.833
 Vibration     5          0.606              1.942              3.276
 Vibration     6          0.613              1.920              2.900
 Vibration     7          0.624              1.884              2.482
 Vibration     8          0.631              1.862              2.288
 Vibration     9          0.638              1.838              2.120
 Vibration    10          0.645              1.819              2.004
 Vibration    11          0.657              1.780              1.808
 Vibration    12          0.666              1.751              1.683
 Vibration    13          0.676              1.721              1.571
 Vibration    14          0.687              1.690              1.467
 Vibration    15          0.715              1.610              1.247
 Vibration    16          0.728              1.572              1.158
 Vibration    17          0.752              1.508              1.030
 Vibration    18          0.764              1.476              0.972
 Vibration    19          0.783              1.427              0.892
 Vibration    20          0.801              1.381              0.823
 Vibration    21          0.857              1.247              0.655
 Vibration    22          0.880              1.195              0.599
 Vibration    23          0.899              1.153              0.557
 Vibration    24          0.933              1.082              0.491
 Vibration    25          0.946              1.056              0.469
 Vibration    26          0.971              1.006              0.429

                           ! Non-Optimized Parameters !
 Normal termination of Gaussian 16 at Fri Dec 11 01:23:16 2020.

 ----------------------------------------------------------------------
 # B3LYP/6-311++G(d,p) empiricaldispersion=gd3bj scf=xqc pop=npa geom=c
 heck
 ----------------------------------------------------------------------

 --------------------------------------
 CID_88789726_JID_6899_Energie_neutraal
 --------------------------------------
 Structure from the checkpoint file:  "JID_6899.chk"
 Charge =  0 Multiplicity = 1

 SCF Done:  E(RB3LYP) =  -657.812079068     A.U. after   15 cycles
 Normal termination of Gaussian 16 at Fri Dec 11 01:28:15 2020.

 ----------------------------------------------------------------------
 # B3LYP/6-311++G(d,p) empiricaldispersion=gd3bj scf=xqc pop=npa geom=c
 heck
 ----------------------------------------------------------------------

 ------------------------------------
 CID_88789726_JID_6899_Energie_kation
 ------------------------------------
 Structure from the checkpoint file:  "JID_6899.chk"
 Charge =  1 Multiplicity = 2

 SCF Done:  E(UB3LYP) =  -657.516938319     A.U. after   25 cycles
 Normal termination of Gaussian 16 at Fri Dec 11 01:39:33 2020.
 Gaussian 16:  ES64L-G16RevA.03 25-Dec-2016

 ----------------------------------------------------------------------
 # B3LYP/6-311++G(d,p) empiricaldispersion=gd3bj scf=xqc pop=npa geom=c
 heck
 ----------------------------------------------------------------------

 -----------------------------------
 CID_88789726_JID_6899_Energie_anion
 -----------------------------------
 Structure from the checkpoint file:  "JID_6899.chk"
 Charge = -1 Multiplicity = 2

                         Standard orientation:
 ---------------------------------------------------------------------
 Center     Atomic      Atomic             Coordinates (Angstroms)
 Number     Number       Type             X           Y           Z
 ---------------------------------------------------------------------
      1          6           0        0.072287    1.825274    1.319138
      2          6           0       -0.648046    1.838402   -0.008029
      3          6           0       -0.833979    2.983341   -0.675160
      4          6           0       -1.147309    0.540813   -0.631921
      5          6           0       -0.026143   -0.237009   -1.391071
      6          6           0        1.317215   -0.396059   -0.718089
      7          6           0        2.328290    0.546206   -0.944806
      8          6           0        3.573110    0.426853   -0.327293
      9          6           0        3.830662   -0.650654    0.520834
     10          6           0        2.835672   -1.604944    0.741800
     11          6           0        1.591574   -1.478762    0.125651
     12          6           0       -1.998493   -0.343618    0.325153
     13          6           0       -3.159754    0.468081    0.928356
     14          6           0       -2.562704   -1.487697   -0.419094
     15          6           0       -3.052374   -2.436389   -0.983764
     16          8           0       -1.142529   -0.835968    1.365000
     17          1           0        0.449687    2.825431    1.554431
     18          1           0        0.910025    1.124937    1.316918
     19          1           0       -0.589700    1.501995    2.128215
     20          1           0       -1.360491    3.015944   -1.626270
     21          1           0       -0.457851    3.930363   -0.296618
     22          1           0       -1.861662    0.826480   -1.412790
     23          1           0       -0.425759   -1.220271   -1.660804
     24          1           0        0.130451    0.306076   -2.329514
     25          1           0        2.126625    1.390721   -1.598825
     26          1           0        4.341876    1.172573   -0.511582
     27          1           0        4.799996   -0.749282    1.001781
     28          1           0        3.029645   -2.450781    1.396174
     29          1           0        0.811711   -2.207811    0.317221
     30          1           0       -3.821377    0.842006    0.141186
     31          1           0       -3.752781   -0.165240    1.597108
     32          1           0       -2.771928    1.317949    1.493614
     33          1           0       -3.474805   -3.273245   -1.492116
     34          1           0       -1.663485   -1.463146    1.891634
 ---------------------------------------------------------------------

 SCF Done:  E(UB3LYP) =  -657.799044015     A.U. after   33 cycles
 SCF Done:  E(UB3LYP) =  -657.799044015     a.u. after    1 cycles

 The electronic state is 2-A.
 Alpha  occ. eigenvalues --  -19.02771 -10.16018 -10.09132 -10.08916 -10.08239
 Alpha  occ. eigenvalues --  -10.08052 -10.07952 -10.07822 -10.07805 -10.07508
 Alpha  occ. eigenvalues --  -10.07504 -10.07190 -10.07167 -10.06776 -10.06260
 Alpha  occ. eigenvalues --  -10.05935  -0.93570  -0.76445  -0.73675  -0.68956
 Alpha  occ. eigenvalues --   -0.67615  -0.64990  -0.64009  -0.62066  -0.58673
 Alpha  occ. eigenvalues --   -0.55824  -0.52298  -0.51041  -0.48768  -0.45652
 Alpha  occ. eigenvalues --   -0.43486  -0.41560  -0.41259  -0.37855  -0.36585
 Alpha  occ. eigenvalues --   -0.36361  -0.35686  -0.34397  -0.33747  -0.32524
 Alpha  occ. eigenvalues --   -0.31999  -0.30934  -0.30167  -0.29407  -0.28582
 Alpha  occ. eigenvalues --   -0.27934  -0.26652  -0.25947  -0.25149  -0.24485
 Alpha  occ. eigenvalues --   -0.23321  -0.23049  -0.20267  -0.18311  -0.17906
 Alpha  occ. eigenvalues --   -0.16215  -0.15867  -0.14401   0.04235
 Alpha virt. eigenvalues --    0.06118   0.06798   0.07130   0.07726   0.07877
 Alpha virt. eigenvalues --    0.08203   0.08525   0.08645   0.09460   0.09800
 Alpha virt. eigenvalues --    0.10132   0.10434   0.10989   0.11229   0.11579

  Beta  occ. eigenvalues --  -19.02731 -10.16011 -10.09124 -10.08915 -10.08230
  Beta  occ. eigenvalues --  -10.08049 -10.07937 -10.07812 -10.07809 -10.07499
  Beta  occ. eigenvalues --  -10.07491 -10.07158 -10.07154 -10.06742 -10.06244
  Beta  occ. eigenvalues --  -10.05923  -0.93483  -0.76420  -0.73648  -0.68932
  Beta  occ. eigenvalues --   -0.67586  -0.64963  -0.63973  -0.62029  -0.58646
  Beta  occ. eigenvalues --   -0.55772  -0.52257  -0.51015  -0.48733  -0.45576
  Beta  occ. eigenvalues --   -0.43445  -0.41501  -0.41220  -0.37833  -0.36539
  Beta  occ. eigenvalues --   -0.36324  -0.35660  -0.34364  -0.33721  -0.32502
  Beta  occ. eigenvalues --   -0.31972  -0.30907  -0.30147  -0.29377  -0.28550
  Beta  occ. eigenvalues --   -0.27906  -0.26618  -0.25915  -0.25124  -0.24463
  Beta  occ. eigenvalues --   -0.23290  -0.23020  -0.20225  -0.18286  -0.17863
  Beta  occ. eigenvalues --   -0.16191  -0.15821  -0.14359
  Beta virt. eigenvalues --    0.06146   0.06886   0.07302   0.07546   0.08050
  Beta virt. eigenvalues --    0.08231   0.08629   0.08854   0.08998   0.09591
  Beta virt. eigenvalues --    0.09949   0.10404   0.10833   0.11135   0.11387

 Mulliken charges and spin densities:
               1          2
     1  C   -1.089457   0.154711
     2  C   -1.560475   1.812727
     3  C    1.045817  -1.342263
     4  C    2.867288  -2.343907
     5  C    2.089009  -2.982987
     6  C   -0.486518   1.574320
     7  C   -0.565389   0.366913
     8  C   -0.210224  -0.184652
     9  C    0.426263  -0.691460
    10  C    0.233770  -0.620219
    11  C   -1.234518   0.828210
    12  C   -2.091365   2.091208
    13  C    0.847406  -1.444380
    14  C    6.335791  -5.968360
    15  C   -5.232281   4.503011
    16  O   -0.165396  -0.010054
    17  H   -0.037631   0.156497
    18  H    0.314267  -0.164277
    19  H    0.005567   0.169411
    20  H   -0.230533   0.373625
    21  H    0.043366   0.074573
    22  H    0.039138   0.212488
    23  H    0.389949  -0.214565
    24  H   -0.247507   0.414719
    25  H    0.027579   0.136535
    26  H   -0.155380   0.319416
    27  H   -0.055102   0.199780
    28  H   -0.218804   0.390643
    29  H   -0.056880   0.239435
    30  H   -0.271420   0.445641
    31  H   -0.319642   0.488651
    32  H    0.134669  -0.010459
    33  H   -1.405113   1.584502
    34  H   -0.166245   0.440569
 Sum of Mulliken charges =  -1.00000   1.00000

 Dipole moment (field-independent basis, Debye):
    X=              4.6019    Y=              3.3801    Z=              0.6908  Tot=              5.7515
 Quadrupole moment (field-independent basis, Debye-Ang):
   XX=           -169.3192   YY=           -144.5584   ZZ=           -136.8152
   XY=             -9.7401   XZ=             -3.8662   YZ=              1.4616

 Summary of Natural Population Analysis:

                                       Natural Population
                Natural  -----------------------------------------------
    Atom  No    Charge         Core      Valence    Rydberg      Total
 -----------------------------------------------------------------------
      C    1   -0.30248      0.99959     2.29755    0.00533     3.30248
      C    2    0.00786      0.99950     1.98044    0.01220     2.99214
      C    3   -0.19859      0.99947     2.19075    0.00837     3.19859
      C    4   -0.11508      0.99949     2.09968    0.01591     3.11508
      C    5   -0.19541      0.99957     2.18494    0.01089     3.19541
      C    6   -0.01419      0.99950     2.00389    0.01080     3.01419
      C    7   -0.10080      0.99951     2.09186    0.00943     3.10080
      C    8   -0.10522      0.99956     2.09609    0.00957     3.10522
      C    9   -0.10759      0.99956     2.09820    0.00983     3.10759
      C   10   -0.10116      0.99956     2.09234    0.00926     3.10116
      C   11   -0.09046      0.99950     2.08106    0.00990     3.09046
      C   12    0.09507      0.99944     1.88566    0.01983     2.90493
      C   13   -0.28570      0.99962     2.27859    0.00749     3.28570
      C   14   -0.01767      0.99934     2.00566    0.01266     3.01767
      C   15   -0.10040      0.99926     2.09698    0.00416     3.10040
      O   16   -0.36775      0.99989     3.35946    0.00840     4.36775
      H   17    0.09574      0.00000     0.40331    0.00095     0.40426
      H   18    0.11374      0.00000     0.38458    0.00169     0.38626
      H   19    0.10910      0.00000     0.38961    0.00128     0.39090
      H   20    0.09371      0.00000     0.40509    0.00120     0.40629
      H   21    0.09075      0.00000     0.40835    0.00089     0.40925
      H   22    0.10989      0.00000     0.38771    0.00240     0.39011
      H   23    0.11317      0.00000     0.38527    0.00156     0.38683
      H   24    0.10284      0.00000     0.39562    0.00154     0.39716
      H   25    0.10171      0.00000     0.39692    0.00136     0.39829
      H   26    0.09856      0.00000     0.40056    0.00088     0.40144
      H   27    0.09831      0.00000     0.40088    0.00081     0.40169
      H   28    0.09961      0.00000     0.39950    0.00089     0.40039
      H   29    0.10883      0.00000     0.38932    0.00185     0.39117
      H   30    0.10588      0.00000     0.39275    0.00137     0.39412
      H   31    0.10416      0.00000     0.39438    0.00147     0.39584
      H   32    0.10472      0.00000     0.39420    0.00107     0.39528
      H   33    0.11328      0.00000     0.38421    0.00251     0.38672
      H   34    0.23555      0.00000     0.25815    0.00631     0.26445
 =======================================================================
   * Total *   -0.00000     15.99238    41.81355    0.19406    58.00000

 Normal termination of Gaussian 16 at Fri Dec 11 01:54:36 2020.
