 Gaussian 16, Revision A.03,

 -----------------------------------------------------------
 # opt freq B3LYP/6-31G(d) empiricaldispersion=gd3bj scf=xqc
 -----------------------------------------------------------

 ------------------------------
 CID_130510165_JID_785_neutraal
 ------------------------------
 Symbolic Z-matrix:
 Charge =  0 Multiplicity = 1

 SCF Done:  E(RB3LYP) =  -443.856862961     A.U. after   13 cycles
 SCF Done:  E(RB3LYP) =  -443.859432604     A.U. after   11 cycles
 SCF Done:  E(RB3LYP) =  -443.859423885     A.U. after   11 cycles
 SCF Done:  E(RB3LYP) =  -443.859914139     A.U. after   11 cycles
 SCF Done:  E(RB3LYP) =  -443.860265962     A.U. after   10 cycles
 SCF Done:  E(RB3LYP) =  -443.860399482     A.U. after   11 cycles
 SCF Done:  E(RB3LYP) =  -443.860432743     A.U. after   10 cycles
 SCF Done:  E(RB3LYP) =  -443.860442185     A.U. after    9 cycles
 SCF Done:  E(RB3LYP) =  -443.860444843     A.U. after    8 cycles
 SCF Done:  E(RB3LYP) =  -443.860445697     A.U. after    7 cycles
 SCF Done:  E(RB3LYP) =  -443.860445981     A.U. after    7 cycles
 SCF Done:  E(RB3LYP) =  -443.860446036     A.U. after    7 cycles
 Optimization completed.
    -- Stationary point found.
 Normal termination of Gaussian 16 at Tue Dec  8 13:23:59 2020.

 --------------------------------------------------------------------
 #N Geom=AllCheck Guess=TCheck SCRF=Check GenChk RB3LYP/6-31G(d) Freq
 --------------------------------------------------------------------

 Structure from the checkpoint file:  "JID_785.chk"
 ------------------------------
 CID_130510165_JID_785_neutraal
 ------------------------------
 Charge =  0 Multiplicity = 1

 SCF Done:  E(RB3LYP) =  -443.860446036     A.U. after    1 cycles

  Exact polarizability: 110.030   6.000  83.676   4.017  -0.434  77.645
 Approx polarizability: 144.300  12.677 124.549   9.935  -2.320 114.311

                      1                      2                      3
                      A                      A                      A
 Frequencies --     69.6502                99.9141               103.4808
 Red. masses --      2.1381                 2.9974                 2.7615
 Frc consts  --      0.0061                 0.0176                 0.0174
 IR Inten    --      1.2967                 0.7628                 1.2514

                      4                      5                      6
                      A                      A                      A
 Frequencies --    192.4919               213.1652               226.8471
 Red. masses --      2.5195                 1.0822                 2.9289
 Frc consts  --      0.0550                 0.0290                 0.0888
 IR Inten    --      0.6438                 0.1315                 1.2062

                      7                      8                      9
                      A                      A                      A
 Frequencies --    267.3614               315.4915               334.3771
 Red. masses --      1.3548                 2.8389                 2.2503
 Frc consts  --      0.0571                 0.1665                 0.1482
 IR Inten    --      0.2695                 5.9884                 4.9186

                     10                     11                     12
                      A                      A                      A
 Frequencies --    357.3655               387.1391               440.3970
 Red. masses --      2.5434                 2.4709                 2.3901
 Frc consts  --      0.1914                 0.2182                 0.2731
 IR Inten    --      1.6698                 2.9699                43.8056

                     13                     14                     15
                      A                      A                      A
 Frequencies --    449.9805               492.3086               612.9036
 Red. masses --      1.5374                 2.4912                 2.0604
 Frc consts  --      0.1834                 0.3557                 0.4560
 IR Inten    --     26.8566                 9.7798                 0.2641

                     16                     17                     18
                      A                      A                      A
 Frequencies --    651.5917               746.6832               753.6398
 Red. masses --      2.1893                 2.6626                 1.9643
 Frc consts  --      0.5477                 0.8746                 0.6573
 IR Inten    --      6.6356                11.8858                21.5719

                     19                     20                     21
                      A                      A                      A
 Frequencies --    794.2286               813.3817               884.6634
 Red. masses --      1.2558                 4.4562                 2.4089
 Frc consts  --      0.4667                 1.7370                 1.1108
 IR Inten    --      2.7533                 2.6562                56.6469

                     22                     23                     24
                      A                      A                      A
 Frequencies --    932.2018               941.6070               950.9514
 Red. masses --      2.2335                 1.8584                 1.3298
 Frc consts  --      1.1435                 0.9708                 0.7085
 IR Inten    --      4.3521                38.5001                 3.7315

                     25                     26                     27
                      A                      A                      A
 Frequencies --    968.0625               979.4754              1018.5344
 Red. masses --      1.5677                 2.2479                 1.6921
 Frc consts  --      0.8656                 1.2706                 1.0343
 IR Inten    --      4.2143                27.7478                 1.9454

                     28                     29                     30
                      A                      A                      A
 Frequencies --   1029.1435              1041.2864              1070.2401
 Red. masses --      2.0935                 2.0609                 1.8377
 Frc consts  --      1.3064                 1.3166                 1.2402
 IR Inten    --      5.3970                18.7742                10.6421

                     31                     32                     33
                      A                      A                      A
 Frequencies --   1092.5185              1114.2619              1135.0442
 Red. masses --      2.5072                 2.1091                 1.2929
 Frc consts  --      1.7632                 1.5428                 0.9814
 IR Inten    --     17.0276                12.8103                 1.9304

                     34                     35                     36
                      A                      A                      A
 Frequencies --   1169.4086              1206.8074              1214.9533
 Red. masses --      1.6833                 2.1503                 1.8132
 Frc consts  --      1.3563                 1.8451                 1.5769
 IR Inten    --      8.3292                42.0936                22.6839

                     37                     38                     39
                      A                      A                      A
 Frequencies --   1261.3205              1318.2493              1327.9234
 Red. masses --      1.6646                 1.2740                 1.2224
 Frc consts  --      1.5603                 1.3044                 1.2700
 IR Inten    --      6.4236                 4.0603                27.0323

                     40                     41                     42
                      A                      A                      A
 Frequencies --   1349.1197              1363.2432              1372.9405
 Red. masses --      1.3291                 1.5879                 1.5565
 Frc consts  --      1.4253                 1.7387                 1.7286
 IR Inten    --      0.5730                 2.8348                16.9222

                     43                     44                     45
                      A                      A                      A
 Frequencies --   1386.8004              1415.9797              1435.8247
 Red. masses --      1.5820                 1.3002                 1.2457
 Frc consts  --      1.7926                 1.5360                 1.5131
 IR Inten    --     12.4978                54.9774                 1.5732

                     46                     47                     48
                      A                      A                      A
 Frequencies --   1449.6734              1499.6229              1510.8991
 Red. masses --      1.4413                 1.0908                 1.0942
 Frc consts  --      1.7846                 1.4453                 1.4717
 IR Inten    --     51.8160                 5.2249                 9.4917

                     49                     50                     51
                      A                      A                      A
 Frequencies --   1520.7581              1527.6189              1528.7462
 Red. masses --      1.0708                 1.0729                 1.0854
 Frc consts  --      1.4591                 1.4751                 1.4946
 IR Inten    --      8.7709                 3.1806                 0.3444

                     52                     53                     54
                      A                      A                      A
 Frequencies --   1539.3094              1545.4341              1687.0582
 Red. masses --      1.0514                 1.0549                 6.4010
 Frc consts  --      1.4678                 1.4845                10.7339
 IR Inten    --      8.1063                 1.0118                 0.1105

                     55                     56                     57
                      A                      A                      A
 Frequencies --   2992.0324              3019.8530              3029.4339
 Red. masses --      1.0825                 1.0698                 1.0623
 Frc consts  --      5.7099                 5.7480                 5.7441
 IR Inten    --     38.7243                63.5472                40.7408

                     58                     59                     60
                      A                      A                      A
 Frequencies --   3057.8180              3061.5668              3068.6055
 Red. masses --      1.0358                 1.0425                 1.0924
 Frc consts  --      5.7063                 5.7571                 6.0605
 IR Inten    --     28.4911                 7.8741                28.5208

                     61                     62                     63
                      A                      A                      A
 Frequencies --   3086.5958              3118.8377              3129.2969
 Red. masses --      1.0945                 1.1024                 1.1025
 Frc consts  --      6.1438                 6.3177                 6.3609
 IR Inten    --     32.8606                41.0878                25.5454

                     64                     65                     66
                      A                      A                      A
 Frequencies --   3139.3809              3146.9787              3208.6771
 Red. masses --      1.1022                 1.1007                 1.0858
 Frc consts  --      6.4002                 6.4223                 6.5867
 IR Inten    --     24.4170                21.1823                 7.3782

                     67                     68                     69
                      A                      A                      A
 Frequencies --   3232.5104              3466.7309              3680.6947
 Red. masses --      1.1045                 1.0724                 1.0661
 Frc consts  --      6.7996                 7.5936                 8.5093
 IR Inten    --     15.2838                 0.6993                49.1961

 - Thermochemistry -
 -------------------
 Temperature   298.150 Kelvin.  Pressure   1.00000 Atm.
 Atom     1 has atomic number  6 and mass  12.00000

 Molecular mass:   141.11536 amu.
 Principal axes and moments of inertia in atomic units:
                           1         2         3
     Eigenvalues --   781.775012078.252432112.12804
           X            0.99983   0.01672  -0.00765
           Y           -0.01094   0.87554   0.48302
           Z            0.01478  -0.48286   0.87558
 This molecule is an asymmetric top.
 Rotational symmetry number  1.
 Warning -- assumption of classical behavior for rotation
           may cause significant error
 Rotational temperatures (Kelvin)      0.11079     0.04168     0.04101
 Rotational constants (GHZ):           2.30852     0.86839     0.85447
 Zero-point vibrational energy     589466.4 (Joules/Mol)
                                  140.88586 (Kcal/Mol)
 Warning -- explicit consideration of  15 degrees of freedom as
           vibrations may cause significant error
 Vibrational temperatures:    100.21   143.75   148.89   276.95   306.70
          (Kelvin)            326.38   384.67   453.92   481.09   514.17
                              557.01   633.63   647.42   708.32   881.83
                              937.50  1074.31  1084.32  1142.72  1170.27
                             1272.83  1341.23  1354.76  1368.21  1392.83
                             1409.25  1465.44  1480.71  1498.18  1539.84
                             1571.89  1603.17  1633.08  1682.52  1736.33
                             1748.05  1814.76  1896.67  1910.59  1941.08
                             1961.40  1975.36  1995.30  2037.28  2065.83
                             2085.76  2157.62  2173.85  2188.03  2197.90
                             2199.52  2214.72  2223.53  2427.30  4304.87
                             4344.89  4358.68  4399.52  4404.91  4415.04
                             4440.92  4487.31  4502.36  4516.87  4527.80
                             4616.57  4650.86  4987.85  5295.70

 Zero-point correction=                           0.224516 (Hartree/Particle)
 Thermal correction to Energy=                    0.235198
 Thermal correction to Enthalpy=                  0.236142
 Thermal correction to Gibbs Free Energy=         0.188887
 Sum of electronic and zero-point Energies=           -443.635930
 Sum of electronic and thermal Energies=              -443.625248
 Sum of electronic and thermal Enthalpies=            -443.624304
 Sum of electronic and thermal Free Energies=         -443.671559

                     E (Thermal)             CV                S
                      KCal/Mol        Cal/Mol-Kelvin    Cal/Mol-Kelvin
 Total                  147.589             41.203             99.457
 Electronic               0.000              0.000              0.000
 Translational            0.889              2.981             40.745
 Rotational               0.889              2.981             29.619
 Vibrational            145.811             35.242             29.094
 Vibration     1          0.598              1.969              4.163
 Vibration     2          0.604              1.949              3.456
 Vibration     3          0.605              1.946              3.388
 Vibration     4          0.634              1.850              2.204
 Vibration     5          0.644              1.821              2.016
 Vibration     6          0.651              1.800              1.904
 Vibration     7          0.672              1.733              1.613
 Vibration     8          0.703              1.644              1.333
 Vibration     9          0.716              1.607              1.239
 Vibration    10          0.733              1.560              1.134
 Vibration    11          0.756              1.498              1.011
 Vibration    12          0.800              1.382              0.825
 Vibration    13          0.809              1.361              0.796
 Vibration    14          0.848              1.267              0.678
 Vibration    15          0.972              1.005              0.428

 Optimization completed.
    -- Stationary point found.
 Normal termination of Gaussian 16 at Tue Dec  8 13:30:31 2020.

 ----------------------------------------------------------------------
 # B3LYP/6-311++G(d,p) empiricaldispersion=gd3bj scf=xqc pop=npa geom=c
 heck
 ----------------------------------------------------------------------

 --------------------------------------
 CID_130510165_JID_785_Energie_neutraal
 --------------------------------------
 Structure from the checkpoint file:  "JID_785.chk"
 Charge =  0 Multiplicity = 1

 SCF Done:  E(RB3LYP) =  -443.998636540     A.U. after   14 cycles
 Normal termination of Gaussian 16 at Tue Dec  8 13:36:06 2020.

 ----------------------------------------------------------------------
 # B3LYP/6-311++G(d,p) empiricaldispersion=gd3bj scf=xqc pop=npa geom=c
 heck
 ----------------------------------------------------------------------

 ------------------------------------
 CID_130510165_JID_785_Energie_kation
 ------------------------------------
 Structure from the checkpoint file:  "JID_785.chk"
 Charge =  1 Multiplicity = 2

 SCF Done:  E(UB3LYP) =  -443.672316093     A.U. after   24 cycles
 Normal termination of Gaussian 16 at Tue Dec  8 13:43:49 2020.
 Gaussian 16:  ES64L-G16RevA.03 25-Dec-2016

 ----------------------------------------------------------------------
 # B3LYP/6-311++G(d,p) empiricaldispersion=gd3bj scf=xqc pop=npa geom=c
 heck
 ----------------------------------------------------------------------

 -----------------------------------
 CID_130510165_JID_785_Energie_anion
 -----------------------------------
 Structure from the checkpoint file:  "JID_785.chk"
 Charge = -1 Multiplicity = 2

                         Standard orientation:
 ---------------------------------------------------------------------
 Center     Atomic      Atomic             Coordinates (Angstroms)
 Number     Number       Type             X           Y           Z
 ---------------------------------------------------------------------
      1          6           0        2.784023   -0.525812   -1.196642
      2          6           0        1.277465   -0.321056   -1.023281
      3          6           0        0.868436    0.141198    0.393701
      4          6           0        1.544827    1.463294    0.759958
      5          6           0       -0.661425    0.280154    0.538641
      6          6           0       -1.410437    1.163572   -0.441490
      7          6           0       -2.573361    0.594409   -0.762560
      8          6           0       -2.712998   -0.730899   -0.036875
      9          7           0       -1.343467   -1.039746    0.440564
     10          8           0        1.304285   -0.817398    1.369021
     11          1           0        3.331650    0.421470   -1.154751
     12          1           0        3.003429   -0.990546   -2.163927
     13          1           0        3.167948   -1.175909   -0.404932
     14          1           0        0.899742    0.402232   -1.757651
     15          1           0        0.777358   -1.272998   -1.247900
     16          1           0        1.364424    2.230086   -0.001363
     17          1           0        1.170428    1.825371    1.722482
     18          1           0        2.623849    1.318022    0.854638
     19          1           0       -0.831170    0.658805    1.559674
     20          1           0       -1.068636    2.144785   -0.753376
     21          1           0       -3.349109    1.023164   -1.389178
     22          1           0       -3.098359   -1.548585   -0.656097
     23          1           0       -3.393308   -0.630764    0.822329
     24          1           0       -0.896871   -1.530422   -0.334581
     25          1           0        0.569438   -1.446463    1.479804
 ---------------------------------------------------------------------

 SCF Done:  E(UB3LYP) =  -443.982740262     A.U. after   30 cycles

 The electronic state is 2-A.
 Alpha  occ. eigenvalues --  -19.01311 -14.20170 -10.12733 -10.09949 -10.09365
 Alpha  occ. eigenvalues --  -10.06679 -10.06551 -10.06256 -10.05801 -10.05475
 Alpha  occ. eigenvalues --   -0.92087  -0.82463  -0.69409  -0.66391  -0.63669
 Alpha  occ. eigenvalues --   -0.60517  -0.53923  -0.51063  -0.46478  -0.44337
 Alpha  occ. eigenvalues --   -0.42390  -0.38109  -0.36601  -0.35180  -0.33477
 Alpha  occ. eigenvalues --   -0.32180  -0.30599  -0.29370  -0.28540  -0.28189
 Alpha  occ. eigenvalues --   -0.27308  -0.27045  -0.25725  -0.24310  -0.23395
 Alpha  occ. eigenvalues --   -0.21427  -0.17411  -0.14977  -0.14429   0.04721
 Alpha virt. eigenvalues --    0.07083   0.07674   0.08541   0.09131   0.09658
 Alpha virt. eigenvalues --    0.10155   0.10349   0.10731   0.11757   0.12234
 Alpha virt. eigenvalues --    0.12639   0.13050   0.14076   0.15117   0.15979

  Beta  occ. eigenvalues --  -19.01303 -14.20157 -10.12729 -10.09945 -10.09334
  Beta  occ. eigenvalues --  -10.06658 -10.06535 -10.06231 -10.05778 -10.05454
  Beta  occ. eigenvalues --   -0.92071  -0.82437  -0.69382  -0.66346  -0.63633
  Beta  occ. eigenvalues --   -0.60472  -0.53863  -0.51002  -0.46427  -0.44290
  Beta  occ. eigenvalues --   -0.42336  -0.38069  -0.36568  -0.35153  -0.33436
  Beta  occ. eigenvalues --   -0.32147  -0.30567  -0.29334  -0.28504  -0.28160
  Beta  occ. eigenvalues --   -0.27263  -0.27004  -0.25686  -0.24278  -0.23369
  Beta  occ. eigenvalues --   -0.21402  -0.17396  -0.14958  -0.14406
  Beta virt. eigenvalues --    0.07103   0.08033   0.08510   0.09213   0.09791
  Beta virt. eigenvalues --    0.10189   0.10427   0.10734   0.11060   0.12276
  Beta virt. eigenvalues --    0.12777   0.13044   0.13480   0.14285   0.15346

 Mulliken charges and spin densities:
               1          2
     1  C    1.250714  -1.900997
     2  C   -0.569183   0.594136
     3  C    0.506430  -0.877855
     4  C    0.460238  -1.051700
     5  C   -1.675037   1.731296
     6  C    0.640986  -0.743230
     7  C    0.103615  -0.314756
     8  C    1.644982  -2.144916
     9  N   -0.066127  -0.034600
    10  O   -0.174015   0.018819
    11  H   -0.118105   0.246077
    12  H   -0.229237   0.373185
    13  H    0.086584   0.084067
    14  H   -0.186638   0.370069
    15  H   -0.256083   0.376851
    16  H   -0.272741   0.429885
    17  H    0.143768   0.003784
    18  H    0.036633   0.124830
    19  H   -0.106997   0.328939
    20  H   -0.458014   0.632004
    21  H   -1.184341   1.368444
    22  H   -0.679919   0.851145
    23  H   -0.069447   0.214234
    24  H   -0.011825   0.228737
    25  H    0.183760   0.091553
 Sum of Mulliken charges =  -1.00000   1.00000

 Dipole moment (field-independent basis, Debye):
    X=              3.7145    Y=             -0.4478    Z=              4.0532  Tot=              5.5160
 Quadrupole moment (field-independent basis, Debye-Ang):
   XX=           -125.2867   YY=           -103.1117   ZZ=           -101.9984
   XY=              0.0937   XZ=             -7.1701   YZ=              2.1022

 Summary of Natural Population Analysis:

                                       Natural Population
                Natural  -----------------------------------------------
    Atom  No    Charge         Core      Valence    Rydberg      Total
 -----------------------------------------------------------------------
      C    1   -0.28769      0.99966     2.28217    0.00586     3.28769
      C    2   -0.20074      0.99958     2.19085    0.01031     3.20074
      C    3    0.12998      0.99950     1.85458    0.01593     2.87002
      C    4   -0.29231      0.99961     2.28503    0.00767     3.29231
      C    5   -0.03303      0.99954     2.01902    0.01446     3.03303
      C    6   -0.10581      0.99949     2.09562    0.01069     3.10581
      C    7   -0.09326      0.99951     2.08391    0.00983     3.09326
      C    8   -0.10046      0.99964     2.08911    0.01172     3.10046
      N    9   -0.34721      0.99976     2.83530    0.01215     3.84721
      O   10   -0.38444      0.99989     3.37829    0.00627     4.38444
      H   11    0.09541      0.00000     0.40370    0.00089     0.40459
      H   12    0.09883      0.00000     0.40033    0.00084     0.40117
      H   13    0.10301      0.00000     0.39584    0.00115     0.39699
      H   14    0.10370      0.00000     0.39451    0.00179     0.39630
      H   15    0.09371      0.00000     0.40447    0.00182     0.40629
      H   16    0.10261      0.00000     0.39610    0.00129     0.39739
      H   17    0.10116      0.00000     0.39787    0.00097     0.39884
      H   18    0.10470      0.00000     0.39440    0.00089     0.39530
      H   19    0.09620      0.00000     0.40196    0.00184     0.40380
      H   20    0.10677      0.00000     0.39112    0.00211     0.39323
      H   21    0.10490      0.00000     0.39153    0.00357     0.39510
      H   22    0.10050      0.00000     0.39676    0.00275     0.39950
      H   23    0.09254      0.00000     0.40605    0.00141     0.40746
      H   24    0.17360      0.00000     0.32222    0.00417     0.32640
      H   25    0.23731      0.00000     0.25945    0.00324     0.26269
 =======================================================================
   * Total *   -0.00000      9.99620    28.87018    0.13362    39.00000

 Normal termination of Gaussian 16 at Tue Dec  8 13:51:54 2020.
