 Gaussian 16, Revision A.03,

 -----------------------------------------------------------
 # opt freq B3LYP/6-31G(d) empiricaldispersion=gd3bj scf=xqc
 -----------------------------------------------------------

 ------------------------------
 CID_24729815_JID_5765_neutraal
 ------------------------------
 Symbolic Z-matrix:
 Charge =  0 Multiplicity = 1

 SCF Done:  E(RB3LYP) =  -632.033169201     A.U. after   15 cycles
 SCF Done:  E(RB3LYP) =  -632.035986812     A.U. after   14 cycles
 SCF Done:  E(RB3LYP) =  -632.036594252     A.U. after   13 cycles
 SCF Done:  E(RB3LYP) =  -632.036645228     A.U. after   12 cycles
 SCF Done:  E(RB3LYP) =  -632.036690860     A.U. after   10 cycles
 SCF Done:  E(RB3LYP) =  -632.036707392     A.U. after   11 cycles
 SCF Done:  E(RB3LYP) =  -632.036708231     A.U. after    9 cycles
 SCF Done:  E(RB3LYP) =  -632.036708453     A.U. after    7 cycles
 SCF Done:  E(RB3LYP) =  -632.036709843     A.U. after    9 cycles
 SCF Done:  E(RB3LYP) =  -632.036712823     A.U. after    9 cycles
 SCF Done:  E(RB3LYP) =  -632.036779207     A.U. after   10 cycles
 SCF Done:  E(RB3LYP) =  -632.036778125     A.U. after   10 cycles
 SCF Done:  E(RB3LYP) =  -632.036779153     A.U. after   10 cycles
 SCF Done:  E(RB3LYP) =  -632.036779367     A.U. after    9 cycles
 SCF Done:  E(RB3LYP) =  -632.036779376     A.U. after    6 cycles
 SCF Done:  E(RB3LYP) =  -632.036779376     A.U. after    5 cycles
 Optimization completed on the basis of negligible forces.
    -- Stationary point found.
 Normal termination of Gaussian 16 at Thu Dec 10 17:06:35 2020.

 --------------------------------------------------------------------
 #N Geom=AllCheck Guess=TCheck SCRF=Check GenChk RB3LYP/6-31G(d) Freq
 --------------------------------------------------------------------

 Structure from the checkpoint file:  "JID_5765.chk"
 ------------------------------
 CID_24729815_JID_5765_neutraal
 ------------------------------
 Charge =  0 Multiplicity = 1

 SCF Done:  E(RB3LYP) =  -632.036779376     A.U. after    1 cycles

  Exact polarizability: 229.660  -1.417 141.526  -0.042   0.333  65.868
 Approx polarizability: 334.559  -5.492 251.841  -0.712  -1.592 104.395

                      1                      2                      3
                      A                      A                      A
 Frequencies --     16.6905                41.7232                78.9991
 Red. masses --      1.0286                 4.9640                 4.6335
 Frc consts  --      0.0002                 0.0051                 0.0170
 IR Inten    --      0.2243                 0.0398                 3.1053

                      4                      5                      6
                      A                      A                      A
 Frequencies --     86.3125               127.9781               199.6793
 Red. masses --      5.2316                 4.7824                 5.3953
 Frc consts  --      0.0230                 0.0461                 0.1267
 IR Inten    --      1.1341                 5.6201                 4.8552

                      7                      8                      9
                      A                      A                      A
 Frequencies --    216.5312               233.4592               257.7721
 Red. masses --      3.0066                 2.6311                 3.6593
 Frc consts  --      0.0831                 0.0845                 0.1433
 IR Inten    --      0.1712                 2.0457                 1.0644

                     10                     11                     12
                      A                      A                      A
 Frequencies --    279.3797               335.4973               394.7331
 Red. masses --      5.6916                 4.3470                 3.3006
 Frc consts  --      0.2617                 0.2883                 0.3030
 IR Inten    --      1.4368                 0.2326                 0.6103

                     13                     14                     15
                      A                      A                      A
 Frequencies --    442.9214               448.7683               475.2749
 Red. masses --      3.7988                 3.9653                 4.2013
 Frc consts  --      0.4391                 0.4705                 0.5592
 IR Inten    --      0.5668                 2.8533                 1.0790

                     16                     17                     18
                      A                      A                      A
 Frequencies --    527.4889               542.7853               602.5374
 Red. masses --      4.6050                 4.7397                 4.2330
 Frc consts  --      0.7549                 0.8227                 0.9054
 IR Inten    --      1.4387                 0.7686                 0.6572

                     19                     20                     21
                      A                      A                      A
 Frequencies --    642.6161               670.9302               718.5437
 Red. masses --      7.8529                 7.2279                 2.3667
 Frc consts  --      1.9107                 1.9170                 0.7200
 IR Inten    --      1.5822                23.4602                12.9727

                     22                     23                     24
                      A                      A                      A
 Frequencies --    727.5097               742.5967               804.7978
 Red. masses --      2.2829                 6.2123                 1.4755
 Frc consts  --      0.7119                 2.0184                 0.5631
 IR Inten    --      5.8996                39.8412                26.8071

                     25                     26                     27
                      A                      A                      A
 Frequencies --    841.0721               901.3367               911.7036
 Red. masses --      5.7641                 1.3102                 1.4378
 Frc consts  --      2.4024                 0.6271                 0.7041
 IR Inten    --     17.7289                 6.2997                 8.9425

                     28                     29                     30
                      A                      A                      A
 Frequencies --    931.1722               950.9961               960.5030
 Red. masses --      1.5275                 3.3101                 1.3892
 Frc consts  --      0.7804                 1.7638                 0.7551
 IR Inten    --      2.5796                11.5180                 0.7475

                     31                     32                     33
                      A                      A                      A
 Frequencies --    979.7362               986.3547              1020.3962
 Red. masses --      1.2871                 1.4687                 4.4505
 Frc consts  --      0.7279                 0.8419                 2.7302
 IR Inten    --      0.2505                 0.3261                 2.0233

                     34                     35                     36
                      A                      A                      A
 Frequencies --   1028.9041              1034.0850              1048.5533
 Red. masses --      1.6479                 1.8477                 4.9830
 Frc consts  --      1.0279                 1.1641                 3.2279
 IR Inten    --      3.9331                 0.4873                 8.5003

                     37                     38                     39
                      A                      A                      A
 Frequencies --   1076.9151              1096.6770              1135.0100
 Red. masses --      1.5236                 2.3519                 1.5231
 Frc consts  --      1.0411                 1.6666                 1.1560
 IR Inten    --      5.5754                 1.4517                 3.7355

                     40                     41                     42
                      A                      A                      A
 Frequencies --   1200.3998              1206.1174              1214.3928
 Red. masses --      1.7094                 1.5560                 1.3230
 Frc consts  --      1.4513                 1.3337                 1.1495
 IR Inten    --     12.2197                22.0746                21.4312

                     43                     44                     45
                      A                      A                      A
 Frequencies --   1244.8880              1301.9902              1332.9997
 Red. masses --      2.4398                 5.2241                 2.5495
 Frc consts  --      2.2278                 5.2177                 2.6691
 IR Inten    --     24.0561                 3.3660                 9.2054

                     46                     47                     48
                      A                      A                      A
 Frequencies --   1345.4168              1361.2839              1371.5167
 Red. masses --      2.8362                 1.5592                 1.9063
 Frc consts  --      3.0248                 1.7024                 2.1127
 IR Inten    --     23.0741                 3.1238                 2.1171

                     49                     50                     51
                      A                      A                      A
 Frequencies --   1426.1927              1443.9083              1450.5902
 Red. masses --      1.5270                 1.2491                 2.3518
 Frc consts  --      1.8300                 1.5343                 2.9157
 IR Inten    --     21.7544                 0.2167                 4.5638

                     52                     53                     54
                      A                      A                      A
 Frequencies --   1478.4657              1505.5945              1516.0994
 Red. masses --      2.3970                 2.2535                 1.0509
 Frc consts  --      3.0871                 3.0097                 1.4232
 IR Inten    --     10.0214                16.3335                 5.2366

                     55                     56                     57
                      A                      A                      A
 Frequencies --   1525.9501              1546.6322              1616.9079
 Red. masses --      1.4251                 2.0648                 4.9388
 Frc consts  --      1.9551                 2.9101                 7.6075
 IR Inten    --      8.3533                 6.5059                46.4490

                     58                     59                     60
                      A                      A                      A
 Frequencies --   1645.3352              1653.5770              1667.8996
 Red. masses --      5.4378                 5.5852                 5.6434
 Frc consts  --      8.6733                 8.9979                 9.2497
 IR Inten    --     10.2888                13.8305                17.4441

                     61                     62                     63
                      A                      A                      A
 Frequencies --   1805.9540              2905.4727              3046.6215
 Red. masses --      9.8854                 1.0839                 1.0384
 Frc consts  --     18.9958                 5.3912                 5.6788
 IR Inten    --    271.8629               122.1667                29.6566

                     64                     65                     66
                      A                      A                      A
 Frequencies --   3101.5653              3130.0955              3179.5408
 Red. masses --      1.0992                 1.1018                 1.0896
 Frc consts  --      6.2300                 6.3599                 6.4900
 IR Inten    --     18.3841                14.3765                15.5384

                     67                     68                     69
                      A                      A                      A
 Frequencies --   3181.0429              3183.8402              3190.2130
 Red. masses --      1.0871                 1.0902                 1.0897
 Frc consts  --      6.4813                 6.5111                 6.5344
 IR Inten    --      1.2081                10.1200                11.4272

                     70                     71                     72
                      A                      A                      A
 Frequencies --   3193.6745              3205.2545              3208.6305
 Red. masses --      1.0898                 1.0913                 1.0962
 Frc consts  --      6.5491                 6.6059                 6.6494
 IR Inten    --     16.6910                 2.5120                19.8959

 - Thermochemistry -
 -------------------
 Temperature   298.150 Kelvin.  Pressure   1.00000 Atm.
 Atom     1 has atomic number  6 and mass  12.00000

 Molecular mass:   197.08406 amu.
 Principal axes and moments of inertia in atomic units:
                           1         2         3
     Eigenvalues --  1132.012476291.352017132.28027
           X            0.99996   0.00751   0.00428
           Y           -0.00758   0.99982   0.01739
           Z           -0.00415  -0.01742   0.99984
 This molecule is an asymmetric top.
 Rotational symmetry number  1.
 Warning -- assumption of classical behavior for rotation
           may cause significant error
 Rotational temperatures (Kelvin)      0.07651     0.01377     0.01214
 Rotational constants (GHZ):           1.59428     0.28686     0.25304
 Zero-point vibrational energy     543744.6 (Joules/Mol)
                                  129.95809 (Kcal/Mol)
 Warning -- explicit consideration of  18 degrees of freedom as
           vibrations may cause significant error
 Vibrational temperatures:     24.01    60.03   113.66   124.18   184.13
          (Kelvin)            287.29   311.54   335.90   370.88   401.97
                              482.71   567.93   637.27   645.68   683.81
                              758.94   780.95   866.92   924.58   965.32
                             1033.82  1046.72  1068.43  1157.92  1210.12
                             1296.82  1311.74  1339.75  1368.27  1381.95
                             1409.62  1419.14  1468.12  1480.36  1487.82
                             1508.63  1549.44  1577.87  1633.03  1727.11
                             1735.33  1747.24  1791.12  1873.27  1917.89
                             1935.75  1958.58  1973.31  2051.97  2077.46
                             2087.08  2127.18  2166.21  2181.33  2195.50
                             2225.26  2326.37  2367.27  2379.13  2399.74
                             2598.37  4180.33  4383.41  4462.46  4503.51
                             4574.65  4576.81  4580.84  4590.00  4594.99
                             4611.65  4616.50

 Zero-point correction=                           0.207101 (Hartree/Particle)
 Thermal correction to Energy=                    0.219868
 Thermal correction to Enthalpy=                  0.220812
 Thermal correction to Gibbs Free Energy=         0.165773
 Sum of electronic and zero-point Energies=           -631.829678
 Sum of electronic and thermal Energies=              -631.816912
 Sum of electronic and thermal Enthalpies=            -631.815968
 Sum of electronic and thermal Free Energies=         -631.871006

                     E (Thermal)             CV                S
                      KCal/Mol        Cal/Mol-Kelvin    Cal/Mol-Kelvin
 Total                  137.969             48.120            115.839
 Electronic               0.000              0.000              0.000
 Translational            0.889              2.981             41.740
 Rotational               0.889              2.981             32.296
 Vibrational            136.192             42.158             41.802
 Vibration     1          0.593              1.986              6.993
 Vibration     2          0.594              1.981              5.176
 Vibration     3          0.600              1.963              3.916
 Vibration     4          0.601              1.959              3.742
 Vibration     5          0.611              1.925              2.976
 Vibration     6          0.638              1.840              2.136
 Vibration     7          0.645              1.816              1.988
 Vibration     8          0.654              1.790              1.852
 Vibration     9          0.667              1.750              1.677
 Vibration    10          0.680              1.712              1.537
 Vibration    11          0.717              1.605              1.233
 Vibration    12          0.762              1.481              0.982
 Vibration    13          0.803              1.377              0.817
 Vibration    14          0.808              1.364              0.800
 Vibration    15          0.832              1.305              0.723
 Vibration    16          0.882              1.189              0.593
 Vibration    17          0.898              1.155              0.559
 Vibration    18          0.961              1.026              0.445

 Optimization completed on the basis of negligible forces.
    -- Stationary point found.
 Normal termination of Gaussian 16 at Thu Dec 10 17:15:05 2020.

 ----------------------------------------------------------------------
 # B3LYP/6-311++G(d,p) empiricaldispersion=gd3bj scf=xqc pop=npa geom=c
 heck
 ----------------------------------------------------------------------

 --------------------------------------
 CID_24729815_JID_5765_Energie_neutraal
 --------------------------------------
 Structure from the checkpoint file:  "JID_5765.chk"
 Charge =  0 Multiplicity = 1

 SCF Done:  E(RB3LYP) =  -632.199878954     A.U. after   17 cycles
 Normal termination of Gaussian 16 at Thu Dec 10 17:19:41 2020.

 ----------------------------------------------------------------------
 # B3LYP/6-311++G(d,p) empiricaldispersion=gd3bj scf=xqc pop=npa geom=c
 heck
 ----------------------------------------------------------------------

 ------------------------------------
 CID_24729815_JID_5765_Energie_kation
 ------------------------------------
 Structure from the checkpoint file:  "JID_5765.chk"
 Charge =  1 Multiplicity = 2

 SCF Done:  E(UB3LYP) =  -631.888795139     A.U. after   28 cycles
 Normal termination of Gaussian 16 at Thu Dec 10 17:28:42 2020.
 Gaussian 16:  ES64L-G16RevA.03 25-Dec-2016

 ----------------------------------------------------------------------
 # B3LYP/6-311++G(d,p) empiricaldispersion=gd3bj scf=xqc pop=npa geom=c
 heck
 ----------------------------------------------------------------------

 -----------------------------------
 CID_24729815_JID_5765_Energie_anion
 -----------------------------------
 Structure from the checkpoint file:  "JID_5765.chk"
 Charge = -1 Multiplicity = 2

                         Standard orientation:
 ---------------------------------------------------------------------
 Center     Atomic      Atomic             Coordinates (Angstroms)
 Number     Number       Type             X           Y           Z
 ---------------------------------------------------------------------
      1          6           0        4.442477    1.275046    0.735614
      2          6           0        3.373544    0.305275    0.293940
      3          6           0        2.029791    0.683912    0.262802
      4          6           0        1.023810   -0.201444   -0.154594
      5          6           0        1.386600   -1.497884   -0.544812
      6          6           0        2.723404   -1.889937   -0.514708
      7          6           0        3.709100   -0.997234   -0.099219
      8          6           0       -0.391937    0.225955   -0.178806
      9          6           0       -0.758585    1.525597   -0.570300
     10          7           0       -2.014472    1.987717   -0.609507
     11          6           0       -2.989714    1.147350   -0.260794
     12          6           0       -2.753393   -0.177801    0.134288
     13          6           0       -1.435826   -0.634749    0.176419
     14          6           0       -3.872017   -1.067720    0.513432
     15          8           0       -5.043751   -0.746489    0.501516
     16          1           0        4.007459    2.167754    1.194897
     17          1           0        5.121757    0.816546    1.463055
     18          1           0        5.053560    1.603372   -0.114665
     19          1           0        1.754348    1.680824    0.596362
     20          1           0        0.625808   -2.188942   -0.895762
     21          1           0        2.997716   -2.894847   -0.823012
     22          1           0        4.749666   -1.311624   -0.076884
     23          1           0        0.012470    2.224878   -0.887260
     24          1           0       -4.009296    1.522873   -0.289170
     25          1           0       -1.222804   -1.649671    0.504774
     26          1           0       -3.562892   -2.091470    0.822519
 ---------------------------------------------------------------------

 SCF Done:  E(UB3LYP) =  -632.227098866     A.U. after   28 cycles

 The electronic state is 2-A.
 Alpha  occ. eigenvalues --  -18.93748 -14.16383 -10.08321 -10.08264 -10.07523
 Alpha  occ. eigenvalues --  -10.07286 -10.07070 -10.06627 -10.06356 -10.06219
 Alpha  occ. eigenvalues --  -10.04829 -10.04479 -10.04429 -10.04324 -10.02390
 Alpha  occ. eigenvalues --   -0.87466  -0.79363  -0.75722  -0.68892  -0.66625
 Alpha  occ. eigenvalues --   -0.64770  -0.60700  -0.59121  -0.52074  -0.50266
 Alpha  occ. eigenvalues --   -0.49341  -0.46539  -0.42702  -0.40053  -0.37236
 Alpha  occ. eigenvalues --   -0.36792  -0.35336  -0.33646  -0.33192  -0.31601
 Alpha  occ. eigenvalues --   -0.31024  -0.29853  -0.29508  -0.27258  -0.26891
 Alpha  occ. eigenvalues --   -0.26257  -0.25501  -0.24815  -0.24003  -0.22917
 Alpha  occ. eigenvalues --   -0.22127  -0.17018  -0.14795  -0.13907  -0.12009
 Alpha  occ. eigenvalues --   -0.11075  -0.09192   0.03232
 Alpha virt. eigenvalues --    0.06520   0.07501   0.07909   0.08690   0.09404
 Alpha virt. eigenvalues --    0.10312   0.10727   0.11086   0.11681   0.12327
 Alpha virt. eigenvalues --    0.12738   0.13094   0.13670   0.14247   0.15104

  Beta  occ. eigenvalues --  -18.93267 -14.16539 -10.08321 -10.08276 -10.07284
  Beta  occ. eigenvalues --  -10.07258 -10.07016 -10.06555 -10.06341 -10.06189
  Beta  occ. eigenvalues --  -10.04785 -10.04460 -10.04009 -10.03994 -10.02316
  Beta  occ. eigenvalues --   -0.86590  -0.79120  -0.75645  -0.68780  -0.66546
  Beta  occ. eigenvalues --   -0.64484  -0.60265  -0.59026  -0.51518  -0.50068
  Beta  occ. eigenvalues --   -0.48890  -0.46364  -0.42396  -0.39858  -0.37083
  Beta  occ. eigenvalues --   -0.36604  -0.35206  -0.33583  -0.33049  -0.31461
  Beta  occ. eigenvalues --   -0.30928  -0.29745  -0.29338  -0.26740  -0.26309
  Beta  occ. eigenvalues --   -0.26002  -0.24864  -0.24643  -0.23939  -0.21925
  Beta  occ. eigenvalues --   -0.20860  -0.16511  -0.14618  -0.13083  -0.11971
  Beta  occ. eigenvalues --   -0.09426  -0.08834
  Beta virt. eigenvalues --    0.06484   0.07781   0.07916   0.08672   0.09367
  Beta virt. eigenvalues --    0.09846   0.10330   0.10709   0.11080   0.12062
  Beta virt. eigenvalues --    0.12504   0.12754   0.13104   0.13693   0.14217

 Mulliken charges and spin densities:
               1          2
     1  C   -0.420412   0.001503
     2  C    0.635681   0.004215
     3  C   -1.102361   0.049145
     4  C    0.809842   0.047106
     5  C   -0.300012  -0.024802
     6  C   -0.390040   0.005428
     7  C   -0.341857   0.025877
     8  C    0.434844  -0.029853
     9  C   -0.647727   0.334339
    10  N   -0.028444  -0.089933
    11  C   -0.491387   0.247239
    12  C    0.657061   0.060917
    13  C   -0.431536   0.047375
    14  C   -0.375884   0.212444
    15  O   -0.380145   0.163834
    16  H    0.147259  -0.000135
    17  H    0.120935   0.005048
    18  H    0.149783  -0.000066
    19  H    0.117318   0.000026
    20  H    0.130199   0.000588
    21  H    0.136606   0.000980
    22  H    0.113357  -0.005953
    23  H    0.117458  -0.019107
    24  H    0.177906  -0.018517
    25  H    0.126698  -0.001305
    26  H    0.034858  -0.016394
 Sum of Mulliken charges =  -1.00000   1.00000

 Dipole moment (field-independent basis, Debye):
    X=             11.3254    Y=             -1.4705    Z=              0.2818  Tot=             11.4240
 Quadrupole moment (field-independent basis, Debye-Ang):
   XX=           -161.9737   YY=           -101.5030   ZZ=            -98.1433
   XY=              1.3578   XZ=              3.7975   YZ=              4.4390

 Summary of Natural Population Analysis:

                                       Natural Population
                Natural  -----------------------------------------------
    Atom  No    Charge         Core      Valence    Rydberg      Total
 -----------------------------------------------------------------------
      C    1   -0.29037      0.99964     2.28615    0.00458     3.29037
      C    2   -0.02243      0.99952     2.01509    0.00783     3.02243
      C    3   -0.09264      0.99948     2.08555    0.00760     3.09264
      C    4   -0.00043      0.99950     1.99163    0.00930     3.00043
      C    5   -0.10044      0.99953     2.09285    0.00806     3.10044
      C    6   -0.10047      0.99958     2.09167    0.00922     3.10047
      C    7   -0.10471      0.99952     2.09621    0.00899     3.10471
      C    8   -0.07088      0.99949     2.05967    0.01172     3.07088
      C    9    0.11899      0.99956     1.86789    0.01357     2.88101
      N   10   -0.26844      0.99972     2.75590    0.01282     3.76844
      C   11    0.09643      0.99960     1.88559    0.01839     2.90357
      C   12   -0.04044      0.99949     2.03322    0.00773     3.04044
      C   13   -0.06988      0.99954     2.05747    0.01287     3.06988
      C   14    0.22634      0.99973     1.74799    0.02594     2.77366
      O   15   -0.24921      0.99988     3.24107    0.00826     4.24921
      H   16    0.10042      0.00000     0.39874    0.00084     0.39958
      H   17    0.09841      0.00000     0.40064    0.00095     0.40159
      H   18    0.09971      0.00000     0.39933    0.00095     0.40029
      H   19    0.10009      0.00000     0.39846    0.00145     0.39991
      H   20    0.10063      0.00000     0.39799    0.00138     0.39937
      H   21    0.09377      0.00000     0.40516    0.00107     0.40623
      H   22    0.09127      0.00000     0.40742    0.00131     0.40873
      H   23    0.07560      0.00000     0.42291    0.00149     0.42440
      H   24    0.08820      0.00000     0.41029    0.00151     0.41180
      H   25    0.09284      0.00000     0.40548    0.00168     0.40716
      H   26    0.02776      0.00000     0.46954    0.00270     0.47224
 =======================================================================
   * Total *    0.00012     14.99376    36.82390    0.18222    51.99988

 Normal termination of Gaussian 16 at Thu Dec 10 17:39:20 2020.
