 Gaussian 16, Revision A.03,

 -----------------------------------------------------------
 # opt freq B3LYP/6-31G(d) empiricaldispersion=gd3bj scf=xqc
 -----------------------------------------------------------

 --------------------------------
 CID_123919256_JID_10727_neutraal
 --------------------------------
 Symbolic Z-matrix:
 Charge =  0 Multiplicity = 1

 SCF Done:  E(RB3LYP) =  -897.758757874     A.U. after   14 cycles
 SCF Done:  E(RB3LYP) =  -897.765162796     A.U. after   12 cycles
 SCF Done:  E(RB3LYP) =  -897.766208933     A.U. after   12 cycles
 SCF Done:  E(RB3LYP) =  -897.766576584     A.U. after   12 cycles
 SCF Done:  E(RB3LYP) =  -897.766843629     A.U. after   12 cycles
 SCF Done:  E(RB3LYP) =  -897.767087467     A.U. after   12 cycles
 SCF Done:  E(RB3LYP) =  -897.767188580     A.U. after   10 cycles
 SCF Done:  E(RB3LYP) =  -897.767415030     A.U. after   12 cycles
 SCF Done:  E(RB3LYP) =  -897.767730790     A.U. after   12 cycles
 SCF Done:  E(RB3LYP) =  -897.768902876     A.U. after   14 cycles
 SCF Done:  E(RB3LYP) =  -897.781740205     A.U. after    9 cycles
 SCF Done:  E(RB3LYP) =  -897.781747746     A.U. after   10 cycles
 SCF Done:  E(RB3LYP) =  -897.781748914     A.U. after    8 cycles
 SCF Done:  E(RB3LYP) =  -897.781749413     A.U. after    8 cycles
 SCF Done:  E(RB3LYP) =  -897.781749526     A.U. after    7 cycles
 Optimization completed.
    -- Stationary point found.
 Normal termination of Gaussian 16 at Sun Dec 13 17:47:31 2020.

 --------------------------------------------------------------------
 #N Geom=AllCheck Guess=TCheck SCRF=Check GenChk RB3LYP/6-31G(d) Freq
 --------------------------------------------------------------------

 Structure from the checkpoint file:  "JID_10727.chk"
 --------------------------------
 CID_123919256_JID_10727_neutraal
 --------------------------------
 Charge =  0 Multiplicity = 1

 SCF Done:  E(RB3LYP) =  -897.781749525     A.U. after    1 cycles

  Exact polarizability: 183.982 -11.851 171.909 -18.666 -23.171 140.490
 Approx polarizability: 264.666 -19.291 283.882 -47.090 -59.305 246.904

                      1                      2                      3
                      A                      A                      A
 Frequencies --     30.3126                40.8325                57.2866
 Red. masses --      5.1110                 4.3738                 4.2971
 Frc consts  --      0.0028                 0.0043                 0.0083
 IR Inten    --      0.4809                 0.4019                 1.0369

                      4                      5                      6
                      A                      A                      A
 Frequencies --     81.0845                99.6576               102.0030
 Red. masses --      3.9236                 4.4370                 5.1779
 Frc consts  --      0.0152                 0.0260                 0.0317
 IR Inten    --      3.7681                 2.2619                 0.5073

                      7                      8                      9
                      A                      A                      A
 Frequencies --    117.2588               157.2892               199.8326
 Red. masses --      3.8729                 4.6356                 3.4368
 Frc consts  --      0.0314                 0.0676                 0.0809
 IR Inten    --      0.6590                 1.1680                 2.0443

                     10                     11                     12
                      A                      A                      A
 Frequencies --    220.9796               237.6905               259.9126
 Red. masses --      3.7888                 3.2651                 2.8235
 Frc consts  --      0.1090                 0.1087                 0.1124
 IR Inten    --      3.0641                16.1063                17.8845

                     13                     14                     15
                      A                      A                      A
 Frequencies --    276.0135               294.2223               334.8555
 Red. masses --      1.5146                 2.4766                 2.1133
 Frc consts  --      0.0680                 0.1263                 0.1396
 IR Inten    --     67.3119                27.3518                 3.1989

                     16                     17                     18
                      A                      A                      A
 Frequencies --    345.2129               369.2806               412.8465
 Red. masses --      2.2907                 2.5236                 3.4019
 Frc consts  --      0.1608                 0.2028                 0.3416
 IR Inten    --     15.0099                11.9378                 1.3921

                     19                     20                     21
                      A                      A                      A
 Frequencies --    420.0970               425.2657               449.3650
 Red. masses --      2.9552                 2.5240                 1.8387
 Frc consts  --      0.3073                 0.2689                 0.2188
 IR Inten    --      0.9795                47.8458                99.9248

                     22                     23                     24
                      A                      A                      A
 Frequencies --    470.9343               492.6460               495.3586
 Red. masses --      2.8503                 4.0957                 5.1520
 Frc consts  --      0.3724                 0.5857                 0.7449
 IR Inten    --     14.2344                11.1896                20.4677

                     25                     26                     27
                      A                      A                      A
 Frequencies --    514.0732               570.2370               593.3698
 Red. masses --      5.1120                 3.7463                 4.3128
 Frc consts  --      0.7960                 0.7177                 0.8947
 IR Inten    --      9.7416                 1.2509                 6.1894

                     28                     29                     30
                      A                      A                      A
 Frequencies --    618.0737               635.9064               640.3396
 Red. masses --      3.5355                 5.7142                 3.6887
 Frc consts  --      0.7958                 1.3614                 0.8911
 IR Inten    --      9.3378                 0.4734                 3.7405

                     31                     32                     33
                      A                      A                      A
 Frequencies --    715.3611               730.8106               757.1346
 Red. masses --      1.9948                 3.2100                 2.4918
 Frc consts  --      0.6015                 1.0101                 0.8416
 IR Inten    --     33.3774                39.4021                31.3916

                     34                     35                     36
                      A                      A                      A
 Frequencies --    765.2899               799.6661               804.7753
 Red. masses --      1.8701                 4.2527                 2.9887
 Frc consts  --      0.6453                 1.6023                 1.1405
 IR Inten    --     36.7729                29.7864                33.9131

                     37                     38                     39
                      A                      A                      A
 Frequencies --    848.0254               862.8627               888.7589
 Red. masses --      3.3435                 1.2487                 2.7197
 Frc consts  --      1.4167                 0.5478                 1.2657
 IR Inten    --     74.5683                 2.1347                18.6291

                     40                     41                     42
                      A                      A                      A
 Frequencies --    909.4025               915.7335               945.6719
 Red. masses --      2.1833                 1.6274                 1.8864
 Frc consts  --      1.0638                 0.8040                 0.9939
 IR Inten    --      3.5089                 3.8433                20.6109

                     43                     44                     45
                      A                      A                      A
 Frequencies --    964.4322               967.3657               970.9146
 Red. masses --      2.4571                 1.5270                 2.3736
 Frc consts  --      1.3466                 0.8419                 1.3183
 IR Inten    --      3.3066                 4.9219                13.7725

                     46                     47                     48
                      A                      A                      A
 Frequencies --    993.2623               997.2780              1011.8413
 Red. masses --      1.2650                 2.9346                 4.6732
 Frc consts  --      0.7353                 1.7196                 2.8190
 IR Inten    --      1.4914                23.0316                88.4311

                     49                     50                     51
                      A                      A                      A
 Frequencies --   1023.6728              1035.0201              1057.4258
 Red. masses --      5.8249                 1.9536                 2.2617
 Frc consts  --      3.5964                 1.2330                 1.4900
 IR Inten    --      1.9424                10.2817                 0.4914

                     52                     53                     54
                      A                      A                      A
 Frequencies --   1069.6380              1089.4065              1102.0649
 Red. masses --      2.5146                 2.3731                 2.1788
 Frc consts  --      1.6951                 1.6594                 1.5591
 IR Inten    --      1.0872                11.4349                 7.0176

                     55                     56                     57
                      A                      A                      A
 Frequencies --   1126.3305              1142.7480              1149.8568
 Red. masses --      1.7005                 3.3442                 3.4367
 Frc consts  --      1.2711                 2.5730                 2.6772
 IR Inten    --     10.4297                15.6121                35.5957

                     58                     59                     60
                      A                      A                      A
 Frequencies --   1171.0978              1191.7877              1207.4466
 Red. masses --      3.5976                 1.1005                 2.1823
 Frc consts  --      2.9070                 0.9209                 1.8746
 IR Inten    --    103.8866                 0.5225                48.3176

                     61                     62                     63
                      A                      A                      A
 Frequencies --   1215.3589              1224.8163              1229.0218
 Red. masses --      1.1550                 3.0727                 1.4493
 Frc consts  --      1.0052                 2.7159                 1.2898
 IR Inten    --      3.8922                 5.9827                11.4769

                     64                     65                     66
                      A                      A                      A
 Frequencies --   1238.0984              1255.8770              1261.3805
 Red. masses --      1.4542                 1.3930                 1.2092
 Frc consts  --      1.3133                 1.2945                 1.1336
 IR Inten    --      8.8469                15.8856                33.9398

                     67                     68                     69
                      A                      A                      A
 Frequencies --   1288.9021              1299.6065              1327.6415
 Red. masses --      1.4515                 1.8991                 1.2645
 Frc consts  --      1.4207                 1.8898                 1.3132
 IR Inten    --     29.3456                19.0350                 2.4946

                     70                     71                     72
                      A                      A                      A
 Frequencies --   1341.1060              1364.1119              1367.6532
 Red. masses --      1.5105                 1.9860                 1.4184
 Frc consts  --      1.6007                 2.1773                 1.5631
 IR Inten    --      2.0376                 3.2188                 3.2475

                     73                     74                     75
                      A                      A                      A
 Frequencies --   1369.1653              1382.1910              1391.7693
 Red. masses --      1.3597                 1.3392                 1.4112
 Frc consts  --      1.5018                 1.5075                 1.6105
 IR Inten    --     20.3271                 2.4878                 1.7473

                     76                     77                     78
                      A                      A                      A
 Frequencies --   1403.7670              1412.8766              1435.5138
 Red. masses --      1.3541                 1.7591                 1.3752
 Frc consts  --      1.5722                 2.0690                 1.6696
 IR Inten    --      7.5700                 6.9549                21.2785

                     79                     80                     81
                      A                      A                      A
 Frequencies --   1447.3548              1497.0107              1500.7780
 Red. masses --      1.8085                 1.0891                 1.8759
 Frc consts  --      2.2322                 1.4380                 2.4894
 IR Inten    --      6.9767                 9.2782                 4.0455

                     82                     83                     84
                      A                      A                      A
 Frequencies --   1503.3031              1508.6803              1521.5650
 Red. masses --      1.0991                 1.1911                 1.0957
 Frc consts  --      1.4635                 1.5974                 1.4946
 IR Inten    --      1.3037                10.6581                 3.4808

                     85                     86                     87
                      A                      A                      A
 Frequencies --   1524.5970              1531.5068              1544.0911
 Red. masses --      1.2187                 1.1636                 2.1402
 Frc consts  --      1.6690                 1.6080                 3.0064
 IR Inten    --     33.3708                13.5905                11.6891

                     88                     89                     90
                      A                      A                      A
 Frequencies --   1547.7601              1644.2359              1663.8867
 Red. masses --      1.9792                 5.4478                 5.5617
 Frc consts  --      2.7935                 8.6776                 9.0721
 IR Inten    --    145.5940                 0.4838                 1.2540

                     91                     92                     93
                      A                      A                      A
 Frequencies --   1716.5757              1783.0737              2937.2794
 Red. masses --      6.3708                 8.1359                 1.0742
 Frc consts  --     11.0604                15.2404                 5.4602
 IR Inten    --     72.8713                62.4330                40.9565

                     94                     95                     96
                      A                      A                      A
 Frequencies --   2950.8725              2993.3490              3037.5761
 Red. masses --      1.0823                 1.0719                 1.0599
 Frc consts  --      5.5526                 5.6585                 5.7618
 IR Inten    --    167.8046                69.1775                26.5452

                     97                     98                     99
                      A                      A                      A
 Frequencies --   3039.8922              3055.9071              3076.3732
 Red. masses --      1.0616                 1.0597                 1.1008
 Frc consts  --      5.7800                 5.8304                 6.1380
 IR Inten    --     54.2911                30.2828                22.4288

                    100                    101                    102
                      A                      A                      A
 Frequencies --   3083.6299              3098.8693              3110.9738
 Red. masses --      1.1032                 1.1054                 1.0873
 Frc consts  --      6.1804                 6.2542                 6.2000
 IR Inten    --     19.1796                20.9165                15.3362

                    103                    104                    105
                      A                      A                      A
 Frequencies --   3114.8207              3167.0422              3185.0508
 Red. masses --      1.0944                 1.0869                 1.0887
 Frc consts  --      6.2558                 6.4229                 6.5074
 IR Inten    --     40.8100                 9.0057                14.1487

                    106                    107                    108
                      A                      A                      A
 Frequencies --   3200.0165              3211.8612              3224.8688
 Red. masses --      1.0936                 1.0890                 1.0958
 Frc consts  --      6.5978                 6.6190                 6.7146
 IR Inten    --     19.7920                 8.5844                 6.1200

                    109                    110                    111
                      A                      A                      A
 Frequencies --   3498.8565              3610.8931              3719.6801
 Red. masses --      1.0736                 1.0771                 1.0654
 Frc consts  --      7.7437                 8.2746                 8.6850
 IR Inten    --      3.2548                27.8555                14.4475

 - Thermochemistry -
 -------------------
 Temperature   298.150 Kelvin.  Pressure   1.00000 Atm.
 Atom     1 has atomic number  6 and mass  12.00000

 Molecular mass:   273.14773 amu.
 Principal axes and moments of inertia in atomic units:
                           1         2         3
     Eigenvalues --  3350.200815666.536936884.53107
           X            0.99998  -0.00678   0.00022
           Y            0.00678   0.99948  -0.03148
           Z           -0.00001   0.03148   0.99950
 This molecule is an asymmetric top.
 Rotational symmetry number  1.
 Warning -- assumption of classical behavior for rotation
           may cause significant error
 Rotational temperatures (Kelvin)      0.02585     0.01529     0.01258
 Rotational constants (GHZ):           0.53870     0.31849     0.26214
 Zero-point vibrational energy     868718.6 (Joules/Mol)
                                  207.62873 (Kcal/Mol)
 Warning -- explicit consideration of  28 degrees of freedom as
           vibrations may cause significant error
 Vibrational temperatures:     43.61    58.75    82.42   116.66   143.39
          (Kelvin)            146.76   168.71   226.30   287.51   317.94
                              341.98   373.96   397.12   423.32   481.78
                              496.68   531.31   593.99   604.43   611.86
                              646.54   677.57   708.81   712.71   739.64
                              820.44   853.73   889.27   914.93   921.31
                             1029.25  1051.47  1089.35  1101.08  1150.54
                             1157.89  1220.12  1241.47  1278.73  1308.43
                             1317.54  1360.61  1387.60  1391.82  1396.93
                             1429.08  1434.86  1455.81  1472.84  1489.16
                             1521.40  1538.97  1567.41  1585.63  1620.54
                             1644.16  1654.39  1684.95  1714.72  1737.25
                             1748.63  1762.24  1768.29  1781.35  1806.93
                             1814.85  1854.44  1869.84  1910.18  1929.55
                             1962.65  1967.75  1969.92  1988.66  2002.45
                             2019.71  2032.81  2065.38  2082.42  2153.86
                             2159.28  2162.92  2170.65  2189.19  2193.56
                             2203.50  2221.60  2226.88  2365.69  2393.96
                             2469.77  2565.45  4226.09  4245.65  4306.76
                             4370.39  4373.73  4396.77  4426.21  4436.66
                             4458.58  4476.00  4481.53  4556.67  4582.58
                             4604.11  4621.15  4639.87  5034.07  5195.27
                             5351.79

 Zero-point correction=                           0.330877 (Hartree/Particle)
 Thermal correction to Energy=                    0.348336
 Thermal correction to Enthalpy=                  0.349281
 Thermal correction to Gibbs Free Energy=         0.285298
 Sum of electronic and zero-point Energies=           -897.450872
 Sum of electronic and thermal Energies=              -897.433413
 Sum of electronic and thermal Enthalpies=            -897.432469
 Sum of electronic and thermal Free Energies=         -897.496452

                     E (Thermal)             CV                S
                      KCal/Mol        Cal/Mol-Kelvin    Cal/Mol-Kelvin
 Total                  218.584             69.030            134.663
 Electronic               0.000              0.000              0.000
 Translational            0.889              2.981             42.713
 Rotational               0.889              2.981             33.235
 Vibrational            216.807             63.068             58.715
 Vibration     1          0.594              1.984              5.809
 Vibration     2          0.594              1.981              5.218
 Vibration     3          0.596              1.975              4.549
 Vibration     4          0.600              1.962              3.864
 Vibration     5          0.604              1.949              3.461
 Vibration     6          0.604              1.948              3.416
 Vibration     7          0.608              1.935              3.145
 Vibration     8          0.621              1.894              2.582
 Vibration     9          0.638              1.840              2.135
 Vibration    10          0.648              1.809              1.951
 Vibration    11          0.656              1.783              1.820
 Vibration    12          0.668              1.746              1.662
 Vibration    13          0.678              1.718              1.558
 Vibration    14          0.689              1.685              1.450
 Vibration    15          0.716              1.606              1.237
 Vibration    16          0.724              1.585              1.188
 Vibration    17          0.742              1.535              1.083
 Vibration    18          0.777              1.442              0.917
 Vibration    19          0.783              1.427              0.892
 Vibration    20          0.787              1.415              0.874
 Vibration    21          0.808              1.362              0.798
 Vibration    22          0.828              1.315              0.735
 Vibration    23          0.848              1.266              0.677
 Vibration    24          0.851              1.260              0.670
 Vibration    25          0.869              1.219              0.624
 Vibration    26          0.926              1.096              0.504
 Vibration    27          0.951              1.046              0.461
 Vibration    28          0.978              0.994              0.420

                           ! Non-Optimized Parameters !
 Normal termination of Gaussian 16 at Sun Dec 13 18:12:04 2020.

 ----------------------------------------------------------------------
 # B3LYP/6-311++G(d,p) empiricaldispersion=gd3bj scf=xqc pop=npa geom=c
 heck
 ----------------------------------------------------------------------

 ----------------------------------------
 CID_123919256_JID_10727_Energie_neutraal
 ----------------------------------------
 Structure from the checkpoint file:  "JID_10727.chk"
 Charge =  0 Multiplicity = 1

 SCF Done:  E(RB3LYP) =  -898.037946404     A.U. after   15 cycles
 Normal termination of Gaussian 16 at Sun Dec 13 18:20:57 2020.

 ----------------------------------------------------------------------
 # B3LYP/6-311++G(d,p) empiricaldispersion=gd3bj scf=xqc pop=npa geom=c
 heck
 ----------------------------------------------------------------------

 --------------------------------------
 CID_123919256_JID_10727_Energie_kation
 --------------------------------------
 Structure from the checkpoint file:  "JID_10727.chk"
 Charge =  1 Multiplicity = 2

 SCF Done:  E(UB3LYP) =  -897.760242154     A.U. after   27 cycles
 Normal termination of Gaussian 16 at Sun Dec 13 18:41:41 2020.
 Gaussian 16:  ES64L-G16RevA.03 25-Dec-2016

 ----------------------------------------------------------------------
 # B3LYP/6-311++G(d,p) empiricaldispersion=gd3bj scf=xqc pop=npa geom=c
 heck
 ----------------------------------------------------------------------

 -------------------------------------
 CID_123919256_JID_10727_Energie_anion
 -------------------------------------
 Structure from the checkpoint file:  "JID_10727.chk"
 Charge = -1 Multiplicity = 2

                         Standard orientation:
 ---------------------------------------------------------------------
 Center     Atomic      Atomic             Coordinates (Angstroms)
 Number     Number       Type             X           Y           Z
 ---------------------------------------------------------------------
      1          6           0       -2.075187    1.135324   -1.388474
      2          6           0       -3.548017    0.952663   -1.013985
      3          8           0       -3.676999    0.614049    0.356157
      4          6           0       -3.126018   -0.662842    0.650209
      5          6           0       -1.774719   -0.890369    0.028324
      6          6           0       -1.293664   -0.046823   -0.893936
      7          7           0       -0.030591   -0.267423   -1.453566
      8          6           0        0.741814   -1.301019   -0.978299
      9          7           0        0.334415   -2.202274   -0.160021
     10          6           0       -0.966061   -2.075981    0.474319
     11          8           0       -0.783669   -1.954053    1.897753
     12          6           0        2.178035   -1.392079   -1.481586
     13          7           0        3.168713   -1.442927   -0.409014
     14          6           0        3.552289   -0.134990    0.138833
     15          6           0        2.426188    0.833850    0.466825
     16          6           0        2.316749    2.050675   -0.216085
     17          6           0        1.253743    2.922019    0.036639
     18          6           0        0.278353    2.576476    0.972999
     19          6           0        0.372662    1.359258    1.652769
     20          6           0        1.444279    0.504604    1.409622
     21          1           0       -1.971590    1.230569   -2.478194
     22          1           0       -1.679261    2.055445   -0.939512
     23          1           0       -3.999422    0.171880   -1.648354
     24          1           0       -4.111280    1.878821   -1.157263
     25          1           0       -3.045330   -0.714133    1.739603
     26          1           0       -3.826369   -1.460752    0.335869
     27          1           0        0.445323    0.525063   -1.863062
     28          1           0       -1.523664   -3.011327    0.291509
     29          1           0       -0.212723   -2.699395    2.148819
     30          1           0        2.260649   -2.309815   -2.075403
     31          1           0        2.413115   -0.552526   -2.145756
     32          1           0        2.782979   -2.036725    0.323408
     33          1           0        4.150229   -0.335722    1.035773
     34          1           0        4.225761    0.344727   -0.583186
     35          1           0        3.074067    2.318967   -0.950100
     36          1           0        1.188594    3.866681   -0.497088
     37          1           0       -0.555076    3.245645    1.168054
     38          1           0       -0.397060    1.060617    2.356714
     39          1           0        1.475962   -0.454216    1.916049
 ---------------------------------------------------------------------

 SCF Done:  E(UB3LYP) =  -898.027297505     A.U. after   33 cycles
 SCF Done:  E(UB3LYP) =  -898.027297506     a.u. after    1 cycles

 The electronic state is 2-A.
 Alpha  occ. eigenvalues --  -19.03669 -19.03291 -14.25857 -14.21190 -14.19761
 Alpha  occ. eigenvalues --  -10.16192 -10.15745 -10.13079 -10.12798 -10.12269
 Alpha  occ. eigenvalues --  -10.11302 -10.10859 -10.08679 -10.08405 -10.08091
 Alpha  occ. eigenvalues --  -10.08055 -10.08008 -10.07967 -10.07764 -10.07562
 Alpha  occ. eigenvalues --   -0.95262  -0.94087  -0.89354  -0.82329  -0.79031
 Alpha  occ. eigenvalues --   -0.76235  -0.72029  -0.68363  -0.67321  -0.65337
 Alpha  occ. eigenvalues --   -0.62963  -0.59102  -0.57554  -0.56054  -0.54254
 Alpha  occ. eigenvalues --   -0.51305  -0.49250  -0.48397  -0.45749  -0.45588
 Alpha  occ. eigenvalues --   -0.42364  -0.42188  -0.41077  -0.39703  -0.38320
 Alpha  occ. eigenvalues --   -0.37784  -0.37132  -0.36575  -0.36404  -0.34492
 Alpha  occ. eigenvalues --   -0.33549  -0.33068  -0.32538  -0.32025  -0.31779
 Alpha  occ. eigenvalues --   -0.30832  -0.30140  -0.29078  -0.28151  -0.27642
 Alpha  occ. eigenvalues --   -0.27065  -0.26211  -0.25407  -0.24698  -0.23219
 Alpha  occ. eigenvalues --   -0.19819  -0.19254  -0.18551  -0.16678  -0.16446
 Alpha  occ. eigenvalues --   -0.15908  -0.14050  -0.12219   0.04093
 Alpha virt. eigenvalues --    0.06094   0.06462   0.06906   0.07102   0.07434
 Alpha virt. eigenvalues --    0.08092   0.08293   0.08651   0.09183   0.09281
 Alpha virt. eigenvalues --    0.09582   0.10426   0.10622   0.11285   0.11427

  Beta  occ. eigenvalues --  -19.03664 -19.03285 -14.25842 -14.21188 -14.19747
  Beta  occ. eigenvalues --  -10.16189 -10.15738 -10.13075 -10.12778 -10.12262
  Beta  occ. eigenvalues --  -10.11284 -10.10848 -10.08678 -10.08375 -10.08075
  Beta  occ. eigenvalues --  -10.08044 -10.07998 -10.07947 -10.07755 -10.07550
  Beta  occ. eigenvalues --   -0.95252  -0.94072  -0.89329  -0.82314  -0.79005
  Beta  occ. eigenvalues --   -0.76211  -0.71995  -0.68326  -0.67296  -0.65303
  Beta  occ. eigenvalues --   -0.62935  -0.59072  -0.57523  -0.56018  -0.54215
  Beta  occ. eigenvalues --   -0.51268  -0.49215  -0.48352  -0.45722  -0.45555
  Beta  occ. eigenvalues --   -0.42323  -0.42164  -0.41049  -0.39680  -0.38288
  Beta  occ. eigenvalues --   -0.37752  -0.37102  -0.36540  -0.36377  -0.34463
  Beta  occ. eigenvalues --   -0.33519  -0.33041  -0.32506  -0.31993  -0.31745
  Beta  occ. eigenvalues --   -0.30789  -0.30113  -0.29053  -0.28125  -0.27615
  Beta  occ. eigenvalues --   -0.27036  -0.26186  -0.25374  -0.24671  -0.23199
  Beta  occ. eigenvalues --   -0.19806  -0.19206  -0.18518  -0.16649  -0.16417
  Beta  occ. eigenvalues --   -0.15881  -0.14030  -0.12176
  Beta virt. eigenvalues --    0.06004   0.06728   0.06998   0.07169   0.07513
  Beta virt. eigenvalues --    0.07643   0.08443   0.08671   0.08926   0.09325
  Beta virt. eigenvalues --    0.09633   0.09910   0.10764   0.10857   0.11515

 Mulliken charges and spin densities:
               1          2
     1  C   -0.267563  -0.408970
     2  C    0.051681  -0.524434
     3  O   -0.098103   0.022823
     4  C    0.130532  -0.454224
     5  C   -0.027953  -0.091292
     6  C    0.509560   0.507101
     7  N   -0.118198   0.122357
     8  C   -0.292709   0.271929
     9  N   -0.043791   0.074668
    10  C    0.114626  -0.623924
    11  O   -0.168103   0.006083
    12  C    0.173265  -1.036684
    13  N   -0.039558   0.088586
    14  C    0.780469  -1.691961
    15  C   -0.433179   1.005388
    16  C    0.312330  -0.507446
    17  C    0.276912  -0.631318
    18  C    1.176697  -1.688150
    19  C   -0.219598   0.166236
    20  C   -1.279663   1.214730
    21  H   -0.896378   1.072595
    22  H    0.523529  -0.312715
    23  H    0.156874  -0.025040
    24  H   -0.484690   0.684339
    25  H    0.204309   0.002510
    26  H    0.045214   0.102576
    27  H    0.157465   0.096232
    28  H    0.025501   0.142775
    29  H    0.189856   0.063184
    30  H    0.017411   0.192340
    31  H   -0.277258   0.448936
    32  H    0.188662   0.042807
    33  H    0.048387   0.119144
    34  H   -0.056817   0.228036
    35  H   -0.649342   0.822447
    36  H   -0.988836   1.185545
    37  H    0.005049   0.164044
    38  H    0.164276   0.031139
    39  H    0.089134   0.117610
 Sum of Mulliken charges =  -1.00000   1.00000

 Dipole moment (field-independent basis, Debye):
    X=             -1.0270    Y=             -5.9574    Z=              4.9767  Tot=              7.8302
 Quadrupole moment (field-independent basis, Debye-Ang):
   XX=           -183.4534   YY=           -178.6241   ZZ=           -163.4489
   XY=              1.5817   XZ=              4.3326   YZ=              9.5525

 Summary of Natural Population Analysis:

                                       Natural Population
                Natural  -----------------------------------------------
    Atom  No    Charge         Core      Valence    Rydberg      Total
 -----------------------------------------------------------------------
      C    1   -0.21894      0.99959     2.20937    0.00998     3.21894
      C    2   -0.00416      0.99959     1.99123    0.01333     3.00416
      O    3   -0.29618      0.99989     3.28740    0.00889     4.29618
      C    4   -0.00915      0.99953     1.99884    0.01077     3.00915
      C    5   -0.06363      0.99940     2.05371    0.01052     3.06363
      C    6    0.09893      0.99938     1.88743    0.01425     2.90107
      N    7   -0.30507      0.99961     2.79356    0.01190     3.80507
      C    8    0.23751      0.99959     1.74521    0.01769     2.76249
      N    9   -0.29552      0.99963     2.78543    0.01045     3.79552
      C   10    0.13641      0.99953     1.84657    0.01749     2.86359
      O   11   -0.37854      0.99990     3.37185    0.00680     4.37854
      C   12   -0.10867      0.99958     2.09631    0.01279     3.10867
      N   13   -0.33220      0.99976     2.82175    0.01069     3.83220
      C   14   -0.09352      0.99958     2.08177    0.01217     3.09352
      C   15   -0.03460      0.99949     2.02434    0.01077     3.03460
      C   16   -0.10775      0.99950     2.09656    0.01169     3.10775
      C   17   -0.10042      0.99955     2.08923    0.01164     3.10042
      C   18   -0.10590      0.99955     2.09594    0.01041     3.10590
      C   19   -0.09564      0.99955     2.08620    0.00989     3.09564
      C   20   -0.09913      0.99950     2.08962    0.01001     3.09913
      H   21    0.10919      0.00000     0.38857    0.00225     0.39081
      H   22    0.11294      0.00000     0.38494    0.00212     0.38706
      H   23    0.07688      0.00000     0.42166    0.00145     0.42312
      H   24    0.09366      0.00000     0.40487    0.00147     0.40634
      H   25    0.10054      0.00000     0.39773    0.00173     0.39946
      H   26    0.07789      0.00000     0.42054    0.00157     0.42211
      H   27    0.20486      0.00000     0.29050    0.00464     0.29514
      H   28    0.07206      0.00000     0.42625    0.00169     0.42794
      H   29    0.22796      0.00000     0.26891    0.00313     0.27204
      H   30    0.10587      0.00000     0.39297    0.00117     0.39413
      H   31    0.09857      0.00000     0.39985    0.00158     0.40143
      H   32    0.17856      0.00000     0.31835    0.00309     0.32144
      H   33    0.09876      0.00000     0.40038    0.00086     0.40124
      H   34    0.09441      0.00000     0.40416    0.00143     0.40559
      H   35    0.10390      0.00000     0.39399    0.00211     0.39610
      H   36    0.10579      0.00000     0.39196    0.00226     0.39421
      H   37    0.10315      0.00000     0.39575    0.00110     0.39685
      H   38    0.10554      0.00000     0.39305    0.00141     0.39446
      H   39    0.10562      0.00000     0.39256    0.00182     0.39438
 =======================================================================
   * Total *   -0.00000     19.99171    52.73929    0.26900    73.00000

 Normal termination of Gaussian 16 at Sun Dec 13 19:07:02 2020.
