 Gaussian 16, Revision A.03,

 -----------------------------------------------------------
 # opt freq B3LYP/6-31G(d) empiricaldispersion=gd3bj scf=xqc
 -----------------------------------------------------------

 ------------------------------
 CID_66277300_JID_5929_neutraal
 ------------------------------
 Symbolic Z-matrix:
 Charge =  0 Multiplicity = 1

 SCF Done:  E(RB3LYP) =  -1096.93072698     A.U. after   14 cycles
 SCF Done:  E(RB3LYP) =  -1096.94058211     A.U. after   12 cycles
 SCF Done:  E(RB3LYP) =  -1096.94047847     A.U. after   13 cycles
 SCF Done:  E(RB3LYP) =  -1096.94226549     A.U. after   12 cycles
 SCF Done:  E(RB3LYP) =  -1096.94294903     A.U. after   11 cycles
 SCF Done:  E(RB3LYP) =  -1096.94311513     A.U. after   11 cycles
 SCF Done:  E(RB3LYP) =  -1096.94320902     A.U. after   11 cycles
 SCF Done:  E(RB3LYP) =  -1096.94324260     A.U. after   11 cycles
 SCF Done:  E(RB3LYP) =  -1096.94326295     A.U. after   10 cycles
 SCF Done:  E(RB3LYP) =  -1096.94327200     A.U. after    9 cycles
 SCF Done:  E(RB3LYP) =  -1096.94327544     A.U. after    8 cycles
 SCF Done:  E(RB3LYP) =  -1096.94327792     A.U. after    8 cycles
 SCF Done:  E(RB3LYP) =  -1096.94327978     A.U. after    8 cycles
 SCF Done:  E(RB3LYP) =  -1096.94328073     A.U. after    8 cycles
 SCF Done:  E(RB3LYP) =  -1096.94328111     A.U. after    8 cycles
 SCF Done:  E(RB3LYP) =  -1096.94328119     A.U. after    7 cycles
 Optimization completed.
    -- Stationary point found.
 Normal termination of Gaussian 16 at Thu Dec 10 17:51:13 2020.

 --------------------------------------------------------------------
 #N Geom=AllCheck Guess=TCheck SCRF=Check GenChk RB3LYP/6-31G(d) Freq
 --------------------------------------------------------------------

 Structure from the checkpoint file:  "JID_5929.chk"
 ------------------------------
 CID_66277300_JID_5929_neutraal
 ------------------------------
 Charge =  0 Multiplicity = 1

 SCF Done:  E(RB3LYP) =  -1096.94328119     A.U. after    1 cycles

  Exact polarizability: 156.210  11.843 111.861   8.972  -7.851  99.661
 Approx polarizability: 203.939  14.497 172.938  17.824 -20.421 172.164

                      1                      2                      3
                      A                      A                      A
 Frequencies --     25.2421                50.7169                68.6145
 Red. masses --      7.3526                 4.0011                 5.5839
 Frc consts  --      0.0028                 0.0061                 0.0155
 IR Inten    --      2.9335                 2.1915                 1.6709

                      4                      5                      6
                      A                      A                      A
 Frequencies --    114.3641               143.2037               177.0134
 Red. masses --      5.7151                 3.6832                 4.0950
 Frc consts  --      0.0440                 0.0445                 0.0756
 IR Inten    --      1.6216                14.8770                 3.7859

                      7                      8                      9
                      A                      A                      A
 Frequencies --    214.5207               227.7310               260.3913
 Red. masses --      5.3378                 1.2311                 2.9490
 Frc consts  --      0.1447                 0.0376                 0.1178
 IR Inten    --      6.7402                 5.6748                28.2066

                     10                     11                     12
                      A                      A                      A
 Frequencies --    269.4318               296.0071               317.8722
 Red. masses --      1.0869                 2.9058                 3.3723
 Frc consts  --      0.0465                 0.1500                 0.2008
 IR Inten    --     59.5914                 3.7197                16.4018

                     13                     14                     15
                      A                      A                      A
 Frequencies --    323.0299               360.0896               391.4068
 Red. masses --      2.9644                 3.4820                 2.4521
 Frc consts  --      0.1823                 0.2660                 0.2213
 IR Inten    --     12.4087                 8.1106                11.7097

                     16                     17                     18
                      A                      A                      A
 Frequencies --    400.1446               415.3032               435.3736
 Red. masses --      2.3704                 3.5654                 3.1118
 Frc consts  --      0.2236                 0.3623                 0.3475
 IR Inten    --      1.8159                26.5596                23.9807

                     19                     20                     21
                      A                      A                      A
 Frequencies --    458.8723               535.2258               556.4482
 Red. masses --      3.3819                 3.4206                 5.2464
 Frc consts  --      0.4196                 0.5773                 0.9571
 IR Inten    --     24.9590                11.4570                 6.1961

                     22                     23                     24
                      A                      A                      A
 Frequencies --    608.1237               650.1743               662.1081
 Red. masses --      5.5576                 2.0496                 3.8276
 Frc consts  --      1.2109                 0.5105                 0.9886
 IR Inten    --     10.5310               240.4426                 8.3672

                     25                     26                     27
                      A                      A                      A
 Frequencies --    690.5019               728.5552               749.5552
 Red. masses --      4.8401                 3.8491                 3.0076
 Frc consts  --      1.3597                 1.2037                 0.9956
 IR Inten    --     30.3027                70.7560                41.9676

                     28                     29                     30
                      A                      A                      A
 Frequencies --    774.8802               784.7163               855.4521
 Red. masses --      5.5413                 2.3741                 2.7176
 Frc consts  --      1.9604                 0.8613                 1.1717
 IR Inten    --     68.7774                13.3806                14.6008

                     31                     32                     33
                      A                      A                      A
 Frequencies --    897.9915               923.2155               965.9695
 Red. masses --      2.9808                 2.1703                 2.3203
 Frc consts  --      1.4162                 1.0898                 1.2756
 IR Inten    --      9.1178                 4.3688                19.8960

                     34                     35                     36
                      A                      A                      A
 Frequencies --    977.7168              1005.7820              1039.0687
 Red. masses --      1.8874                 1.9115                 2.8516
 Frc consts  --      1.0630                 1.1393                 1.8140
 IR Inten    --      1.3598                 5.3441                 7.3326

                     37                     38                     39
                      A                      A                      A
 Frequencies --   1068.7959              1076.4859              1097.9800
 Red. masses --      1.6639                 2.5468                 4.5130
 Frc consts  --      1.1199                 1.7389                 3.2056
 IR Inten    --      1.2826                 4.1997               113.7814

                     40                     41                     42
                      A                      A                      A
 Frequencies --   1110.2475              1130.5268              1142.6301
 Red. masses --      3.7469                 1.2381                 1.7755
 Frc consts  --      2.7212                 0.9323                 1.3658
 IR Inten    --     37.1553                39.6135                21.1443

                     43                     44                     45
                      A                      A                      A
 Frequencies --   1152.7540              1167.5789              1195.3665
 Red. masses --      1.5267                 1.5731                 1.6412
 Frc consts  --      1.1953                 1.2635                 1.3817
 IR Inten    --     26.8036                11.4916                40.0245

                     46                     47                     48
                      A                      A                      A
 Frequencies --   1231.5651              1254.4512              1268.5628
 Red. masses --      2.0607                 1.8698                 2.2843
 Frc consts  --      1.8416                 1.7336                 2.1659
 IR Inten    --      9.5482                34.6355                18.4455

                     49                     50                     51
                      A                      A                      A
 Frequencies --   1308.5751              1325.4897              1335.6894
 Red. masses --      2.2269                 2.4226                 1.8273
 Frc consts  --      2.2467                 2.5078                 1.9208
 IR Inten    --    102.8978                93.8984                 4.1117

                     52                     53                     54
                      A                      A                      A
 Frequencies --   1342.6211              1372.6334              1398.5605
 Red. masses --      1.7613                 1.4291                 1.3421
 Frc consts  --      1.8707                 1.5864                 1.5467
 IR Inten    --     11.5812                17.5250                95.8440

                     55                     56                     57
                      A                      A                      A
 Frequencies --   1433.8091              1474.9211              1486.7933
 Red. masses --      3.2170                 1.3790                 1.1144
 Frc consts  --      3.8965                 1.7675                 1.4515
 IR Inten    --    119.7079                38.4536                 9.3743

                     58                     59                     60
                      A                      A                      A
 Frequencies --   1488.9870              1514.7918              1526.9655
 Red. masses --      1.0967                 1.5503                 1.2355
 Frc consts  --      1.4326                 2.0959                 1.6973
 IR Inten    --     12.4655                67.6588                50.3332

                     61                     62                     63
                      A                      A                      A
 Frequencies --   1541.4897              1550.1323              1605.2741
 Red. masses --      1.0646                 1.4476                 5.6176
 Frc consts  --      1.4905                 2.0495                 8.5291
 IR Inten    --     37.2443                66.7784               299.9002

                     64                     65                     66
                      A                      A                      A
 Frequencies --   1629.7479              1693.7163              3002.6553
 Red. masses --      2.2566                 1.6674                 1.0587
 Frc consts  --      3.5313                 2.8182                 5.6240
 IR Inten    --     42.3339               195.6411                65.3573

                     67                     68                     69
                      A                      A                      A
 Frequencies --   3015.2292              3085.8896              3114.3276
 Red. masses --      1.0840                 1.0674                 1.0574
 Frc consts  --      5.8067                 5.9886                 6.0428
 IR Inten    --     33.6124                16.0262                 3.2855

                     70                     71                     72
                      A                      A                      A
 Frequencies --   3122.9317              3126.8735              3142.3326
 Red. masses --      1.0819                 1.0645                 1.0974
 Frc consts  --      6.2168                 6.1320                 6.3845
 IR Inten    --     33.4790                 4.6795                15.0490

                     73                     74                     75
                      A                      A                      A
 Frequencies --   3180.4602              3191.0724              3215.2364
 Red. masses --      1.1099                 1.0984                 1.1023
 Frc consts  --      6.6149                 6.5898                 6.7140
 IR Inten    --      3.8561                 1.5306                 2.7893

                     76                     77                     78
                      A                      A                      A
 Frequencies --   3548.5475              3648.3843              3671.4323
 Red. masses --      1.0484                 1.0976                 1.0812
 Frc consts  --      7.7779                 8.6077                 8.5869
 IR Inten    --     28.5020                27.2395                59.6628

 - Thermochemistry -
 -------------------
 Temperature   298.150 Kelvin.  Pressure   1.00000 Atm.
 Atom     1 has atomic number  6 and mass  12.00000

 Molecular mass:   231.07900 amu.
 Principal axes and moments of inertia in atomic units:
                           1         2         3
     Eigenvalues --  1496.905456004.331956494.54723
           X            0.99981   0.01793   0.00757
           Y           -0.01764   0.99919  -0.03615
           Z           -0.00821   0.03601   0.99932
 This molecule is an asymmetric top.
 Rotational symmetry number  1.
 Warning -- assumption of classical behavior for rotation
           may cause significant error
 Rotational temperatures (Kelvin)      0.05786     0.01443     0.01334
 Rotational constants (GHZ):           1.20565     0.30057     0.27789
 Zero-point vibrational energy     594229.0 (Joules/Mol)
                                  142.02414 (Kcal/Mol)
 Warning -- explicit consideration of  22 degrees of freedom as
           vibrations may cause significant error
 Vibrational temperatures:     36.32    72.97    98.72   164.54   206.04
          (Kelvin)            254.68   308.65   327.65   374.64   387.65
                              425.89   457.35   464.77   518.09   563.15
                              575.72   597.53   626.41   660.21   770.07
                              800.60   874.95   935.46   952.63   993.48
                             1048.23  1078.44  1114.88  1129.03  1230.80
                             1292.01  1328.30  1389.81  1406.72  1447.10
                             1494.99  1537.76  1548.82  1579.75  1597.40
                             1626.58  1643.99  1658.56  1679.89  1719.87
                             1771.95  1804.88  1825.18  1882.75  1907.08
                             1921.76  1931.73  1974.91  2012.22  2062.93
                             2122.08  2139.16  2142.32  2179.45  2196.96
                             2217.86  2230.29  2309.63  2344.84  2436.88
                             4320.15  4338.24  4439.91  4480.82  4493.20
                             4498.87  4521.12  4575.97  4591.24  4626.01
                             5105.57  5249.21  5282.37

 Zero-point correction=                           0.226330 (Hartree/Particle)
 Thermal correction to Energy=                    0.240601
 Thermal correction to Enthalpy=                  0.241545
 Thermal correction to Gibbs Free Energy=         0.184451
 Sum of electronic and zero-point Energies=          -1096.716951
 Sum of electronic and thermal Energies=             -1096.702680
 Sum of electronic and thermal Enthalpies=           -1096.701736
 Sum of electronic and thermal Free Energies=        -1096.758831

                     E (Thermal)             CV                S
                      KCal/Mol        Cal/Mol-Kelvin    Cal/Mol-Kelvin
 Total                  150.979             54.626            120.165
 Electronic               0.000              0.000              0.000
 Translational            0.889              2.981             42.215
 Rotational               0.889              2.981             32.434
 Vibrational            149.202             48.665             45.516
 Vibration     1          0.593              1.985              6.172
 Vibration     2          0.595              1.977              4.789
 Vibration     3          0.598              1.969              4.193
 Vibration     4          0.607              1.938              3.193
 Vibration     5          0.616              1.910              2.761
 Vibration     6          0.628              1.871              2.360
 Vibration     7          0.644              1.819              2.005
 Vibration     8          0.651              1.799              1.897
 Vibration     9          0.668              1.745              1.659
 Vibration    10          0.674              1.729              1.600
 Vibration    11          0.690              1.681              1.439
 Vibration    12          0.704              1.639              1.321
 Vibration    13          0.708              1.629              1.295
 Vibration    14          0.735              1.554              1.122
 Vibration    15          0.759              1.489              0.995
 Vibration    16          0.766              1.470              0.962
 Vibration    17          0.779              1.437              0.908
 Vibration    18          0.796              1.393              0.841
 Vibration    19          0.817              1.341              0.769
 Vibration    20          0.890              1.172              0.576
 Vibration    21          0.912              1.126              0.531
 Vibration    22          0.967              1.015              0.436

                           ! Non-Optimized Parameters !
 Normal termination of Gaussian 16 at Thu Dec 10 17:59:51 2020.

 ----------------------------------------------------------------------
 # B3LYP/6-311++G(d,p) empiricaldispersion=gd3bj scf=xqc pop=npa geom=c
 heck
 ----------------------------------------------------------------------

 --------------------------------------
 CID_66277300_JID_5929_Energie_neutraal
 --------------------------------------
 Structure from the checkpoint file:  "JID_5929.chk"
 Charge =  0 Multiplicity = 1

 SCF Done:  E(RB3LYP) =  -1097.17737790     A.U. after   15 cycles
 Normal termination of Gaussian 16 at Thu Dec 10 18:03:03 2020.

 ----------------------------------------------------------------------
 # B3LYP/6-311++G(d,p) empiricaldispersion=gd3bj scf=xqc pop=npa geom=c
 heck
 ----------------------------------------------------------------------

 ------------------------------------
 CID_66277300_JID_5929_Energie_kation
 ------------------------------------
 Structure from the checkpoint file:  "JID_5929.chk"
 Charge =  1 Multiplicity = 2

 SCF Done:  E(UB3LYP) =  -1096.88805628     A.U. after   22 cycles
 Normal termination of Gaussian 16 at Thu Dec 10 18:09:17 2020.
 Gaussian 16:  ES64L-G16RevA.03 25-Dec-2016

 ----------------------------------------------------------------------
 # B3LYP/6-311++G(d,p) empiricaldispersion=gd3bj scf=xqc pop=npa geom=c
 heck
 ----------------------------------------------------------------------

 -----------------------------------
 CID_66277300_JID_5929_Energie_anion
 -----------------------------------
 Structure from the checkpoint file:  "JID_5929.chk"
 Charge = -1 Multiplicity = 2

                         Standard orientation:
 ---------------------------------------------------------------------
 Center     Atomic      Atomic             Coordinates (Angstroms)
 Number     Number       Type             X           Y           Z
 ---------------------------------------------------------------------
      1          6           0       -0.540465    2.328017   -0.477932
      2          7           0       -0.384133    0.950643   -0.010950
      3          6           0        0.649956    0.661398    0.991678
      4          6           0        1.902198    1.546411    0.805805
      5          6           0        2.616880    1.083028   -0.462617
      6         16           0        2.547141   -0.742638   -0.347744
      7          8           0        3.766022   -1.208114    0.339314
      8          8           0        2.152201   -1.324069   -1.639660
      9          6           0        1.155345   -0.786771    0.846265
     10          6           0       -1.577667    0.260481    0.155992
     11          7           0       -1.746337   -0.678215    1.080645
     12          7           0       -3.035018   -1.104281    0.804734
     13          6           0       -3.554138   -0.376913   -0.208705
     14          7           0       -2.659529    0.486353   -0.660155
     15          7           0       -4.853492   -0.496714   -0.659888
     16          1           0       -0.724133    3.034677    0.346958
     17          1           0       -1.393623    2.355497   -1.153589
     18          1           0        0.345176    2.651268   -1.028916
     19          1           0        0.242264    0.796209    2.004548
     20          1           0        2.553728    1.381521    1.670694
     21          1           0        1.665719    2.611859    0.779106
     22          1           0        3.668561    1.368100   -0.518848
     23          1           0        2.093803    1.370892   -1.376465
     24          1           0        0.399885   -1.474809    0.475754
     25          1           0        1.568783   -1.158506    1.785910
     26          1           0       -3.492556   -1.740035    1.439295
     27          1           0       -5.207340   -1.445427   -0.702196
     28          1           0       -4.983396   -0.009994   -1.539189
 ---------------------------------------------------------------------

 SCF Done:  E(UB3LYP) =  -1097.17546090     A.U. after   31 cycles

 The electronic state is 2-A.
 Alpha  occ. eigenvalues --  -88.95185 -19.02498 -19.02481 -14.27932 -14.24685
 Alpha  occ. eigenvalues --  -14.23224 -14.22611 -14.19807 -10.17862 -10.15621
 Alpha  occ. eigenvalues --  -10.14586 -10.12685 -10.11658 -10.11396 -10.10825
 Alpha  occ. eigenvalues --   -8.01736  -5.97993  -5.97872  -5.97836  -1.01514
 Alpha  occ. eigenvalues --   -0.97466  -0.91259  -0.87185  -0.83340  -0.78861
 Alpha  occ. eigenvalues --   -0.75770  -0.70904  -0.67524  -0.63445  -0.60454
 Alpha  occ. eigenvalues --   -0.54860  -0.52541  -0.50727  -0.48513  -0.46836
 Alpha  occ. eigenvalues --   -0.43406  -0.42736  -0.40594  -0.39697  -0.39035
 Alpha  occ. eigenvalues --   -0.37319  -0.37181  -0.36836  -0.35627  -0.35291
 Alpha  occ. eigenvalues --   -0.33940  -0.32748  -0.30694  -0.30272  -0.29500
 Alpha  occ. eigenvalues --   -0.28415  -0.24893  -0.24106  -0.23764  -0.22838
 Alpha  occ. eigenvalues --   -0.21804  -0.21424  -0.19709  -0.18410  -0.15658
 Alpha  occ. eigenvalues --   -0.11605   0.03499
 Alpha virt. eigenvalues --    0.04914   0.06993   0.07591   0.07804   0.08779
 Alpha virt. eigenvalues --    0.10142   0.10482   0.10601   0.11125   0.11645
 Alpha virt. eigenvalues --    0.11993   0.12411   0.13473   0.13900   0.14328

  Beta  occ. eigenvalues --  -88.95185 -19.02497 -19.02479 -14.27876 -14.24682
  Beta  occ. eigenvalues --  -14.23128 -14.22603 -14.19790 -10.17860 -10.15621
  Beta  occ. eigenvalues --  -10.14582 -10.12676 -10.11656 -10.11373 -10.10802
  Beta  occ. eigenvalues --   -8.01735  -5.97993  -5.97872  -5.97835  -1.01510
  Beta  occ. eigenvalues --   -0.97435  -0.91257  -0.87163  -0.83241  -0.78807
  Beta  occ. eigenvalues --   -0.75742  -0.70828  -0.67503  -0.63420  -0.60412
  Beta  occ. eigenvalues --   -0.54798  -0.52475  -0.50708  -0.48454  -0.46757
  Beta  occ. eigenvalues --   -0.43365  -0.42704  -0.40525  -0.39639  -0.39007
  Beta  occ. eigenvalues --   -0.37297  -0.37163  -0.36805  -0.35588  -0.35269
  Beta  occ. eigenvalues --   -0.33909  -0.32731  -0.30669  -0.30247  -0.29482
  Beta  occ. eigenvalues --   -0.28394  -0.24852  -0.24075  -0.23742  -0.22831
  Beta  occ. eigenvalues --   -0.21769  -0.21416  -0.19696  -0.18391  -0.15611
  Beta  occ. eigenvalues --   -0.11568
  Beta virt. eigenvalues --    0.05649   0.07013   0.07313   0.07810   0.08834
  Beta virt. eigenvalues --    0.09296   0.10402   0.10657   0.10966   0.11428
  Beta virt. eigenvalues --    0.11887   0.12146   0.12572   0.13455   0.13907

 Mulliken charges and spin densities:
               1          2
     1  C    0.421826  -0.816381
     2  N    0.302316  -0.000468
     3  C   -0.020302   0.204398
     4  C    0.076902  -0.573139
     5  C   -0.649750  -0.079770
     6  S    0.905522  -0.236366
     7  O   -0.237009   0.006896
     8  O   -0.155558  -0.001690
     9  C   -0.927762   0.016435
    10  C    0.602985  -1.016826
    11  N   -0.477130   0.270327
    12  N    0.379723  -0.471942
    13  C    0.141983  -0.003476
    14  N   -0.205125  -0.108715
    15  N   -0.425420   0.078898
    16  H   -0.078453   0.246155
    17  H    0.234900  -0.046681
    18  H   -0.131438   0.260161
    19  H    0.067179   0.196587
    20  H    0.025585   0.177665
    21  H   -0.380963   0.579533
    22  H    0.108354   0.139821
    23  H    0.169794   0.012441
    24  H    0.280463   0.000903
    25  H    0.155006   0.093885
    26  H   -0.331464   0.672213
    27  H   -0.701493   0.973625
    28  H   -0.150669   0.425511
 Sum of Mulliken charges =  -1.00000   1.00000

 Dipole moment (field-independent basis, Debye):
    X=              6.9933    Y=              3.9365    Z=              1.2539  Tot=              8.1225
 Quadrupole moment (field-independent basis, Debye-Ang):
   XX=           -200.2769   YY=           -139.8498   ZZ=           -125.6541
   XY=            -11.8641   XZ=             -2.5032   YZ=             -4.9444

 Summary of Natural Population Analysis:

                                       Natural Population
                Natural  -----------------------------------------------
    Atom  No    Charge         Core      Valence    Rydberg      Total
 -----------------------------------------------------------------------
      C    1   -0.17797      0.99963     2.17034    0.00800     3.17797
      N    2   -0.27090      0.99962     2.75940    0.01188     3.77090
      C    3   -0.00746      0.99959     1.99410    0.01378     3.00746
      C    4   -0.20706      0.99961     2.19728    0.01016     3.20706
      C    5   -0.29013      0.99960     2.27900    0.01154     3.29013
      S    6    1.00798      4.99931     1.89824    0.09447     6.99202
      O    7   -0.47266      0.99991     3.46756    0.00519     4.47266
      O    8   -0.46115      0.99991     3.45599    0.00524     4.46115
      C    9   -0.28790      0.99956     2.27659    0.01175     3.28790
      C   10    0.27255      0.99962     1.70845    0.01939     2.72745
      N   11   -0.20933      0.99969     2.69772    0.01192     3.70933
      N   12   -0.19875      0.99965     2.68579    0.01331     3.69875
      C   13    0.28934      0.99962     1.69438    0.01666     2.71066
      N   14   -0.30316      0.99966     2.79421    0.00928     3.80316
      N   15   -0.39699      0.99971     2.88760    0.00968     3.89699
      H   16    0.08676      0.00000     0.41209    0.00115     0.41324
      H   17    0.11764      0.00000     0.38069    0.00167     0.38236
      H   18    0.09092      0.00000     0.40787    0.00121     0.40908
      H   19    0.10421      0.00000     0.39382    0.00197     0.39579
      H   20    0.10908      0.00000     0.38971    0.00121     0.39092
      H   21    0.11615      0.00000     0.38216    0.00170     0.38385
      H   22    0.11758      0.00000     0.38128    0.00114     0.38242
      H   23    0.11636      0.00000     0.38243    0.00121     0.38364
      H   24    0.13528      0.00000     0.36325    0.00147     0.36472
      H   25    0.11732      0.00000     0.38175    0.00093     0.38268
      H   26    0.20698      0.00000     0.28623    0.00680     0.29302
      H   27    0.19984      0.00000     0.27357    0.02659     0.30016
      H   28    0.19547      0.00000     0.30170    0.00283     0.30453
 =======================================================================
   * Total *   -0.00000     18.99469    41.70318    0.30213    61.00000

 Normal termination of Gaussian 16 at Thu Dec 10 18:17:47 2020.
