 Gaussian 16, Revision A.03,

 -----------------------------------------------------------
 # opt freq B3LYP/6-31G(d) empiricaldispersion=gd3bj scf=xqc
 -----------------------------------------------------------

 ------------------------------
 CID_80593570_JID_6109_neutraal
 ------------------------------
 Symbolic Z-matrix:
 Charge =  0 Multiplicity = 1

 SCF Done:  E(RB3LYP) =  -1104.16792223     A.U. after   15 cycles
 SCF Done:  E(RB3LYP) =  -1104.17510675     A.U. after   13 cycles
 SCF Done:  E(RB3LYP) =  -1104.17436012     A.U. after   14 cycles
 SCF Done:  E(RB3LYP) =  -1104.17723297     A.U. after   12 cycles
 SCF Done:  E(RB3LYP) =  -1104.17984387     A.U. after   13 cycles
 SCF Done:  E(RB3LYP) =  -1104.18091178     A.U. after   12 cycles
 SCF Done:  E(RB3LYP) =  -1104.18115895     A.U. after   12 cycles
 SCF Done:  E(RB3LYP) =  -1104.18146718     A.U. after   12 cycles
 SCF Done:  E(RB3LYP) =  -1104.18159050     A.U. after   11 cycles
 SCF Done:  E(RB3LYP) =  -1104.18167341     A.U. after   11 cycles
 SCF Done:  E(RB3LYP) =  -1104.18170094     A.U. after   10 cycles
 SCF Done:  E(RB3LYP) =  -1104.18173340     A.U. after   11 cycles
 SCF Done:  E(RB3LYP) =  -1104.18174188     A.U. after    9 cycles
 SCF Done:  E(RB3LYP) =  -1104.18174296     A.U. after    8 cycles
 SCF Done:  E(RB3LYP) =  -1104.18174305     A.U. after    7 cycles
 Optimization completed.
    -- Stationary point found.
 Normal termination of Gaussian 16 at Thu Dec 10 21:18:43 2020.

 --------------------------------------------------------------------
 #N Geom=AllCheck Guess=TCheck SCRF=Check GenChk RB3LYP/6-31G(d) Freq
 --------------------------------------------------------------------

 Structure from the checkpoint file:  "JID_6109.chk"
 ------------------------------
 CID_80593570_JID_6109_neutraal
 ------------------------------
 Charge =  0 Multiplicity = 1

 SCF Done:  E(RB3LYP) =  -1104.18174305     A.U. after    1 cycles

  Exact polarizability: 151.294   1.597 136.747   5.849  -5.210 133.746
 Approx polarizability: 198.132   4.065 216.450  10.397 -13.900 222.119

                      1                      2                      3
                      A                      A                      A
 Frequencies --     35.6314                46.2889                55.5967
 Red. masses --      4.1370                 4.9817                 5.6089
 Frc consts  --      0.0031                 0.0063                 0.0102
 IR Inten    --      0.1903                 0.3132                 1.4057

                      4                      5                      6
                      A                      A                      A
 Frequencies --     70.8546               122.3142               150.9378
 Red. masses --      6.2268                 5.5455                 4.5091
 Frc consts  --      0.0184                 0.0489                 0.0605
 IR Inten    --      1.9756                 0.1510                 1.3665

                      7                      8                      9
                      A                      A                      A
 Frequencies --    156.2757               188.2434               216.5315
 Red. masses --      3.3061                 2.1283                 2.7475
 Frc consts  --      0.0476                 0.0444                 0.0759
 IR Inten    --      0.3987                 6.5251                 1.9014

                     10                     11                     12
                      A                      A                      A
 Frequencies --    224.7814               252.1804               267.8908
 Red. masses --      1.4166                 1.9642                 2.3377
 Frc consts  --      0.0422                 0.0736                 0.0988
 IR Inten    --      0.2622                40.6040                 3.1017

                     13                     14                     15
                      A                      A                      A
 Frequencies --    282.8949               307.4777               327.1826
 Red. masses --      3.2718                 5.2027                 2.3472
 Frc consts  --      0.1543                 0.2898                 0.1480
 IR Inten    --      4.3831                 3.0158                15.8048

                     16                     17                     18
                      A                      A                      A
 Frequencies --    330.0214               359.6748               371.5047
 Red. masses --      2.4463                 2.4389                 2.3327
 Frc consts  --      0.1570                 0.1859                 0.1897
 IR Inten    --      7.2223                46.5239                23.4176

                     19                     20                     21
                      A                      A                      A
 Frequencies --    391.2866               419.6208               442.4917
 Red. masses --      4.2218                 1.4255                 2.6450
 Frc consts  --      0.3808                 0.1479                 0.3051
 IR Inten    --      6.4501                31.0769                20.5455

                     22                     23                     24
                      A                      A                      A
 Frequencies --    478.5903               519.7989               557.6685
 Red. masses --      3.3768                 3.1147                 3.3824
 Frc consts  --      0.4557                 0.4958                 0.6198
 IR Inten    --      7.8248                 2.2191                24.6899

                     25                     26                     27
                      A                      A                      A
 Frequencies --    598.1834               633.8286               649.8726
 Red. masses --      4.8709                 4.7120                 4.8099
 Frc consts  --      1.0269                 1.1153                 1.1968
 IR Inten    --     15.0948                 9.7141                 0.7394

                     28                     29                     30
                      A                      A                      A
 Frequencies --    664.7757               671.9113               732.0411
 Red. masses --      3.7280                 3.0090                 3.7659
 Frc consts  --      0.9707                 0.8004                 1.1890
 IR Inten    --     24.5155                37.8919                27.1330

                     31                     32                     33
                      A                      A                      A
 Frequencies --    740.9868               777.5631               791.1820
 Red. masses --      5.7211                 1.7654                 1.4589
 Frc consts  --      1.8508                 0.6289                 0.5381
 IR Inten    --     11.0043               193.9368                 1.1909

                     34                     35                     36
                      A                      A                      A
 Frequencies --    823.9227               857.0560               884.8925
 Red. masses --      1.5498                 1.5672                 2.2697
 Frc consts  --      0.6199                 0.6783                 1.0471
 IR Inten    --     11.4851                 3.3963                 3.9532

                     37                     38                     39
                      A                      A                      A
 Frequencies --    907.7502               932.4203               950.7690
 Red. masses --      3.5503                 3.1635                 1.8713
 Frc consts  --      1.7237                 1.6205                 0.9966
 IR Inten    --      5.7304                 5.4418                10.9209

                     40                     41                     42
                      A                      A                      A
 Frequencies --    976.7002               988.4227               990.5335
 Red. masses --      3.6980                 3.0324                 1.3643
 Frc consts  --      2.0784                 1.7455                 0.7887
 IR Inten    --     26.9439                58.2537                 9.7723

                     43                     44                     45
                      A                      A                      A
 Frequencies --   1023.8624              1036.7320              1044.6666
 Red. masses --      2.0556                 1.8335                 2.0628
 Frc consts  --      1.2696                 1.1611                 1.3264
 IR Inten    --     14.8377                52.7980                 0.5622

                     46                     47                     48
                      A                      A                      A
 Frequencies --   1077.7582              1102.7810              1104.0273
 Red. masses --      1.2605                 1.5828                 1.3635
 Frc consts  --      0.8626                 1.1341                 0.9792
 IR Inten    --      4.5257                 1.2906                 5.6349

                     49                     50                     51
                      A                      A                      A
 Frequencies --   1129.2342              1167.3967              1197.4342
 Red. masses --      1.8251                 1.7009                 1.5537
 Frc consts  --      1.3712                 1.3658                 1.3126
 IR Inten    --     30.1405                33.6824                91.0627

                     52                     53                     54
                      A                      A                      A
 Frequencies --   1199.0807              1216.4882              1235.8148
 Red. masses --      1.7391                 1.3093                 1.8674
 Frc consts  --      1.4732                 1.1416                 1.6803
 IR Inten    --      2.2856                 0.6276                21.7584

                     55                     56                     57
                      A                      A                      A
 Frequencies --   1260.2520              1279.0021              1291.9421
 Red. masses --      1.3687                 2.0818                 1.8383
 Frc consts  --      1.2808                 2.0065                 1.8078
 IR Inten    --     16.6633                 8.8455                 3.4977

                     58                     59                     60
                      A                      A                      A
 Frequencies --   1308.5826              1349.5163              1362.4916
 Red. masses --      1.9403                 1.4681                 1.3037
 Frc consts  --      1.9576                 1.5753                 1.4259
 IR Inten    --     56.7532                82.1339                 1.9059

                     61                     62                     63
                      A                      A                      A
 Frequencies --   1374.2978              1390.0900              1416.9499
 Red. masses --      1.5052                 1.6554                 1.4407
 Frc consts  --      1.6749                 1.8847                 1.7043
 IR Inten    --     49.6568                83.6320                 7.9217

                     64                     65                     66
                      A                      A                      A
 Frequencies --   1431.8043              1435.5882              1464.9042
 Red. masses --      1.9864                 1.4639                 2.0185
 Frc consts  --      2.3994                 1.7776                 2.5521
 IR Inten    --      1.8517                19.3990               180.4842

                     67                     68                     69
                      A                      A                      A
 Frequencies --   1478.2558              1485.8539              1492.6908
 Red. masses --      1.0966                 1.0910                 1.0952
 Frc consts  --      1.4119                 1.4192                 1.4378
 IR Inten    --      0.9896                 3.4266                12.6524

                     70                     71                     72
                      A                      A                      A
 Frequencies --   1501.2487              1514.6142              1524.5444
 Red. masses --      1.1340                 1.3030                 1.0476
 Frc consts  --      1.5058                 1.7612                 1.4346
 IR Inten    --     23.8476                 3.2271                 9.8266

                     73                     74                     75
                      A                      A                      A
 Frequencies --   1535.5167              1659.6191              1727.7284
 Red. masses --      1.0543                 1.2053                 5.5435
 Frc consts  --      1.4646                 1.9559                 9.7495
 IR Inten    --      0.5000                56.2774                75.1965

                     76                     77                     78
                      A                      A                      A
 Frequencies --   1745.7729              3057.7981              3064.8019
 Red. masses --     10.6749                 1.0603                 1.0412
 Frc consts  --     19.1686                 5.8411                 5.7623
 IR Inten    --    231.0425                20.8206                14.6180

                     79                     80                     81
                      A                      A                      A
 Frequencies --   3071.3272              3080.4024              3119.9754
 Red. masses --      1.0617                 1.0646                 1.1031
 Frc consts  --      5.9005                 5.9517                 6.3268
 IR Inten    --     14.1368                30.3596                11.9606

                     82                     83                     84
                      A                      A                      A
 Frequencies --   3129.7566              3131.4413              3144.5384
 Red. masses --      1.0961                 1.1032                 1.0870
 Frc consts  --      6.3260                 6.3739                 6.3326
 IR Inten    --      7.7130                15.1307                22.8565

                     85                     86                     87
                      A                      A                      A
 Frequencies --   3157.1980              3159.4672              3161.6843
 Red. masses --      1.0539                 1.0978                 1.1023
 Frc consts  --      6.1894                 6.4564                 6.4919
 IR Inten    --      9.7336                 7.3022                11.0227

                     88                     89                     90
                      A                      A                      A
 Frequencies --   3173.4333              3240.8719              3269.7790
 Red. masses --      1.0543                 1.1190                 1.1179
 Frc consts  --      6.2555                 6.9248                 7.0421
 IR Inten    --      8.0983                 4.9989                 0.4228

                     91                     92                     93
                      A                      A                      A
 Frequencies --   3517.6018              3622.3983              3772.6138
 Red. masses --      1.0471                 1.0976                 1.0679
 Frc consts  --      7.6333                 8.4860                 8.9547
 IR Inten    --      7.6702                 8.1135                61.8135

 - Thermochemistry -
 -------------------
 Temperature   298.150 Kelvin.  Pressure   1.00000 Atm.
 Atom     1 has atomic number  6 and mass  12.00000

 Molecular mass:   243.10415 amu.
 Principal axes and moments of inertia in atomic units:
                           1         2         3
     Eigenvalues --  2270.147775150.352155536.09759
           X            0.99983  -0.00097   0.01817
           Y            0.00076   0.99994   0.01136
           Z           -0.01818  -0.01135   0.99977
 This molecule is an asymmetric top.
 Rotational symmetry number  1.
 Warning -- assumption of classical behavior for rotation
           may cause significant error
 Rotational temperatures (Kelvin)      0.03815     0.01682     0.01565
 Rotational constants (GHZ):           0.79499     0.35041     0.32600
 Zero-point vibrational energy     727270.8 (Joules/Mol)
                                  173.82189 (Kcal/Mol)
 Warning -- explicit consideration of  25 degrees of freedom as
           vibrations may cause significant error
 Vibrational temperatures:     51.27    66.60    79.99   101.94   175.98
          (Kelvin)            217.17   224.85   270.84   311.54   323.41
                              362.83   385.44   407.02   442.39   470.74
                              474.83   517.49   534.51   562.97   603.74
                              636.65   688.58   747.87   802.36   860.65
                              911.94   935.02   956.46   966.73  1053.24
                             1066.11  1118.74  1138.33  1185.44  1233.11
                             1273.16  1306.05  1341.54  1367.94  1405.25
                             1422.12  1425.16  1473.11  1491.63  1503.04
                             1550.65  1586.66  1588.45  1624.72  1679.62
                             1722.84  1725.21  1750.26  1778.06  1813.22
                             1840.20  1858.82  1882.76  1941.65  1960.32
                             1977.31  2000.03  2038.67  2060.05  2065.49
                             2107.67  2126.88  2137.81  2147.65  2159.96
                             2179.19  2193.48  2209.27  2387.82  2485.82
                             2511.78  4399.49  4409.57  4418.95  4432.01
                             4488.95  4503.02  4505.45  4524.29  4542.50
                             4545.77  4548.96  4565.86  4662.89  4704.48
                             5061.04  5211.82  5427.95

 Zero-point correction=                           0.277003 (Hartree/Particle)
 Thermal correction to Energy=                    0.293468
 Thermal correction to Enthalpy=                  0.294413
 Thermal correction to Gibbs Free Energy=         0.233033
 Sum of electronic and zero-point Energies=          -1103.904740
 Sum of electronic and thermal Energies=             -1103.888275
 Sum of electronic and thermal Enthalpies=           -1103.887330
 Sum of electronic and thermal Free Energies=        -1103.948710

                     E (Thermal)             CV                S
                      KCal/Mol        Cal/Mol-Kelvin    Cal/Mol-Kelvin
 Total                  184.154             63.247            129.185
 Electronic               0.000              0.000              0.000
 Translational            0.889              2.981             42.366
 Rotational               0.889              2.981             32.537
 Vibrational            182.377             57.285             54.282
 Vibration     1          0.594              1.982              5.488
 Vibration     2          0.595              1.979              4.970
 Vibration     3          0.596              1.975              4.608
 Vibration     4          0.598              1.968              4.129
 Vibration     5          0.610              1.931              3.063
 Vibration     6          0.618              1.902              2.660
 Vibration     7          0.620              1.896              2.594
 Vibration     8          0.633              1.856              2.245
 Vibration     9          0.645              1.816              1.988
 Vibration    10          0.649              1.803              1.920
 Vibration    11          0.664              1.759              1.715
 Vibration    12          0.673              1.732              1.610
 Vibration    13          0.682              1.705              1.516
 Vibration    14          0.697              1.659              1.376
 Vibration    15          0.711              1.621              1.274
 Vibration    16          0.713              1.616              1.260
 Vibration    17          0.734              1.555              1.124
 Vibration    18          0.743              1.531              1.074
 Vibration    19          0.759              1.489              0.995
 Vibration    20          0.782              1.428              0.893
 Vibration    21          0.802              1.377              0.819
 Vibration    22          0.835              1.298              0.714
 Vibration    23          0.875              1.206              0.610
 Vibration    24          0.913              1.123              0.529
 Vibration    25          0.956              1.036              0.453

                           ! Non-Optimized Parameters !
 Normal termination of Gaussian 16 at Thu Dec 10 21:32:00 2020.

 ----------------------------------------------------------------------
 # B3LYP/6-311++G(d,p) empiricaldispersion=gd3bj scf=xqc pop=npa geom=c
 heck
 ----------------------------------------------------------------------

 --------------------------------------
 CID_80593570_JID_6109_Energie_neutraal
 --------------------------------------
 Structure from the checkpoint file:  "JID_6109.chk"
 Charge =  0 Multiplicity = 1

 SCF Done:  E(RB3LYP) =  -1104.42111279     A.U. after   16 cycles
 Normal termination of Gaussian 16 at Thu Dec 10 21:37:45 2020.

 ----------------------------------------------------------------------
 # B3LYP/6-311++G(d,p) empiricaldispersion=gd3bj scf=xqc pop=npa geom=c
 heck
 ----------------------------------------------------------------------

 ------------------------------------
 CID_80593570_JID_6109_Energie_kation
 ------------------------------------
 Structure from the checkpoint file:  "JID_6109.chk"
 Charge =  1 Multiplicity = 2

 SCF Done:  E(UB3LYP) =  -1104.13316297     A.U. after   28 cycles
 Normal termination of Gaussian 16 at Thu Dec 10 21:52:35 2020.
 Gaussian 16:  ES64L-G16RevA.03 25-Dec-2016

 ----------------------------------------------------------------------
 # B3LYP/6-311++G(d,p) empiricaldispersion=gd3bj scf=xqc pop=npa geom=c
 heck
 ----------------------------------------------------------------------

 -----------------------------------
 CID_80593570_JID_6109_Energie_anion
 -----------------------------------
 Structure from the checkpoint file:  "JID_6109.chk"
 Charge = -1 Multiplicity = 2

                         Standard orientation:
 ---------------------------------------------------------------------
 Center     Atomic      Atomic             Coordinates (Angstroms)
 Number     Number       Type             X           Y           Z
 ---------------------------------------------------------------------
      1          6           0        1.017604    2.142481    0.691384
      2          6           0        0.818829    0.961319   -0.260061
      3          6           0        1.966516    0.781118   -1.272991
      4         16           0        3.551008    0.248899   -0.524075
      5          6           0        2.881119   -1.216837    0.354286
      6          6           0        1.686846   -0.845464    1.229994
      7          7           0        0.574503   -0.297396    0.454114
      8          6           0       -0.505567   -1.121055    0.236933
      9          8           0       -0.485621   -2.305555    0.557000
     10          6           0       -1.728138   -0.533807   -0.456514
     11          6           0       -1.946494   -1.034165   -1.884053
     12          6           0       -2.806264   -1.552113   -0.778354
     13          6           0       -2.209835    0.823523   -0.058856
     14          7           0       -2.341594    1.240941    1.151801
     15          8           0       -2.055223    0.206756    2.078509
     16          7           0       -2.659716    1.674526   -1.071293
     17          1           0        0.165398    2.212054    1.371748
     18          1           0        1.085748    3.074121    0.118553
     19          1           0        1.939089    2.043930    1.270580
     20          1           0       -0.067301    1.162053   -0.861627
     21          1           0        1.667211    0.044129   -2.026981
     22          1           0        2.170218    1.727947   -1.782443
     23          1           0        3.698751   -1.610476    0.965213
     24          1           0        2.590893   -1.983641   -0.371757
     25          1           0        1.992896   -0.109945    1.980950
     26          1           0        1.307917   -1.733431    1.736421
     27          1           0       -2.390092   -0.356767   -2.606426
     28          1           0       -1.175937   -1.689266   -2.279268
     29          1           0       -2.620978   -2.548432   -0.394879
     30          1           0       -3.829286   -1.194899   -0.726205
     31          1           0       -2.124571    0.674455    2.923862
     32          1           0       -2.028657    1.756329   -1.861531
     33          1           0       -2.930727    2.583357   -0.708027
 ---------------------------------------------------------------------

 SCF Done:  E(UB3LYP) =  -1104.41295524     A.U. after   33 cycles
 SCF Done:  E(UB3LYP) =  -1104.41295524     a.u. after    1 cycles

 The electronic state is 2-A.
 Alpha  occ. eigenvalues --  -88.74541 -19.06007 -18.99019 -14.24342 -14.24149
 Alpha  occ. eigenvalues --  -14.21663 -10.17947 -10.14441 -10.12011 -10.11363
 Alpha  occ. eigenvalues --  -10.11150 -10.10925 -10.10027 -10.08727 -10.08245
 Alpha  occ. eigenvalues --  -10.05864  -7.83170  -5.79550  -5.79220  -5.78534
 Alpha  occ. eigenvalues --   -0.97778  -0.94502  -0.84757  -0.83889  -0.77222
 Alpha  occ. eigenvalues --   -0.72170  -0.71486  -0.69507  -0.62665  -0.58681
 Alpha  occ. eigenvalues --   -0.55111  -0.53760  -0.51570  -0.50838  -0.48342
 Alpha  occ. eigenvalues --   -0.45695  -0.43229  -0.40290  -0.39050  -0.38144
 Alpha  occ. eigenvalues --   -0.37786  -0.37082  -0.36660  -0.35154  -0.34879
 Alpha  occ. eigenvalues --   -0.33903  -0.32625  -0.31429  -0.30934  -0.30173
 Alpha  occ. eigenvalues --   -0.29419  -0.28067  -0.27684  -0.27004  -0.26167
 Alpha  occ. eigenvalues --   -0.24845  -0.23547  -0.22746  -0.21293  -0.19994
 Alpha  occ. eigenvalues --   -0.17992  -0.16564  -0.15518  -0.12920  -0.12453
 Alpha  occ. eigenvalues --    0.04561
 Alpha virt. eigenvalues --    0.06824   0.07475   0.08261   0.08451   0.09474
 Alpha virt. eigenvalues --    0.09700   0.09826   0.10118   0.10720   0.10933
 Alpha virt. eigenvalues --    0.11480   0.11968   0.12460   0.12652   0.13409

  Beta  occ. eigenvalues --  -88.74539 -19.05999 -18.99016 -14.24342 -14.24127
  Beta  occ. eigenvalues --  -14.21574 -10.17946 -10.14431 -10.11997 -10.11358
  Beta  occ. eigenvalues --  -10.11147 -10.10925 -10.09984 -10.08693 -10.08239
  Beta  occ. eigenvalues --  -10.05836  -7.83168  -5.79547  -5.79215  -5.78531
  Beta  occ. eigenvalues --   -0.97759  -0.94496  -0.84740  -0.83819  -0.77193
  Beta  occ. eigenvalues --   -0.72094  -0.71458  -0.69477  -0.62633  -0.58646
  Beta  occ. eigenvalues --   -0.55071  -0.53721  -0.51515  -0.50779  -0.48283
  Beta  occ. eigenvalues --   -0.45639  -0.43198  -0.40250  -0.38994  -0.38116
  Beta  occ. eigenvalues --   -0.37717  -0.37036  -0.36622  -0.35117  -0.34855
  Beta  occ. eigenvalues --   -0.33876  -0.32589  -0.31396  -0.30906  -0.30144
  Beta  occ. eigenvalues --   -0.29399  -0.28033  -0.27652  -0.26980  -0.26135
  Beta  occ. eigenvalues --   -0.24811  -0.23515  -0.22715  -0.21258  -0.19959
  Beta  occ. eigenvalues --   -0.17946  -0.16556  -0.15503  -0.12901  -0.12383
  Beta virt. eigenvalues --    0.06681   0.07479   0.07934   0.08619   0.09107
  Beta virt. eigenvalues --    0.09569   0.09811   0.10231   0.10367   0.10719
  Beta virt. eigenvalues --    0.11277   0.12005   0.12126   0.12760   0.13040

 Mulliken charges and spin densities:
               1          2
     1  C    0.765019  -1.542897
     2  C   -1.236445   1.751866
     3  C    0.287644  -1.055476
     4  S   -0.040724   0.032798
     5  C   -0.397565  -0.154916
     6  C    0.069872  -0.141657
     7  N    0.407119  -0.158921
     8  C   -0.628984  -0.489917
     9  O   -0.271963   0.003059
    10  C   -0.114554   1.186174
    11  C    1.344580  -1.744470
    12  C   -0.170864  -0.079376
    13  C    0.439349  -1.116530
    14  N   -0.234740   0.053800
    15  O   -0.091975  -0.002405
    16  N   -0.334876   0.133563
    17  H    0.066510   0.078177
    18  H   -0.236908   0.397770
    19  H    0.084928   0.049028
    20  H   -0.401305   0.675304
    21  H   -0.157893   0.362296
    22  H   -0.500869   0.740671
    23  H    0.181362   0.012061
    24  H    0.157262   0.072000
    25  H    0.101645   0.066642
    26  H    0.232511  -0.031226
    27  H   -0.298958   0.493743
    28  H    0.030562   0.150788
    29  H    0.193090   0.017862
    30  H    0.166262   0.012300
    31  H    0.243322   0.017122
    32  H   -0.373782   0.636434
    33  H   -0.278636   0.574333
 Sum of Mulliken charges =  -1.00000   1.00000

 Dipole moment (field-independent basis, Debye):
    X=              2.4771    Y=             -6.0194    Z=              7.5229  Tot=              9.9480
 Quadrupole moment (field-independent basis, Debye-Ang):
   XX=           -150.4229   YY=           -157.5058   ZZ=           -143.6912
   XY=              2.8990   XZ=             -1.4890   YZ=             16.2255

 Summary of Natural Population Analysis:

                                       Natural Population
                Natural  -----------------------------------------------
    Atom  No    Charge         Core      Valence    Rydberg      Total
 -----------------------------------------------------------------------
      C    1   -0.29362      0.99963     2.28738    0.00661     3.29362
      C    2   -0.01842      0.99956     2.00127    0.01760     3.01842
      C    3   -0.24914      0.99956     2.23705    0.01253     3.24914
      S    4    0.08245      4.99964     2.90044    0.01748     7.91755
      C    5   -0.25266      0.99958     2.24477    0.00830     3.25266
      C    6   -0.09289      0.99960     2.08310    0.01019     3.09289
      N    7   -0.26076      0.99962     2.74859    0.01255     3.76076
      C    8    0.36668      0.99958     1.60833    0.02541     2.63332
      O    9   -0.33208      0.99988     3.32730    0.00491     4.33208
      C   10   -0.11448      0.99946     2.10071    0.01431     3.11448
      C   11   -0.18097      0.99960     2.17155    0.00982     3.18097
      C   12   -0.17489      0.99960     2.16655    0.00874     3.17489
      C   13    0.20115      0.99955     1.77756    0.02173     2.79885
      N   14   -0.12866      0.99958     2.61587    0.01321     3.62866
      O   15   -0.28933      0.99990     3.28330    0.00614     4.28933
      N   16   -0.39790      0.99971     2.88768    0.01051     3.89790
      H   17    0.10847      0.00000     0.39023    0.00130     0.39153
      H   18    0.10778      0.00000     0.39094    0.00129     0.39222
      H   19    0.09892      0.00000     0.39974    0.00134     0.40108
      H   20    0.11140      0.00000     0.38275    0.00584     0.38860
      H   21    0.10480      0.00000     0.39320    0.00200     0.39520
      H   22    0.11691      0.00000     0.38102    0.00207     0.38309
      H   23    0.10364      0.00000     0.39543    0.00093     0.39636
      H   24    0.10365      0.00000     0.39497    0.00138     0.39635
      H   25    0.09565      0.00000     0.40310    0.00125     0.40435
      H   26    0.11692      0.00000     0.38178    0.00130     0.38308
      H   27    0.11437      0.00000     0.38411    0.00152     0.38563
      H   28    0.10716      0.00000     0.39167    0.00117     0.39284
      H   29    0.11692      0.00000     0.38215    0.00093     0.38308
      H   30    0.10601      0.00000     0.39320    0.00079     0.39399
      H   31    0.23134      0.00000     0.26610    0.00256     0.26866
      H   32    0.19858      0.00000     0.28110    0.02032     0.30142
      H   33    0.19301      0.00000     0.30300    0.00400     0.30699
 =======================================================================
   * Total *   -0.00000     19.99404    44.75596    0.25000    65.00000

 Normal termination of Gaussian 16 at Thu Dec 10 22:09:40 2020.
