 Gaussian 16, Revision A.03,

 -----------------------------------------------------------
 # opt freq B3LYP/6-31G(d) empiricaldispersion=gd3bj scf=xqc
 -----------------------------------------------------------

 ------------------------------
 CID_54497985_JID_2909_neutraal
 ------------------------------
 Symbolic Z-matrix:
 Charge =  0 Multiplicity = 1

 SCF Done:  E(RB3LYP) =  -506.436454163     A.U. after   14 cycles
 SCF Done:  E(RB3LYP) =  -506.439218226     A.U. after   11 cycles
 SCF Done:  E(RB3LYP) =  -506.439593628     A.U. after   11 cycles
 SCF Done:  E(RB3LYP) =  -506.439710552     A.U. after   11 cycles
 SCF Done:  E(RB3LYP) =  -506.439761920     A.U. after   11 cycles
 SCF Done:  E(RB3LYP) =  -506.439785183     A.U. after   10 cycles
 SCF Done:  E(RB3LYP) =  -506.439792097     A.U. after   10 cycles
 SCF Done:  E(RB3LYP) =  -506.439791295     A.U. after    9 cycles
 SCF Done:  E(RB3LYP) =  -506.439792773     A.U. after    9 cycles
 SCF Done:  E(RB3LYP) =  -506.439792831     A.U. after    7 cycles
 SCF Done:  E(RB3LYP) =  -506.439793156     A.U. after    7 cycles
 Optimization completed.
    -- Stationary point found.
 Normal termination of Gaussian 16 at Wed Dec  9 18:11:00 2020.

 --------------------------------------------------------------------
 #N Geom=AllCheck Guess=TCheck SCRF=Check GenChk RB3LYP/6-31G(d) Freq
 --------------------------------------------------------------------

 Structure from the checkpoint file:  "JID_2909.chk"
 ------------------------------
 CID_54497985_JID_2909_neutraal
 ------------------------------
 Charge =  0 Multiplicity = 1

 SCF Done:  E(RB3LYP) =  -506.439793156     A.U. after    1 cycles

  Exact polarizability: 174.665  -0.118 100.789   2.072   1.396 100.680
 Approx polarizability: 217.507   0.588 139.165   8.828   2.204 143.557

                      1                      2                      3
                      A                      A                      A
 Frequencies --     16.1595                23.7140                47.0981
 Red. masses --      4.6746                 3.8540                 3.0209
 Frc consts  --      0.0007                 0.0013                 0.0039
 IR Inten    --      0.2717                 0.5569                 0.3146

                      4                      5                      6
                      A                      A                      A
 Frequencies --     60.7738                81.2688               100.0509
 Red. masses --      3.1777                 3.0336                 2.5918
 Frc consts  --      0.0069                 0.0118                 0.0153
 IR Inten    --      0.3303                 1.2028                 0.5486

                      7                      8                      9
                      A                      A                      A
 Frequencies --    129.9367               155.1496               169.7923
 Red. masses --      2.1514                 2.3763                 1.7919
 Frc consts  --      0.0214                 0.0337                 0.0304
 IR Inten    --      4.8530                 1.3922                 0.3364

                     10                     11                     12
                      A                      A                      A
 Frequencies --    231.1054               261.0605               281.3292
 Red. masses --      1.8345                 1.9029                 2.2644
 Frc consts  --      0.0577                 0.0764                 0.1056
 IR Inten    --      0.2839                 0.4621                 0.7791

                     13                     14                     15
                      A                      A                      A
 Frequencies --    311.2400               323.4796               353.6144
 Red. masses --      2.1180                 2.4792                 2.4845
 Frc consts  --      0.1209                 0.1528                 0.1830
 IR Inten    --      1.4747                 4.8331                 7.8100

                     16                     17                     18
                      A                      A                      A
 Frequencies --    364.0273               392.7741               475.9042
 Red. masses --      1.2156                 2.0618                 1.8924
 Frc consts  --      0.0949                 0.1874                 0.2525
 IR Inten    --    122.6962                 1.7706                 2.0347

                     19                     20                     21
                      A                      A                      A
 Frequencies --    506.5672               539.4560               553.7719
 Red. masses --      2.2655                 2.1673                 3.0782
 Frc consts  --      0.3425                 0.3716                 0.5562
 IR Inten    --      6.5994                 0.0946                 3.5338

                     22                     23                     24
                      A                      A                      A
 Frequencies --    743.8140               806.5513               813.5689
 Red. masses --      1.2302                 2.0508                 1.5371
 Frc consts  --      0.4010                 0.7860                 0.5994
 IR Inten    --      9.5986                 0.7896                 1.3902

                     25                     26                     27
                      A                      A                      A
 Frequencies --    832.5470               850.8442               868.8034
 Red. masses --      1.7504                 1.8466                 1.7575
 Frc consts  --      0.7149                 0.7876                 0.7816
 IR Inten    --      0.6331                 0.9183                 2.3986

                     28                     29                     30
                      A                      A                      A
 Frequencies --    890.9433               921.3926               952.6579
 Red. masses --      2.2040                 1.6961                 1.9734
 Frc consts  --      1.0308                 0.8484                 1.0552
 IR Inten    --      4.0007                20.3912                 2.0323

                     31                     32                     33
                      A                      A                      A
 Frequencies --    972.8618              1013.0086              1018.7918
 Red. masses --      1.5734                 1.2213                 1.1134
 Frc consts  --      0.8774                 0.7384                 0.6809
 IR Inten    --      0.5729                15.0185                20.6002

                     34                     35                     36
                      A                      A                      A
 Frequencies --   1042.5900              1048.3427              1059.1613
 Red. masses --      1.5580                 1.5716                 2.3057
 Frc consts  --      0.9978                 1.0176                 1.5240
 IR Inten    --     15.5529                 5.0826                19.4581

                     37                     38                     39
                      A                      A                      A
 Frequencies --   1078.0998              1092.4861              1106.5959
 Red. masses --      2.9822                 2.6197                 2.5396
 Frc consts  --      2.0422                 1.8422                 1.8323
 IR Inten    --     60.1141                29.8148                15.0173

                     40                     41                     42
                      A                      A                      A
 Frequencies --   1122.6765              1138.1317              1156.5160
 Red. masses --      2.1390                 1.8082                 2.1764
 Frc consts  --      1.5884                 1.3800                 1.7151
 IR Inten    --      5.1156                 2.7100                 0.3493

                     43                     44                     45
                      A                      A                      A
 Frequencies --   1196.9145              1210.6287              1237.1394
 Red. masses --      1.2473                 1.2422                 1.2975
 Frc consts  --      1.0528                 1.0727                 1.1700
 IR Inten    --      6.4592                12.9755                 4.8819

                     46                     47                     48
                      A                      A                      A
 Frequencies --   1261.5728              1276.8703              1305.2859
 Red. masses --      1.2688                 1.2831                 1.2552
 Frc consts  --      1.1897                 1.2325                 1.2600
 IR Inten    --      0.6792                 0.0842                11.2373

                     49                     50                     51
                      A                      A                      A
 Frequencies --   1330.5312              1338.8416              1343.2015
 Red. masses --      1.1676                 1.2689                 1.2850
 Frc consts  --      1.2179                 1.3401                 1.3659
 IR Inten    --      1.1211                 1.0539                 0.1067

                     52                     53                     54
                      A                      A                      A
 Frequencies --   1355.6881              1367.6263              1383.0425
 Red. masses --      1.1958                 1.3474                 1.4184
 Frc consts  --      1.2948                 1.4848                 1.5986
 IR Inten    --      6.8996                 2.7041                 3.3366

                     55                     56                     57
                      A                      A                      A
 Frequencies --   1385.6142              1397.3092              1409.3087
 Red. masses --      1.4606                 1.3203                 1.2403
 Frc consts  --      1.6522                 1.5188                 1.4515
 IR Inten    --      0.6392                10.9973                 6.7317

                     58                     59                     60
                      A                      A                      A
 Frequencies --   1412.8249              1432.4944              1443.6653
 Red. masses --      1.4439                 1.2382                 1.2604
 Frc consts  --      1.6981                 1.4971                 1.5478
 IR Inten    --      3.6214                64.7123                 7.4885

                     61                     62                     63
                      A                      A                      A
 Frequencies --   1501.8303              1502.6913              1509.7159
 Red. masses --      1.1026                 1.1024                 1.0795
 Frc consts  --      1.4652                 1.4667                 1.4497
 IR Inten    --      4.9599                 8.0456                 1.9470

                     64                     65                     66
                      A                      A                      A
 Frequencies --   1520.4994              1524.1931              1533.5688
 Red. masses --      1.0969                 1.0581                 1.0900
 Frc consts  --      1.4942                 1.4483                 1.5104
 IR Inten    --      6.4965                 1.5240                 0.9736

                     67                     68                     69
                      A                      A                      A
 Frequencies --   1534.3424              1541.3229              1744.6831
 Red. masses --      1.0580                 1.0685                 6.2782
 Frc consts  --      1.4675                 1.4957                11.2594
 IR Inten    --      7.4380                 2.3698                 0.8854

                     70                     71                     72
                      A                      A                      A
 Frequencies --   1759.0534              3004.1498              3022.0971
 Red. masses --      5.8876                 1.0704                 1.0583
 Frc consts  --     10.7336                 5.6918                 5.6947
 IR Inten    --      0.2129                50.7264                31.5615

                     73                     74                     75
                      A                      A                      A
 Frequencies --   3027.2527              3032.5447              3037.4895
 Red. masses --      1.0622                 1.0624                 1.0591
 Frc consts  --      5.7352                 5.7564                 5.7573
 IR Inten    --     23.8566                34.3229                27.6922

                     76                     77                     78
                      A                      A                      A
 Frequencies --   3040.0785              3045.2219              3060.4733
 Red. masses --      1.0617                 1.0384                 1.1028
 Frc consts  --      5.7811                 5.6737                 6.0858
 IR Inten    --     13.2047                30.4086                21.1857

                     79                     80                     81
                      A                      A                      A
 Frequencies --   3065.1626              3071.7441              3080.8204
 Red. masses --      1.0983                 1.0996                 1.1025
 Frc consts  --      6.0799                 6.1133                 6.1656
 IR Inten    --     22.2307                33.8617                65.9830

                     82                     83                     84
                      A                      A                      A
 Frequencies --   3081.9556              3102.9804              3109.3281
 Red. masses --      1.1024                 1.0961                 1.1017
 Frc consts  --      6.1692                 6.2180                 6.2755
 IR Inten    --     23.0150                62.0230                51.2714

                     85                     86                     87
                      A                      A                      A
 Frequencies --   3115.2211              3130.5196              3135.3199
 Red. masses --      1.1019                 1.0896                 1.0911
 Frc consts  --      6.3002                 6.2914                 6.3192
 IR Inten    --     52.4540                15.2425                 1.9228

                     88                     89                     90
                      A                      A                      A
 Frequencies --   3140.8996              3142.1563              3744.8172
 Red. masses --      1.0859                 1.0876                 1.0659
 Frc consts  --      6.3118                 6.3267                 8.8068
 IR Inten    --     49.9995                32.4029                 9.7279

 - Thermochemistry -
 -------------------
 Temperature   298.150 Kelvin.  Pressure   1.00000 Atm.
 Atom     1 has atomic number  6 and mass  12.00000

 Molecular mass:   168.15142 amu.
 Principal axes and moments of inertia in atomic units:
                           1         2         3
     Eigenvalues --   976.545147452.009507580.74247
           X            1.00000   0.00196  -0.00110
           Y           -0.00191   0.99920   0.03997
           Z            0.00118  -0.03997   0.99920
 This molecule is an asymmetric top.
 Rotational symmetry number  1.
 Warning -- assumption of classical behavior for rotation
           may cause significant error
 Rotational temperatures (Kelvin)      0.08869     0.01162     0.01143
 Rotational constants (GHZ):           1.84809     0.24218     0.23807
 Zero-point vibrational energy     764768.7 (Joules/Mol)
                                  182.78412 (Kcal/Mol)
 Warning -- explicit consideration of  21 degrees of freedom as
           vibrations may cause significant error
 Vibrational temperatures:     23.25    34.12    67.76    87.44   116.93
          (Kelvin)            143.95   186.95   223.23   244.29   332.51
                              375.61   404.77   447.80   465.42   508.77
                              523.75   565.11   684.72   728.84   776.16
                              796.75  1070.18  1160.45  1170.54  1197.85
                             1224.17  1250.01  1281.87  1325.68  1370.66
                             1399.73  1457.49  1465.81  1500.05  1508.33
                             1523.90  1551.15  1571.84  1592.14  1615.28
                             1637.52  1663.97  1722.09  1741.82  1779.97
                             1815.12  1837.13  1878.02  1914.34  1926.29
                             1932.57  1950.53  1967.71  1989.89  1993.59
                             2010.42  2027.68  2032.74  2061.04  2077.11
                             2160.80  2162.04  2172.14  2187.66  2192.97
                             2206.46  2207.58  2217.62  2510.21  2530.89
                             4322.30  4348.12  4355.54  4363.16  4370.27
                             4373.99  4381.40  4403.34  4410.09  4419.55
                             4432.61  4434.25  4464.50  4473.63  4482.11
                             4504.12  4511.03  4519.05  4520.86  5387.96

 Zero-point correction=                           0.291285 (Hartree/Particle)
 Thermal correction to Energy=                    0.306246
 Thermal correction to Enthalpy=                  0.307190
 Thermal correction to Gibbs Free Energy=         0.246358
 Sum of electronic and zero-point Energies=           -506.148508
 Sum of electronic and thermal Energies=              -506.133548
 Sum of electronic and thermal Enthalpies=            -506.132603
 Sum of electronic and thermal Free Energies=         -506.193435

                     E (Thermal)             CV                S
                      KCal/Mol        Cal/Mol-Kelvin    Cal/Mol-Kelvin
 Total                  192.172             53.344            128.031
 Electronic               0.000              0.000              0.000
 Translational            0.889              2.981             41.267
 Rotational               0.889              2.981             32.378
 Vibrational            190.395             47.382             54.385
 Vibration     1          0.593              1.986              7.058
 Vibration     2          0.593              1.985              6.296
 Vibration     3          0.595              1.979              4.936
 Vibration     4          0.597              1.973              4.432
 Vibration     5          0.600              1.962              3.860
 Vibration     6          0.604              1.949              3.453
 Vibration     7          0.612              1.923              2.947
 Vibration     8          0.620              1.897              2.608
 Vibration     9          0.625              1.880              2.438
 Vibration    10          0.653              1.793              1.870
 Vibration    11          0.669              1.744              1.655
 Vibration    12          0.681              1.708              1.526
 Vibration    13          0.700              1.652              1.356
 Vibration    14          0.708              1.628              1.292
 Vibration    15          0.730              1.568              1.150
 Vibration    16          0.738              1.546              1.105
 Vibration    17          0.760              1.486              0.990
 Vibration    18          0.833              1.304              0.721
 Vibration    19          0.862              1.235              0.642
 Vibration    20          0.895              1.163              0.566
 Vibration    21          0.909              1.131              0.536

                           ! Non-Optimized Parameters !
 Normal termination of Gaussian 16 at Wed Dec  9 18:18:12 2020.

 ----------------------------------------------------------------------
 # B3LYP/6-311++G(d,p) empiricaldispersion=gd3bj scf=xqc pop=npa geom=c
 heck
 ----------------------------------------------------------------------

 --------------------------------------
 CID_54497985_JID_2909_Energie_neutraal
 --------------------------------------
 Structure from the checkpoint file:  "JID_2909.chk"
 Charge =  0 Multiplicity = 1

 SCF Done:  E(RB3LYP) =  -506.595719252     A.U. after   13 cycles
 Normal termination of Gaussian 16 at Wed Dec  9 18:21:12 2020.

 ----------------------------------------------------------------------
 # B3LYP/6-311++G(d,p) empiricaldispersion=gd3bj scf=xqc pop=npa geom=c
 heck
 ----------------------------------------------------------------------

 ------------------------------------
 CID_54497985_JID_2909_Energie_kation
 ------------------------------------
 Structure from the checkpoint file:  "JID_2909.chk"
 Charge =  1 Multiplicity = 2

 SCF Done:  E(UB3LYP) =  -506.284573028     A.U. after   19 cycles
 Normal termination of Gaussian 16 at Wed Dec  9 18:27:01 2020.
 Gaussian 16:  ES64L-G16RevA.03 25-Dec-2016

 ----------------------------------------------------------------------
 # B3LYP/6-311++G(d,p) empiricaldispersion=gd3bj scf=xqc pop=npa geom=c
 heck
 ----------------------------------------------------------------------

 -----------------------------------
 CID_54497985_JID_2909_Energie_anion
 -----------------------------------
 Structure from the checkpoint file:  "JID_2909.chk"
 Charge = -1 Multiplicity = 2

                         Standard orientation:
 ---------------------------------------------------------------------
 Center     Atomic      Atomic             Coordinates (Angstroms)
 Number     Number       Type             X           Y           Z
 ---------------------------------------------------------------------
      1          6           0        5.186880   -0.036151    0.737280
      2          6           0        3.972839    0.884394    0.894243
      3          6           0        3.306243    1.272985   -0.433474
      4          6           0        2.783572    0.088739   -1.275032
      5          6           0        1.797651   -0.776127   -0.540427
      6          6           0        0.489705   -0.834902   -0.800466
      7          6           0       -0.510532   -1.661488   -0.030740
      8          6           0       -1.513731   -0.790758    0.683359
      9          6           0       -2.825806   -0.767570    0.436289
     10          6           0       -3.817901    0.140049    1.109267
     11          6           0       -4.332531    1.244473    0.170529
     12          8           0       -4.962721    0.730266   -0.996276
     13          1           0        4.907839   -1.010348    0.320031
     14          1           0        5.671258   -0.219346    1.702764
     15          1           0        5.933876    0.407601    0.067342
     16          1           0        3.232528    0.406724    1.549260
     17          1           0        4.281988    1.803827    1.408204
     18          1           0        2.464822    1.946262   -0.224672
     19          1           0        4.022802    1.842257   -1.042131
     20          1           0        2.315429    0.484335   -2.184846
     21          1           0        3.634921   -0.522839   -1.604442
     22          1           0        2.193541   -1.382788    0.275847
     23          1           0        0.078108   -0.226129   -1.607551
     24          1           0       -1.043485   -2.341611   -0.710045
     25          1           0        0.025476   -2.288194    0.695720
     26          1           0       -1.100703   -0.119968    1.438725
     27          1           0       -3.227415   -1.444848   -0.320226
     28          1           0       -4.681230   -0.442695    1.456973
     29          1           0       -3.361263    0.613012    1.988475
     30          1           0       -5.094895    1.842301    0.680226
     31          1           0       -3.499391    1.915311   -0.092217
     32          1           0       -4.270772    0.313153   -1.532203
 ---------------------------------------------------------------------

 SCF Done:  E(UB3LYP) =  -506.580818758     A.U. after   33 cycles
 SCF Done:  E(UB3LYP) =  -506.580818758     a.u. after    1 cycles

 The electronic state is 2-A.
 Alpha  occ. eigenvalues --  -19.02700 -10.12225 -10.08281 -10.07983 -10.07631
 Alpha  occ. eigenvalues --  -10.07524 -10.07226 -10.07180 -10.07119 -10.06709
 Alpha  occ. eigenvalues --  -10.06675 -10.06136  -0.92845  -0.72765  -0.71077
 Alpha  occ. eigenvalues --   -0.68554  -0.65340  -0.61845  -0.58146  -0.54369
 Alpha  occ. eigenvalues --   -0.51834  -0.47799  -0.45856  -0.44697  -0.41637
 Alpha  occ. eigenvalues --   -0.37742  -0.37194  -0.36897  -0.36190  -0.34360
 Alpha  occ. eigenvalues --   -0.33200  -0.32390  -0.30903  -0.29893  -0.29290
 Alpha  occ. eigenvalues --   -0.28807  -0.27956  -0.26306  -0.25637  -0.25327
 Alpha  occ. eigenvalues --   -0.23581  -0.23308  -0.22842  -0.22246  -0.19013
 Alpha  occ. eigenvalues --   -0.16345  -0.14956   0.04401
 Alpha virt. eigenvalues --    0.05829   0.06762   0.07238   0.07954   0.08015
 Alpha virt. eigenvalues --    0.08487   0.08565   0.09824   0.09922   0.10382
 Alpha virt. eigenvalues --    0.10802   0.11303   0.11518   0.11843   0.12228

  Beta  occ. eigenvalues --  -19.02662 -10.12202 -10.08280 -10.07976 -10.07582
  Beta  occ. eigenvalues --  -10.07496 -10.07202 -10.07169 -10.07104 -10.06690
  Beta  occ. eigenvalues --  -10.06656 -10.06102  -0.92764  -0.72703  -0.71027
  Beta  occ. eigenvalues --   -0.68509  -0.65284  -0.61781  -0.58090  -0.54301
  Beta  occ. eigenvalues --   -0.51772  -0.47726  -0.45759  -0.44632  -0.41556
  Beta  occ. eigenvalues --   -0.37694  -0.37153  -0.36850  -0.36152  -0.34310
  Beta  occ. eigenvalues --   -0.33145  -0.32341  -0.30855  -0.29852  -0.29246
  Beta  occ. eigenvalues --   -0.28771  -0.27916  -0.26265  -0.25595  -0.25271
  Beta  occ. eigenvalues --   -0.23537  -0.23271  -0.22810  -0.22203  -0.18944
  Beta  occ. eigenvalues --   -0.16168  -0.14845
  Beta virt. eigenvalues --    0.06469   0.06747   0.07361   0.07435   0.08300
  Beta virt. eigenvalues --    0.08396   0.08800   0.08866   0.10044   0.10324
  Beta virt. eigenvalues --    0.10582   0.11032   0.11592   0.11766   0.12152

 Mulliken charges and spin densities:
               1          2
     1  C    0.996698  -1.612892
     2  C   -0.745963   0.596018
     3  C    0.621450  -0.955079
     4  C   -0.058213  -0.143961
     5  C   -0.299379   0.231850
     6  C    0.388024  -0.540421
     7  C   -0.275334  -0.084937
     8  C    0.751885  -0.814174
     9  C   -0.665128   0.620722
    10  C   -0.324723   0.054236
    11  C    0.857652  -1.294907
    12  O   -0.290468   0.019247
    13  H   -0.141761   0.287014
    14  H   -0.288202   0.423283
    15  H   -0.209536   0.352198
    16  H    0.076911   0.045843
    17  H   -0.468320   0.625614
    18  H    0.080656   0.045940
    19  H   -0.302312   0.447271
    20  H   -0.185017   0.358772
    21  H    0.106267   0.026416
    22  H    0.004494   0.146903
    23  H   -0.138150   0.287596
    24  H   -0.001148   0.139010
    25  H    0.067693   0.063787
    26  H   -0.026182   0.162115
    27  H   -0.137942   0.288942
    28  H    0.029513   0.109453
    29  H   -0.150199   0.288469
    30  H   -0.124708   0.283112
    31  H   -0.049835   0.196797
    32  H   -0.098722   0.345763
 Sum of Mulliken charges =  -1.00000   1.00000

 Dipole moment (field-independent basis, Debye):
    X=             -2.2927    Y=             -3.3761    Z=              1.0921  Tot=              4.2246
 Quadrupole moment (field-independent basis, Debye-Ang):
   XX=           -205.4333   YY=           -108.2374   ZZ=           -113.2231
   XY=             -4.0753   XZ=            -12.3770   YZ=              0.8329

 Summary of Natural Population Analysis:

                                       Natural Population
                Natural  -----------------------------------------------
    Atom  No    Charge         Core      Valence    Rydberg      Total
 -----------------------------------------------------------------------
      C    1   -0.28791      0.99967     2.28270    0.00554     3.28791
      C    2   -0.19358      0.99964     2.18521    0.00872     3.19358
      C    3   -0.18327      0.99962     2.17542    0.00823     3.18327
      C    4   -0.20697      0.99961     2.19760    0.00976     3.20697
      C    5   -0.09027      0.99950     2.08149    0.00927     3.09027
      C    6   -0.08295      0.99950     2.07359    0.00987     3.08295
      C    7   -0.21724      0.99960     2.20822    0.00943     3.21724
      C    8   -0.06842      0.99950     2.06020    0.00872     3.06842
      C    9   -0.10305      0.99950     2.09353    0.01002     3.10305
      C   10   -0.21706      0.99961     2.20883    0.00862     3.21706
      C   11   -0.00348      0.99960     1.99199    0.01189     3.00348
      O   12   -0.37063      0.99990     3.36383    0.00689     4.37063
      H   13    0.09353      0.00000     0.40536    0.00111     0.40647
      H   14    0.09949      0.00000     0.39937    0.00114     0.40051
      H   15    0.09711      0.00000     0.40158    0.00131     0.40289
      H   16    0.09343      0.00000     0.40524    0.00133     0.40657
      H   17    0.09748      0.00000     0.40120    0.00132     0.40252
      H   18    0.09685      0.00000     0.40177    0.00138     0.40315
      H   19    0.09558      0.00000     0.40295    0.00147     0.40442
      H   20    0.10095      0.00000     0.39782    0.00123     0.39905
      H   21    0.09863      0.00000     0.40016    0.00120     0.40137
      H   22    0.08871      0.00000     0.40983    0.00146     0.41129
      H   23    0.09234      0.00000     0.40616    0.00149     0.40766
      H   24    0.10043      0.00000     0.39805    0.00152     0.39957
      H   25    0.10037      0.00000     0.39818    0.00145     0.39963
      H   26    0.09031      0.00000     0.40820    0.00149     0.40969
      H   27    0.09011      0.00000     0.40817    0.00173     0.40989
      H   28    0.09946      0.00000     0.39909    0.00145     0.40054
      H   29    0.10021      0.00000     0.39817    0.00162     0.39979
      H   30    0.08312      0.00000     0.41504    0.00184     0.41688
      H   31    0.07630      0.00000     0.42175    0.00195     0.42370
      H   32    0.23039      0.00000     0.26468    0.00493     0.26961
 =======================================================================
   * Total *    0.00000     11.99526    34.86537    0.13937    47.00000

 Normal termination of Gaussian 16 at Wed Dec  9 18:35:26 2020.
