 Gaussian 16, Revision A.03,

 -----------------------------------------------------------
 # opt freq B3LYP/6-31G(d) empiricaldispersion=gd3bj scf=xqc
 -----------------------------------------------------------

 -------------------------------
 CID_113851049_JID_8067_neutraal
 -------------------------------
 Symbolic Z-matrix:
 Charge =  0 Multiplicity = 1

 SCF Done:  E(RB3LYP) =  -781.839858981     A.U. after   14 cycles
 SCF Done:  E(RB3LYP) =  -781.841001492     A.U. after   14 cycles
 SCF Done:  E(RB3LYP) =  -781.839734804     A.U. after   13 cycles
 SCF Done:  E(RB3LYP) =  -781.846143994     A.U. after   12 cycles
 SCF Done:  E(RB3LYP) =  -781.841636474     A.U. after   14 cycles
 SCF Done:  E(RB3LYP) =  -781.846676595     A.U. after   13 cycles
 SCF Done:  E(RB3LYP) =  -781.848418166     A.U. after   12 cycles
 SCF Done:  E(RB3LYP) =  -781.848832183     A.U. after   12 cycles
 SCF Done:  E(RB3LYP) =  -781.848997521     A.U. after   12 cycles
 SCF Done:  E(RB3LYP) =  -781.849015948     A.U. after   12 cycles
 SCF Done:  E(RB3LYP) =  -781.849382619     A.U. after    8 cycles
 SCF Done:  E(RB3LYP) =  -781.849383202     A.U. after    8 cycles
 SCF Done:  E(RB3LYP) =  -781.849383296     A.U. after    7 cycles
 SCF Done:  E(RB3LYP) =  -781.849383422     A.U. after    7 cycles
 SCF Done:  E(RB3LYP) =  -781.849383454     A.U. after    7 cycles
 Optimization completed.
    -- Stationary point found.
 Normal termination of Gaussian 16 at Fri Dec 11 19:01:33 2020.

 --------------------------------------------------------------------
 #N Geom=AllCheck Guess=TCheck SCRF=Check GenChk RB3LYP/6-31G(d) Freq
 --------------------------------------------------------------------

 Structure from the checkpoint file:  "JID_8067.chk"
 -------------------------------
 CID_113851049_JID_8067_neutraal
 -------------------------------
 Charge =  0 Multiplicity = 1

 SCF Done:  E(RB3LYP) =  -781.849383454     A.U. after    1 cycles

  Exact polarizability: 162.448 -21.401 151.534  -6.658  -9.293 157.594
 Approx polarizability: 239.833 -40.096 217.777 -13.490 -19.719 253.883

                      1                      2                      3
                      A                      A                      A
 Frequencies --     39.7545                54.4005                66.1792
 Red. masses --      4.0265                 3.2686                 3.0754
 Frc consts  --      0.0037                 0.0057                 0.0079
 IR Inten    --      1.1847                 0.7950                 0.9586

                      4                      5                      6
                      A                      A                      A
 Frequencies --     76.1471                91.0112               102.8219
 Red. masses --      4.2235                 4.0650                 1.8160
 Frc consts  --      0.0144                 0.0198                 0.0113
 IR Inten    --      1.7507                 2.0115                 0.5675

                      7                      8                      9
                      A                      A                      A
 Frequencies --    107.7907               118.2986               131.9072
 Red. masses --      3.4847                 1.7560                 2.4214
 Frc consts  --      0.0239                 0.0145                 0.0248
 IR Inten    --      1.1390                 3.3754                 0.4305

                     10                     11                     12
                      A                      A                      A
 Frequencies --    190.3313               218.1548               228.4466
 Red. masses --      2.3852                 4.3229                 1.2870
 Frc consts  --      0.0509                 0.1212                 0.0396
 IR Inten    --      0.9644                 2.9725                 0.6371

                     13                     14                     15
                      A                      A                      A
 Frequencies --    244.0668               248.9995               266.1629
 Red. masses --      1.1377                 1.1600                 3.6809
 Frc consts  --      0.0399                 0.0424                 0.1536
 IR Inten    --      0.1687                 0.8838                 5.7390

                     16                     17                     18
                      A                      A                      A
 Frequencies --    275.8949               299.9630               323.9916
 Red. masses --      2.5317                 2.4738                 2.5061
 Frc consts  --      0.1135                 0.1311                 0.1550
 IR Inten    --      0.7295                 0.8558                 1.8383

                     19                     20                     21
                      A                      A                      A
 Frequencies --    350.0152               373.2732               401.1451
 Red. masses --      3.2754                 2.2942                 3.0472
 Frc consts  --      0.2364                 0.1883                 0.2889
 IR Inten    --      4.9058                 4.1796                 1.2644

                     22                     23                     24
                      A                      A                      A
 Frequencies --    432.8226               458.9992               487.9519
 Red. masses --      3.8307                 2.1940                 3.3902
 Frc consts  --      0.4228                 0.2723                 0.4756
 IR Inten    --      3.7689                 3.9765                 3.1068

                     25                     26                     27
                      A                      A                      A
 Frequencies --    509.7988               623.3827               629.9506
 Red. masses --      2.9458                 2.9752                 3.4920
 Frc consts  --      0.4511                 0.6812                 0.8165
 IR Inten    --      5.9336                 5.4974                 6.2466

                     28                     29                     30
                      A                      A                      A
 Frequencies --    653.8870               670.4219               675.7298
 Red. masses --      3.1451                 5.7934                 4.0590
 Frc consts  --      0.7923                 1.5342                 1.0920
 IR Inten    --      5.4971                 7.7960                16.8630

                     31                     32                     33
                      A                      A                      A
 Frequencies --    710.6980               737.9247               763.0618
 Red. masses --      1.5520                 3.8326                 1.2224
 Frc consts  --      0.4619                 1.2296                 0.4193
 IR Inten    --     29.4422                 3.2962                56.3744

                     34                     35                     36
                      A                      A                      A
 Frequencies --    764.0977               793.2457               837.0341
 Red. masses --      3.6365                 3.4097                 2.4720
 Frc consts  --      1.2509                 1.2641                 1.0204
 IR Inten    --     10.3776                49.1254                24.6922

                     37                     38                     39
                      A                      A                      A
 Frequencies --    845.1259               878.5837               880.1934
 Red. masses --      1.2815                 1.4610                 1.6616
 Frc consts  --      0.5393                 0.6645                 0.7585
 IR Inten    --      1.1064                 3.2319                 6.5258

                     40                     41                     42
                      A                      A                      A
 Frequencies --    907.2558               930.7017               945.2784
 Red. masses --      2.4228                 1.7772                 1.2399
 Frc consts  --      1.1750                 0.9070                 0.6528
 IR Inten    --      1.7879                 2.3175                 1.2690

                     43                     44                     45
                      A                      A                      A
 Frequencies --    946.5982               968.8968               977.0625
 Red. masses --      4.9844                 1.4420                 1.9371
 Frc consts  --      2.6314                 0.7976                 1.0896
 IR Inten    --      5.2522                 0.0687                 9.0787

                     46                     47                     48
                      A                      A                      A
 Frequencies --    993.3637              1016.1684              1041.7608
 Red. masses --      2.5005                 1.7666                 3.1957
 Frc consts  --      1.4537                 1.0748                 2.0434
 IR Inten    --      7.3325                 4.4395                 8.0161

                     49                     50                     51
                      A                      A                      A
 Frequencies --   1071.8670              1080.5491              1097.9451
 Red. masses --      1.5091                 1.4709                 1.9625
 Frc consts  --      1.0215                 1.0118                 1.3939
 IR Inten    --      6.2630                 2.2554                11.5627

                     52                     53                     54
                      A                      A                      A
 Frequencies --   1113.7753              1119.2009              1138.5074
 Red. masses --      2.1858                 1.7698                 2.3242
 Frc consts  --      1.5975                 1.3061                 1.7750
 IR Inten    --     13.1919                18.7536                 4.2051

                     55                     56                     57
                      A                      A                      A
 Frequencies --   1164.5067              1175.0531              1181.6674
 Red. masses --      2.0959                 1.9354                 1.7896
 Frc consts  --      1.6746                 1.5745                 1.4723
 IR Inten    --      3.8097                28.0555                 2.4187

                     58                     59                     60
                      A                      A                      A
 Frequencies --   1214.4799              1225.5852              1257.3807
 Red. masses --      1.7458                 1.6863                 3.4140
 Frc consts  --      1.5172                 1.4923                 3.1801
 IR Inten    --     22.1972                21.2121                 6.0390

                     61                     62                     63
                      A                      A                      A
 Frequencies --   1261.1297              1317.2552              1329.0233
 Red. masses --      2.0324                 3.4530                 3.1927
 Frc consts  --      1.9045                 3.5301                 3.3225
 IR Inten    --      5.7681                 3.4818                15.7703

                     64                     65                     66
                      A                      A                      A
 Frequencies --   1342.3265              1343.9575              1363.3754
 Red. masses --      1.9963                 2.0960                 1.5258
 Frc consts  --      2.1193                 2.2305                 1.6710
 IR Inten    --     25.7397                18.9337                 7.1809

                     67                     68                     69
                      A                      A                      A
 Frequencies --   1374.9608              1387.6512              1414.5021
 Red. masses --      1.3625                 1.8826                 1.8372
 Frc consts  --      1.5176                 2.1358                 2.1658
 IR Inten    --      2.8568                 5.8106                77.2356

                     70                     71                     72
                      A                      A                      A
 Frequencies --   1422.7565              1436.3760              1438.1588
 Red. masses --      1.4743                 1.2742                 1.2583
 Frc consts  --      1.7583                 1.5488                 1.5333
 IR Inten    --      4.4822                16.7921                 7.3943

                     73                     74                     75
                      A                      A                      A
 Frequencies --   1446.0008              1446.9229              1452.4365
 Red. masses --      2.3965                 1.4864                 1.6989
 Frc consts  --      2.9524                 1.8335                 2.1116
 IR Inten    --     20.9090                 7.3072                35.6197

                     76                     77                     78
                      A                      A                      A
 Frequencies --   1458.4457              1493.8808              1504.0638
 Red. masses --      1.2922                 1.3038                 2.3519
 Frc consts  --      1.6194                 1.7144                 3.1347
 IR Inten    --      3.2424                 6.0066                12.7495

                     79                     80                     81
                      A                      A                      A
 Frequencies --   1506.6475              1512.2446              1513.7837
 Red. masses --      1.0474                 1.0612                 1.0683
 Frc consts  --      1.4009                 1.4298                 1.4423
 IR Inten    --      4.8431                 3.9194                 2.3620

                     82                     83                     84
                      A                      A                      A
 Frequencies --   1520.3453              1524.2240              1525.1587
 Red. masses --      1.1289                 1.1206                 1.0871
 Frc consts  --      1.5375                 1.5338                 1.4898
 IR Inten    --      4.1992                17.8230                 6.5040

                     85                     86                     87
                      A                      A                      A
 Frequencies --   1530.9842              1534.1077              1549.5278
 Red. masses --      1.0549                 1.0986                 2.1024
 Frc consts  --      1.4568                 1.5233                 2.9742
 IR Inten    --      4.3527                 6.3538                37.3284

                     88                     89                     90
                      A                      A                      A
 Frequencies --   1567.2122              1576.3226              1629.5322
 Red. masses --      3.7324                 2.4815                 5.2373
 Frc consts  --      5.4012                 3.6329                 8.1938
 IR Inten    --     17.1473               106.6792                10.6491

                     91                     92                     93
                      A                      A                      A
 Frequencies --   3042.7540              3044.4288              3057.9700
 Red. masses --      1.0371                 1.0429                 1.0831
 Frc consts  --      5.6573                 5.6950                 5.9672
 IR Inten    --     45.3617                21.2526                16.6216

                     94                     95                     96
                      A                      A                      A
 Frequencies --   3064.4357              3071.3157              3086.3743
 Red. masses --      1.0396                 1.0409                 1.0606
 Frc consts  --      5.7519                 5.7851                 5.9527
 IR Inten    --     11.8042                32.4092                18.2095

                     97                     98                     99
                      A                      A                      A
 Frequencies --   3093.5286              3098.4692              3119.5774
 Red. masses --      1.1008                 1.0831                 1.0942
 Frc consts  --      6.2066                 6.1266                 6.2736
 IR Inten    --     23.3642                12.8737                27.9022

                    100                    101                    102
                      A                      A                      A
 Frequencies --   3124.7220              3134.1687              3137.9867
 Red. masses --      1.1011                 1.1013                 1.0996
 Frc consts  --      6.3344                 6.3738                 6.3793
 IR Inten    --     20.0566                13.8489                30.7893

                    103                    104                    105
                      A                      A                      A
 Frequencies --   3141.9585              3146.3450              3160.0445
 Red. masses --      1.1055                 1.1049                 1.1010
 Frc consts  --      6.4302                 6.4444                 6.4780
 IR Inten    --      5.4658                21.1224                 9.0895

                    106                    107                    108
                      A                      A                      A
 Frequencies --   3171.2271              3252.6534              3273.6360
 Red. masses --      1.0988                 1.0931                 1.0976
 Frc consts  --      6.5107                 6.8140                 6.9306
 IR Inten    --     20.7081                 8.8183                 1.7492

                    109                    110                    111
                      A                      A                      A
 Frequencies --   3278.0288              3306.0494              3503.7676
 Red. masses --      1.0968                 1.1020                 1.0729
 Frc consts  --      6.9436                 7.0969                 7.7605
 IR Inten    --      3.0673                 4.0136                 5.9246

 - Thermochemistry -
 -------------------
 Temperature   298.150 Kelvin.  Pressure   1.00000 Atm.
 Atom     1 has atomic number  6 and mass  12.00000

 Molecular mass:   247.17970 amu.
 Principal axes and moments of inertia in atomic units:
                           1         2         3
     Eigenvalues --  3801.092574463.132855153.88069
           X            0.98821  -0.15279   0.01031
           Y            0.15260   0.98814   0.01722
           Z           -0.01282  -0.01544   0.99980
 This molecule is an asymmetric top.
 Rotational symmetry number  1.
 Warning -- assumption of classical behavior for rotation
           may cause significant error
 Rotational temperatures (Kelvin)      0.02279     0.01941     0.01681
 Rotational constants (GHZ):           0.47480     0.40437     0.35017
 Zero-point vibrational energy     892187.0 (Joules/Mol)
                                  213.23782 (Kcal/Mol)
 Warning -- explicit consideration of  25 degrees of freedom as
           vibrations may cause significant error
 Vibrational temperatures:     57.20    78.27    95.22   109.56   130.94
          (Kelvin)            147.94   155.09   170.21   189.79   273.84
                              313.88   328.68   351.16   358.25   382.95
                              396.95   431.58   466.15   503.59   537.06
                              577.16   622.74   660.40   702.05   733.49
                              896.91   906.36   940.80   964.59   972.22
                             1022.54  1061.71  1097.88  1099.37  1141.30
                             1204.31  1215.95  1264.09  1266.40  1305.34
                             1339.07  1360.04  1361.94  1394.03  1405.78
                             1429.23  1462.04  1498.86  1542.18  1554.67
                             1579.70  1602.47  1610.28  1638.06  1675.47
                             1690.64  1700.16  1747.37  1763.34  1809.09
                             1814.48  1895.24  1912.17  1931.31  1933.66
                             1961.59  1978.26  1996.52  2035.15  2047.03
                             2066.62  2069.19  2080.47  2081.80  2089.73
                             2098.38  2149.36  2164.01  2167.73  2175.78
                             2178.00  2187.44  2193.02  2194.36  2202.74
                             2207.24  2229.42  2254.87  2267.98  2344.53
                             4377.84  4380.25  4399.74  4409.04  4418.94
                             4440.60  4450.90  4458.01  4488.38  4495.78
                             4509.37  4514.86  4520.58  4526.89  4546.60
                             4562.69  4679.84  4710.03  4716.35  4756.67
                             5041.14

 Zero-point correction=                           0.339816 (Hartree/Particle)
 Thermal correction to Energy=                    0.358019
 Thermal correction to Enthalpy=                  0.358964
 Thermal correction to Gibbs Free Energy=         0.293760
 Sum of electronic and zero-point Energies=           -781.509567
 Sum of electronic and thermal Energies=              -781.491364
 Sum of electronic and thermal Enthalpies=            -781.490420
 Sum of electronic and thermal Free Energies=         -781.555623

                     E (Thermal)             CV                S
                      KCal/Mol        Cal/Mol-Kelvin    Cal/Mol-Kelvin
 Total                  224.661             68.975            137.232
 Electronic               0.000              0.000              0.000
 Translational            0.889              2.981             42.415
 Rotational               0.889              2.981             32.836
 Vibrational            222.883             63.014             61.981
 Vibration     1          0.594              1.981              5.271
 Vibration     2          0.596              1.976              4.651
 Vibration     3          0.598              1.970              4.264
 Vibration     4          0.599              1.965              3.988
 Vibration     5          0.602              1.956              3.638
 Vibration     6          0.605              1.947              3.400
 Vibration     7          0.606              1.943              3.308
 Vibration     8          0.608              1.934              3.128
 Vibration     9          0.612              1.921              2.918
 Vibration    10          0.634              1.853              2.225
 Vibration    11          0.646              1.813              1.974
 Vibration    12          0.651              1.798              1.891
 Vibration    13          0.659              1.773              1.773
 Vibration    14          0.662              1.764              1.738
 Vibration    15          0.672              1.735              1.621
 Vibration    16          0.678              1.718              1.559
 Vibration    17          0.692              1.674              1.417
 Vibration    18          0.709              1.627              1.290
 Vibration    19          0.727              1.575              1.166
 Vibration    20          0.745              1.527              1.066
 Vibration    21          0.767              1.468              0.958
 Vibration    22          0.794              1.399              0.849
 Vibration    23          0.817              1.341              0.769
 Vibration    24          0.844              1.277              0.689
 Vibration    25          0.865              1.228              0.634

 Optimization completed.
    -- Stationary point found.
 Normal termination of Gaussian 16 at Fri Dec 11 19:25:06 2020.

 ----------------------------------------------------------------------
 # B3LYP/6-311++G(d,p) empiricaldispersion=gd3bj scf=xqc pop=npa geom=c
 heck
 ----------------------------------------------------------------------

 ---------------------------------------
 CID_113851049_JID_8067_Energie_neutraal
 ---------------------------------------
 Structure from the checkpoint file:  "JID_8067.chk"
 Charge =  0 Multiplicity = 1

 SCF Done:  E(RB3LYP) =  -782.060884606     A.U. after   16 cycles
 Normal termination of Gaussian 16 at Fri Dec 11 19:35:50 2020.

 ----------------------------------------------------------------------
 # B3LYP/6-311++G(d,p) empiricaldispersion=gd3bj scf=xqc pop=npa geom=c
 heck
 ----------------------------------------------------------------------

 -------------------------------------
 CID_113851049_JID_8067_Energie_kation
 -------------------------------------
 Structure from the checkpoint file:  "JID_8067.chk"
 Charge =  1 Multiplicity = 2

 SCF Done:  E(UB3LYP) =  -781.789853737     A.U. after   24 cycles
 Normal termination of Gaussian 16 at Fri Dec 11 19:59:02 2020.
 Gaussian 16:  ES64L-G16RevA.03 25-Dec-2016

 ----------------------------------------------------------------------
 # B3LYP/6-311++G(d,p) empiricaldispersion=gd3bj scf=xqc pop=npa geom=c
 heck
 ----------------------------------------------------------------------

 ------------------------------------
 CID_113851049_JID_8067_Energie_anion
 ------------------------------------
 Structure from the checkpoint file:  "JID_8067.chk"
 Charge = -1 Multiplicity = 2

                         Standard orientation:
 ---------------------------------------------------------------------
 Center     Atomic      Atomic             Coordinates (Angstroms)
 Number     Number       Type             X           Y           Z
 ---------------------------------------------------------------------
      1          6           0        3.616107   -1.401926   -1.346967
      2          6           0        2.588428   -0.520021   -0.713639
      3          6           0        2.379590   -0.259098    0.615536
      4          7           0        1.325163    0.643189    0.688733
      5          6           0        0.921392    0.855497   -0.605572
      6          7           0        1.662453    0.176685   -1.469323
      7          7           0       -0.096704    1.742321   -0.987723
      8          6           0       -1.500863    1.278610   -0.926823
      9          6           0       -2.362552    2.312593   -1.649305
     10          6           0       -1.724433   -0.134901   -1.514699
     11          7           0       -1.553749   -1.197236   -0.537551
     12          6           0       -0.523536   -2.072553   -0.398216
     13          6           0       -0.840362   -2.890650    0.671573
     14          6           0       -2.095209   -2.421694    1.116407
     15          7           0       -2.528538   -1.393015    0.383994
     16          6           0        0.823983    1.179295    1.967158
     17          6           0        0.447766    2.659071    1.880803
     18          6           0       -0.297232    0.305733    2.537052
     19          1           0        4.267450   -0.830244   -2.018867
     20          1           0        3.149541   -2.191532   -1.948959
     21          1           0        4.243828   -1.879774   -0.588090
     22          1           0        2.873136   -0.611689    1.509146
     23          1           0        0.112879    2.004591   -1.949081
     24          1           0       -1.802690    1.245998    0.123687
     25          1           0       -2.144138    2.323146   -2.725620
     26          1           0       -3.425339    2.085443   -1.524201
     27          1           0       -2.166834    3.313408   -1.253603
     28          1           0       -2.745122   -0.220053   -1.897157
     29          1           0       -1.024212   -0.315813   -2.334212
     30          1           0        0.339150   -2.020761   -1.043637
     31          1           0       -0.250867   -3.705402    1.065759
     32          1           0       -2.703146   -2.786689    1.934008
     33          1           0        1.685365    1.101301    2.640243
     34          1           0       -0.437160    2.821276    1.263845
     35          1           0        0.242557    3.029302    2.890865
     36          1           0        1.266201    3.245569    1.453243
     37          1           0        0.018404   -0.739329    2.594919
     38          1           0       -0.561278    0.649882    3.543362
     39          1           0       -1.196573    0.338023    1.917598
 ---------------------------------------------------------------------

 SCF Done:  E(UB3LYP) =  -782.046306728     A.U. after   33 cycles
 SCF Done:  E(UB3LYP) =  -782.046306728     a.u. after    1 cycles

 The electronic state is 2-A.
 Alpha  occ. eigenvalues --  -14.29954 -14.26812 -14.23736 -14.22848 -14.19269
 Alpha  occ. eigenvalues --  -10.15689 -10.12667 -10.12599 -10.12593 -10.11337
 Alpha  occ. eigenvalues --  -10.10027 -10.09344 -10.09262 -10.08053 -10.07547
 Alpha  occ. eigenvalues --  -10.07499 -10.06617 -10.06372  -0.96069  -0.92715
 Alpha  occ. eigenvalues --   -0.83502  -0.79327  -0.75510  -0.70087  -0.68749
 Alpha  occ. eigenvalues --   -0.68345  -0.65285  -0.60713  -0.59908  -0.58934
 Alpha  occ. eigenvalues --   -0.54084  -0.53066  -0.51490  -0.48207  -0.47185
 Alpha  occ. eigenvalues --   -0.46331  -0.44461  -0.41986  -0.39466  -0.38832
 Alpha  occ. eigenvalues --   -0.38485  -0.36522  -0.36201  -0.34864  -0.34518
 Alpha  occ. eigenvalues --   -0.33796  -0.32796  -0.32387  -0.32124  -0.31235
 Alpha  occ. eigenvalues --   -0.30570  -0.30331  -0.30064  -0.29058  -0.28668
 Alpha  occ. eigenvalues --   -0.28017  -0.27673  -0.26879  -0.25638  -0.24868
 Alpha  occ. eigenvalues --   -0.20825  -0.18982  -0.18150  -0.17275  -0.16339
 Alpha  occ. eigenvalues --   -0.15913  -0.11462   0.04220
 Alpha virt. eigenvalues --    0.05710   0.06434   0.07210   0.07935   0.08257
 Alpha virt. eigenvalues --    0.08516   0.08895   0.09327   0.09589   0.10340
 Alpha virt. eigenvalues --    0.10592   0.10773   0.11407   0.11620   0.11661

  Beta  occ. eigenvalues --  -14.29950 -14.26812 -14.23732 -14.22839 -14.19262
  Beta  occ. eigenvalues --  -10.15688 -10.12663 -10.12583 -10.12582 -10.11330
  Beta  occ. eigenvalues --  -10.10024 -10.09340 -10.09247 -10.08017 -10.07531
  Beta  occ. eigenvalues --  -10.07492 -10.06590 -10.06353  -0.96059  -0.92708
  Beta  occ. eigenvalues --   -0.83489  -0.79315  -0.75497  -0.70072  -0.68719
  Beta  occ. eigenvalues --   -0.68325  -0.65262  -0.60682  -0.59865  -0.58897
  Beta  occ. eigenvalues --   -0.54049  -0.53021  -0.51477  -0.48185  -0.47162
  Beta  occ. eigenvalues --   -0.46295  -0.44442  -0.41953  -0.39443  -0.38802
  Beta  occ. eigenvalues --   -0.38456  -0.36505  -0.36164  -0.34828  -0.34488
  Beta  occ. eigenvalues --   -0.33765  -0.32773  -0.32363  -0.32103  -0.31218
  Beta  occ. eigenvalues --   -0.30542  -0.30313  -0.30039  -0.29029  -0.28642
  Beta  occ. eigenvalues --   -0.27981  -0.27642  -0.26846  -0.25611  -0.24825
  Beta  occ. eigenvalues --   -0.20815  -0.18969  -0.18132  -0.17265  -0.16319
  Beta  occ. eigenvalues --   -0.15898  -0.11450
  Beta virt. eigenvalues --    0.06245   0.06652   0.07191   0.07497   0.08319
  Beta virt. eigenvalues --    0.08858   0.08962   0.09087   0.09703   0.09771
  Beta virt. eigenvalues --    0.10714   0.10840   0.11079   0.11587   0.11804

 Mulliken charges and spin densities:
               1          2
     1  C    1.328817  -1.691130
     2  C    0.383103   0.023856
     3  C   -0.784852   0.261583
     4  N    0.455550  -0.023831
     5  C   -0.767689  -0.400292
     6  N   -0.113392   0.080199
     7  N   -0.041370   0.200702
     8  C   -1.321654   1.345641
     9  C    0.888698  -1.523355
    10  C    0.354921  -0.761460
    11  N    0.273349   0.067236
    12  C   -0.116987  -0.072335
    13  C   -0.038957  -0.102513
    14  C    0.088439  -0.377871
    15  N   -0.262512   0.056309
    16  C   -0.745466   0.720785
    17  C    0.623433  -1.179510
    18  C    0.691758  -1.097435
    19  H    0.048176   0.102772
    20  H    0.002616   0.140387
    21  H   -0.108344   0.253182
    22  H   -0.671552   0.831919
    23  H    0.247633   0.040746
    24  H    0.531988  -0.333273
    25  H   -0.247664   0.398063
    26  H   -0.118432   0.274638
    27  H   -0.244257   0.400248
    28  H   -0.117632   0.338215
    29  H    0.201236   0.011465
    30  H    0.218314  -0.047732
    31  H   -0.274041   0.446099
    32  H    0.013330   0.123346
    33  H   -0.657315   0.852822
    34  H   -0.056010   0.213105
    35  H   -0.369404   0.527602
    36  H   -0.014414   0.172994
    37  H    0.198610  -0.011052
    38  H   -0.315517   0.479835
    39  H   -0.162512   0.258037
 Sum of Mulliken charges =  -1.00000   1.00000

 Dipole moment (field-independent basis, Debye):
    X=             -1.4604    Y=             -2.3108    Z=             -3.4104  Tot=              4.3707
 Quadrupole moment (field-independent basis, Debye-Ang):
   XX=           -171.7050   YY=           -162.6860   ZZ=           -168.9001
   XY=              6.0300   XZ=            -10.9154   YZ=             -2.1712

 Summary of Natural Population Analysis:

                                       Natural Population
                Natural  -----------------------------------------------
    Atom  No    Charge         Core      Valence    Rydberg      Total
 -----------------------------------------------------------------------
      C    1   -0.29340      0.99963     2.28893    0.00484     3.29340
      C    2    0.04620      0.99955     1.93986    0.01439     2.95380
      C    3   -0.03149      0.99946     2.02007    0.01196     3.03149
      N    4   -0.21324      0.99960     2.70054    0.01310     3.71324
      C    5    0.27918      0.99958     1.70281    0.01843     2.72082
      N    6   -0.28677      0.99968     2.77812    0.00897     3.78677
      N    7   -0.33687      0.99969     2.82587    0.01131     3.83687
      C    8   -0.01724      0.99958     2.00683    0.01083     3.01724
      C    9   -0.28751      0.99964     2.28168    0.00619     3.28751
      C   10   -0.09042      0.99958     2.07952    0.01132     3.09042
      N   11   -0.10966      0.99966     2.59670    0.01330     3.60966
      C   12   -0.00120      0.99956     1.99060    0.01104     3.00120
      C   13   -0.16825      0.99956     2.15948    0.00921     3.16825
      C   14   -0.01458      0.99963     2.00124    0.01371     3.01458
      N   15   -0.16065      0.99973     2.64982    0.01110     3.66065
      C   16   -0.00332      0.99960     1.99076    0.01297     3.00332
      C   17   -0.28616      0.99964     2.28067    0.00585     3.28616
      C   18   -0.28843      0.99963     2.28228    0.00653     3.28843
      H   19    0.10285      0.00000     0.39598    0.00117     0.39715
      H   20    0.10101      0.00000     0.39776    0.00123     0.39899
      H   21    0.10353      0.00000     0.39557    0.00090     0.39647
      H   22    0.10590      0.00000     0.39223    0.00188     0.39410
      H   23    0.18488      0.00000     0.31235    0.00277     0.31512
      H   24    0.09922      0.00000     0.39779    0.00300     0.40078
      H   25    0.09758      0.00000     0.40113    0.00128     0.40242
      H   26    0.10477      0.00000     0.39428    0.00095     0.39523
      H   27    0.10743      0.00000     0.39143    0.00114     0.39257
      H   28    0.10681      0.00000     0.39192    0.00126     0.39319
      H   29    0.10981      0.00000     0.38889    0.00130     0.39019
      H   30    0.11448      0.00000     0.38356    0.00196     0.38552
      H   31    0.10972      0.00000     0.38943    0.00085     0.39028
      H   32    0.09721      0.00000     0.40197    0.00083     0.40279
      H   33    0.09919      0.00000     0.39763    0.00318     0.40081
      H   34    0.10429      0.00000     0.39415    0.00156     0.39571
      H   35    0.10307      0.00000     0.39579    0.00115     0.39693
      H   36    0.10355      0.00000     0.39528    0.00118     0.39645
      H   37    0.10605      0.00000     0.39226    0.00169     0.39395
      H   38    0.10175      0.00000     0.39711    0.00115     0.39825
      H   39    0.10071      0.00000     0.39715    0.00214     0.39929
 =======================================================================
   * Total *    0.00000     17.99299    48.77941    0.22760    67.00000

 Normal termination of Gaussian 16 at Fri Dec 11 20:30:53 2020.
