 Gaussian 16, Revision A.03,

 -----------------------------------------------------------
 # opt freq B3LYP/6-31G(d) empiricaldispersion=gd3bj scf=xqc
 -----------------------------------------------------------

 -------------------------------
 CID_153109467_JID_2917_neutraal
 -------------------------------
 Symbolic Z-matrix:
 Charge =  0 Multiplicity = 1

 SCF Done:  E(RB3LYP) =  -469.323389337     A.U. after   13 cycles
 SCF Done:  E(RB3LYP) =  -469.326418101     A.U. after   11 cycles
 SCF Done:  E(RB3LYP) =  -469.326199705     A.U. after   10 cycles
 SCF Done:  E(RB3LYP) =  -469.326840842     A.U. after   11 cycles
 SCF Done:  E(RB3LYP) =  -469.327123234     A.U. after   10 cycles
 SCF Done:  E(RB3LYP) =  -469.327134126     A.U. after    9 cycles
 SCF Done:  E(RB3LYP) =  -469.327148415     A.U. after    8 cycles
 SCF Done:  E(RB3LYP) =  -469.327150232     A.U. after    7 cycles
 SCF Done:  E(RB3LYP) =  -469.327150387     A.U. after    6 cycles
 Optimization completed.
    -- Stationary point found.
 Normal termination of Gaussian 16 at Wed Dec  9 18:12:42 2020.

 --------------------------------------------------------------------
 #N Geom=AllCheck Guess=TCheck SCRF=Check GenChk RB3LYP/6-31G(d) Freq
 --------------------------------------------------------------------

 Structure from the checkpoint file:  "JID_2917.chk"
 -------------------------------
 CID_153109467_JID_2917_neutraal
 -------------------------------
 Charge =  0 Multiplicity = 1

 SCF Done:  E(RB3LYP) =  -469.327150387     A.U. after    1 cycles

  Exact polarizability: 126.569   0.827 115.004   0.335  -0.014 106.483
 Approx polarizability: 165.892   0.809 164.188   1.732   1.407 161.736

                      1                      2                      3
                      A                      A                      A
 Frequencies --     72.5522                98.0275               141.3195
 Red. masses --      2.9409                 2.2642                 3.0888
 Frc consts  --      0.0091                 0.0128                 0.0363
 IR Inten    --      0.0472                 0.0345                 0.1328

                      4                      5                      6
                      A                      A                      A
 Frequencies --    179.9273               213.1873               237.0577
 Red. masses --      3.2142                 2.4400                 1.9340
 Frc consts  --      0.0613                 0.0653                 0.0640
 IR Inten    --      0.0884                 0.1299                 0.0971

                      7                      8                      9
                      A                      A                      A
 Frequencies --    273.1586               294.5650               307.3581
 Red. masses --      1.5484                 2.7237                 1.6272
 Frc consts  --      0.0681                 0.1392                 0.0906
 IR Inten    --      0.0070                 0.6431                 0.0918

                     10                     11                     12
                      A                      A                      A
 Frequencies --    330.2751               367.4790               385.6484
 Red. masses --      2.1871                 2.3595                 2.0011
 Frc consts  --      0.1406                 0.1877                 0.1754
 IR Inten    --      0.3873                 0.2706                 0.0388

                     13                     14                     15
                      A                      A                      A
 Frequencies --    408.2792               448.2170               514.3171
 Red. masses --      2.1556                 2.3372                 2.8094
 Frc consts  --      0.2117                 0.2766                 0.4379
 IR Inten    --      0.4365                 0.2321                 0.7711

                     16                     17                     18
                      A                      A                      A
 Frequencies --    540.9871               598.2508               718.3541
 Red. masses --      2.8585                 3.3832                 2.4288
 Frc consts  --      0.4929                 0.7134                 0.7385
 IR Inten    --      1.6472                 2.0152                 0.2623

                     19                     20                     21
                      A                      A                      A
 Frequencies --    725.6590               788.0373               789.8333
 Red. masses --      2.6918                 1.2493                 1.1394
 Frc consts  --      0.8351                 0.4571                 0.4188
 IR Inten    --      1.7468                 2.5334                 0.4620

                     22                     23                     24
                      A                      A                      A
 Frequencies --    801.7341               814.2156               847.0123
 Red. masses --      1.2982                 1.3757                 2.2240
 Frc consts  --      0.4916                 0.5373                 0.9401
 IR Inten    --      0.8814                 2.8205                 6.3416

                     25                     26                     27
                      A                      A                      A
 Frequencies --    888.7101               912.9100               916.9618
 Red. masses --      2.2127                 2.1025                 1.9749
 Frc consts  --      1.0296                 1.0324                 0.9784
 IR Inten    --      2.0931                 3.4775                 1.9024

                     28                     29                     30
                      A                      A                      A
 Frequencies --    932.0921               954.8411               968.2333
 Red. masses --      1.4875                 1.5489                 1.7348
 Frc consts  --      0.7614                 0.8320                 0.9582
 IR Inten    --      4.2857                 1.2544                 1.0989

                     31                     32                     33
                      A                      A                      A
 Frequencies --    986.1195               991.4015              1009.4307
 Red. masses --      1.9954                 2.2780                 1.8356
 Frc consts  --      1.1432                 1.3192                 1.1020
 IR Inten    --      7.4300                 7.1030                 0.2806

                     34                     35                     36
                      A                      A                      A
 Frequencies --   1018.2074              1042.2137              1057.4678
 Red. masses --      1.8142                 2.2062                 1.5396
 Frc consts  --      1.1082                 1.4119                 1.0144
 IR Inten    --      1.2343                 0.6314                 7.8094

                     37                     38                     39
                      A                      A                      A
 Frequencies --   1063.0075              1064.9382              1083.1112
 Red. masses --      1.5426                 1.6779                 1.4146
 Frc consts  --      1.0270                 1.1211                 0.9778
 IR Inten    --      8.5829                 2.4558                 0.8809

                     40                     41                     42
                      A                      A                      A
 Frequencies --   1086.0830              1105.4456              1138.2930
 Red. masses --      1.4015                 1.5465                 2.3303
 Frc consts  --      0.9740                 1.1135                 1.7790
 IR Inten    --      1.5773                 4.1372                 3.4987

                     43                     44                     45
                      A                      A                      A
 Frequencies --   1168.5100              1191.1773              1201.0927
 Red. masses --      1.4035                 1.2953                 1.3634
 Frc consts  --      1.1291                 1.0828                 1.1588
 IR Inten    --      0.1096                 0.3672                 0.5255

                     46                     47                     48
                      A                      A                      A
 Frequencies --   1202.3278              1204.2632              1256.6586
 Red. masses --      1.3975                 1.7291                 1.5356
 Frc consts  --      1.1903                 1.4774                 1.4288
 IR Inten    --      0.8696                 2.6423                 4.4993

                     49                     50                     51
                      A                      A                      A
 Frequencies --   1289.0865              1301.1560              1320.0404
 Red. masses --      1.6775                 1.7151                 1.3520
 Frc consts  --      1.6424                 1.7108                 1.3880
 IR Inten    --      0.0220                 0.8435                 2.7564

                     52                     53                     54
                      A                      A                      A
 Frequencies --   1340.5489              1373.3404              1377.5998
 Red. masses --      1.4712                 1.5554                 1.6665
 Frc consts  --      1.5577                 1.7284                 1.8634
 IR Inten    --      0.3633                 1.0538                 0.2502

                     55                     56                     57
                      A                      A                      A
 Frequencies --   1395.7349              1405.7395              1413.2933
 Red. masses --      1.7839                 1.4279                 1.5490
 Frc consts  --      2.0475                 1.6625                 1.8229
 IR Inten    --      4.4762                 2.8691                 1.4004

                     58                     59                     60
                      A                      A                      A
 Frequencies --   1418.5511              1431.2452              1447.6560
 Red. masses --      1.4096                 1.8805                 1.3037
 Frc consts  --      1.6712                 2.2696                 1.6097
 IR Inten    --      3.7345                 4.3665                 8.0416

                     61                     62                     63
                      A                      A                      A
 Frequencies --   1486.5555              1495.2041              1506.9551
 Red. masses --      1.0883                 1.1184                 1.0984
 Frc consts  --      1.4169                 1.4732                 1.4696
 IR Inten    --      4.1146                 1.4825                 3.5697

                     64                     65                     66
                      A                      A                      A
 Frequencies --   1509.1928              1521.1402              1524.2684
 Red. masses --      1.0825                 1.1296                 1.0829
 Frc consts  --      1.4527                 1.5400                 1.4824
 IR Inten    --      1.2672                 4.9733                 2.9790

                     67                     68                     69
                      A                      A                      A
 Frequencies --   1533.4928              1536.3891              1542.1799
 Red. masses --      1.2179                 1.1264                 1.3345
 Frc consts  --      1.6875                 1.5665                 1.8700
 IR Inten    --     10.0408                 2.1634                 2.2335

                     70                     71                     72
                      A                      A                      A
 Frequencies --   1547.6651              3003.1611              3017.7564
 Red. masses --      1.0608                 1.0767                 1.0616
 Frc consts  --      1.4970                 5.7212                 5.6962
 IR Inten    --      3.2858                 1.8199                22.1116

                     73                     74                     75
                      A                      A                      A
 Frequencies --   3024.0728              3035.7220              3047.6953
 Red. masses --      1.0632                 1.0684                 1.0660
 Frc consts  --      5.7287                 5.8011                 5.8339
 IR Inten    --     34.3716                99.5618                37.1008

                     76                     77                     78
                      A                      A                      A
 Frequencies --   3049.7645              3056.9196              3061.5680
 Red. masses --      1.0994                 1.0455                 1.0990
 Frc consts  --      6.0250                 5.7561                 6.0692
 IR Inten    --     16.6382                32.4784                45.0398

                     79                     80                     81
                      A                      A                      A
 Frequencies --   3065.2290              3099.5940              3114.1531
 Red. masses --      1.1021                 1.0976                 1.0973
 Frc consts  --      6.1010                 6.2130                 6.2701
 IR Inten    --     39.3260                72.4636                24.5503

                     82                     83                     84
                      A                      A                      A
 Frequencies --   3139.5842              3139.7459              3143.6812
 Red. masses --      1.0514                 1.0521                 1.0580
 Frc consts  --      6.1062                 6.1108                 6.1602
 IR Inten    --     31.5782                 7.1199                11.8065

                     85                     86                     87
                      A                      A                      A
 Frequencies --   3145.8696              3155.2426              3212.7172
 Red. masses --      1.0568                 1.0978                 1.1191
 Frc consts  --      6.1618                 6.4390                 6.8054
 IR Inten    --     19.2143                22.0459                 0.6153

                     88                     89                     90
                      A                      A                      A
 Frequencies --   3214.5047              3225.7186              3227.9020
 Red. masses --      1.1179                 1.1163                 1.1151
 Frc consts  --      6.8060                 6.8435                 6.8452
 IR Inten    --      0.0561                34.6188                16.1915

 - Thermochemistry -
 -------------------
 Temperature   298.150 Kelvin.  Pressure   1.00000 Atm.
 Atom     1 has atomic number  6 and mass  12.00000

 Molecular mass:   164.15650 amu.
 Principal axes and moments of inertia in atomic units:
                           1         2         3
     Eigenvalues --  1312.379582222.733352664.74476
           X            0.99997   0.00327   0.00761
           Y           -0.00326   0.99999  -0.00109
           Z           -0.00762   0.00106   0.99997
 This molecule is an asymmetric top.
 Rotational symmetry number  1.
 Warning -- assumption of classical behavior for rotation
           may cause significant error
 Rotational temperatures (Kelvin)      0.06600     0.03897     0.03250
 Rotational constants (GHZ):           1.37517     0.81195     0.67727
 Zero-point vibrational energy     778987.8 (Joules/Mol)
                                  186.18255 (Kcal/Mol)
 Warning -- explicit consideration of  17 degrees of freedom as
           vibrations may cause significant error
 Vibrational temperatures:    104.39   141.04   203.33   258.88   306.73
          (Kelvin)            341.07   393.01   423.81   442.22   475.19
                              528.72   554.86   587.42   644.88   739.99
                              778.36   860.75  1033.55  1044.06  1133.81
                             1136.39  1153.52  1171.47  1218.66  1278.66
                             1313.47  1319.30  1341.07  1373.80  1393.07
                             1418.81  1426.41  1452.35  1464.97  1499.51
                             1521.46  1529.43  1532.21  1558.36  1562.63
                             1590.49  1637.75  1681.23  1713.84  1728.10
                             1729.88  1732.67  1808.05  1854.71  1872.07
                             1899.24  1928.75  1975.93  1982.06  2008.15
                             2022.55  2033.41  2040.98  2059.24  2082.85
                             2138.82  2151.27  2168.17  2171.39  2188.58
                             2193.08  2206.35  2210.52  2218.85  2226.74
                             4320.88  4341.88  4350.97  4367.73  4384.95
                             4387.93  4398.23  4404.91  4410.18  4459.62
                             4480.57  4517.16  4517.39  4523.06  4526.20
                             4539.69  4622.38  4624.96  4641.09  4644.23

 Zero-point correction=                           0.296701 (Hartree/Particle)
 Thermal correction to Energy=                    0.308327
 Thermal correction to Enthalpy=                  0.309271
 Thermal correction to Gibbs Free Energy=         0.260269
 Sum of electronic and zero-point Energies=           -469.030450
 Sum of electronic and thermal Energies=              -469.018824
 Sum of electronic and thermal Enthalpies=            -469.017879
 Sum of electronic and thermal Free Energies=         -469.066881

                     E (Thermal)             CV                S
                      KCal/Mol        Cal/Mol-Kelvin    Cal/Mol-Kelvin
 Total                  193.478             47.962            103.133
 Electronic               0.000              0.000              0.000
 Translational            0.889              2.981             41.195
 Rotational               0.889              2.981             30.431
 Vibrational            191.701             42.000             31.506
 Vibration     1          0.599              1.967              4.083
 Vibration     2          0.603              1.951              3.493
 Vibration     3          0.615              1.912              2.786
 Vibration     4          0.629              1.867              2.329
 Vibration     5          0.644              1.821              2.016
 Vibration     6          0.656              1.784              1.825
 Vibration     7          0.676              1.723              1.576
 Vibration     8          0.689              1.684              1.448
 Vibration     9          0.697              1.660              1.377
 Vibration    10          0.713              1.615              1.259
 Vibration    11          0.740              1.539              1.090
 Vibration    12          0.754              1.501              1.017
 Vibration    13          0.773              1.452              0.933
 Vibration    14          0.807              1.365              0.801
 Vibration    15          0.869              1.218              0.623
 Vibration    16          0.896              1.159              0.563
 Vibration    17          0.956              1.036              0.453

 Optimization completed.
    -- Stationary point found.
 Normal termination of Gaussian 16 at Wed Dec  9 18:22:17 2020.

 ----------------------------------------------------------------------
 # B3LYP/6-311++G(d,p) empiricaldispersion=gd3bj scf=xqc pop=npa geom=c
 heck
 ----------------------------------------------------------------------

 ---------------------------------------
 CID_153109467_JID_2917_Energie_neutraal
 ---------------------------------------
 Structure from the checkpoint file:  "JID_2917.chk"
 Charge =  0 Multiplicity = 1

 SCF Done:  E(RB3LYP) =  -469.450137742     A.U. after   13 cycles
 Normal termination of Gaussian 16 at Wed Dec  9 18:25:44 2020.

 ----------------------------------------------------------------------
 # B3LYP/6-311++G(d,p) empiricaldispersion=gd3bj scf=xqc pop=npa geom=c
 heck
 ----------------------------------------------------------------------

 -------------------------------------
 CID_153109467_JID_2917_Energie_kation
 -------------------------------------
 Structure from the checkpoint file:  "JID_2917.chk"
 Charge =  1 Multiplicity = 2

 SCF Done:  E(UB3LYP) =  -469.127878935     A.U. after   22 cycles
 Normal termination of Gaussian 16 at Wed Dec  9 18:33:00 2020.
 Gaussian 16:  ES64L-G16RevA.03 25-Dec-2016

 ----------------------------------------------------------------------
 # B3LYP/6-311++G(d,p) empiricaldispersion=gd3bj scf=xqc pop=npa geom=c
 heck
 ----------------------------------------------------------------------

 ------------------------------------
 CID_153109467_JID_2917_Energie_anion
 ------------------------------------
 Structure from the checkpoint file:  "JID_2917.chk"
 Charge = -1 Multiplicity = 2

                         Standard orientation:
 ---------------------------------------------------------------------
 Center     Atomic      Atomic             Coordinates (Angstroms)
 Number     Number       Type             X           Y           Z
 ---------------------------------------------------------------------
      1          6           0        2.578058    0.361607    1.331052
      2          6           0        2.732922    0.166804   -0.181155
      3          6           0        1.549904   -0.418182   -0.988689
      4          6           0        0.948625   -1.711639   -0.395574
      5          6           0       -0.106627   -1.473984    0.696739
      6          6           0       -1.195868   -0.524706    0.221021
      7          6           0       -2.368643   -1.122019   -0.524209
      8          6           0       -2.542082   -0.610421    0.887988
      9          6           0       -0.632494    0.791834   -0.263033
     10          6           0        0.430063    0.590591   -1.336088
     11          6           0       -1.516858    2.004437   -0.400182
     12          6           0       -0.495980    1.940665    0.710297
     13          1           0        1.717722    0.985226    1.584026
     14          1           0        3.474389    0.843272    1.739480
     15          1           0        2.462363   -0.596317    1.848674
     16          1           0        3.005895    1.128083   -0.638883
     17          1           0        3.595821   -0.494343   -0.343220
     18          1           0        1.996593   -0.696986   -1.953596
     19          1           0        0.465751   -2.269380   -1.209523
     20          1           0        1.751883   -2.354574   -0.012307
     21          1           0        0.354223   -1.059266    1.599350
     22          1           0       -0.552974   -2.434106    0.985828
     23          1           0       -2.807594   -0.535664   -1.326892
     24          1           0       -2.386403   -2.196237   -0.690730
     25          1           0       -2.655435   -1.340372    1.685539
     26          1           0       -3.126487    0.292691    1.037955
     27          1           0        0.874692    1.556719   -1.608519
     28          1           0       -0.084966    0.221362   -2.234891
     29          1           0       -2.568438    1.934632   -0.137795
     30          1           0       -1.318635    2.671409   -1.235542
     31          1           0       -0.861343    1.789789    1.722818
     32          1           0        0.376820    2.584143    0.639229
 ---------------------------------------------------------------------

 SCF Done:  E(UB3LYP) =  -469.431596398     A.U. after   31 cycles

 The electronic state is 2-A.
 Alpha  occ. eigenvalues --  -10.08074 -10.08036 -10.06923 -10.06768 -10.06711
 Alpha  occ. eigenvalues --  -10.06576 -10.06008 -10.05824 -10.05658 -10.05326
 Alpha  occ. eigenvalues --  -10.05306 -10.04782  -0.78682  -0.73861  -0.70425
 Alpha  occ. eigenvalues --   -0.64230  -0.61511  -0.57162  -0.51647  -0.50414
 Alpha  occ. eigenvalues --   -0.49956  -0.49206  -0.44701  -0.41017  -0.39973
 Alpha  occ. eigenvalues --   -0.37812  -0.37063  -0.34733  -0.33946  -0.31908
 Alpha  occ. eigenvalues --   -0.30206  -0.29998  -0.28872  -0.26928  -0.26771
 Alpha  occ. eigenvalues --   -0.26357  -0.26272  -0.25713  -0.23227  -0.22499
 Alpha  occ. eigenvalues --   -0.21184  -0.20038  -0.19815  -0.18489  -0.16818
 Alpha  occ. eigenvalues --   -0.15576   0.04830
 Alpha virt. eigenvalues --    0.06980   0.07257   0.07563   0.09063   0.09206
 Alpha virt. eigenvalues --    0.09299   0.09859   0.10177   0.11502   0.11859
 Alpha virt. eigenvalues --    0.12119   0.12466   0.12688   0.13381   0.13841

  Beta  occ. eigenvalues --  -10.08074 -10.08036 -10.06911 -10.06753 -10.06698
  Beta  occ. eigenvalues --  -10.06556 -10.06001 -10.05812 -10.05639 -10.05302
  Beta  occ. eigenvalues --  -10.05282 -10.04761  -0.78673  -0.73849  -0.70389
  Beta  occ. eigenvalues --   -0.64194  -0.61477  -0.57127  -0.51594  -0.50369
  Beta  occ. eigenvalues --   -0.49907  -0.49164  -0.44658  -0.40969  -0.39944
  Beta  occ. eigenvalues --   -0.37767  -0.37030  -0.34702  -0.33911  -0.31867
  Beta  occ. eigenvalues --   -0.30177  -0.29977  -0.28839  -0.26890  -0.26750
  Beta  occ. eigenvalues --   -0.26327  -0.26252  -0.25687  -0.23195  -0.22471
  Beta  occ. eigenvalues --   -0.21148  -0.20012  -0.19783  -0.18462  -0.16794
  Beta  occ. eigenvalues --   -0.15557
  Beta virt. eigenvalues --    0.06939   0.07756   0.07956   0.08098   0.09612
  Beta virt. eigenvalues --    0.09791   0.09865   0.10310   0.10648   0.11991
  Beta virt. eigenvalues --    0.12320   0.12468   0.12865   0.13165   0.13769

 Mulliken charges and spin densities:
               1          2
     1  C   -0.084158  -0.487418
     2  C    1.348169  -1.905296
     3  C   -1.282232   1.903779
     4  C    0.941253  -1.730899
     5  C    1.407521  -1.231174
     6  C   -3.204639   3.120850
     7  C   -0.105177  -0.534884
     8  C   -0.003119  -0.257266
     9  C   -0.745918   1.544571
    10  C    1.700659  -2.571884
    11  C    1.564147  -1.948650
    12  C   -0.021640  -0.507250
    13  H   -0.147826   0.313305
    14  H   -0.305701   0.447561
    15  H    0.068152   0.076630
    16  H   -0.088802   0.214482
    17  H   -0.376833   0.536133
    18  H   -0.786618   1.004765
    19  H    0.131667   0.027924
    20  H   -0.359852   0.538849
    21  H    0.197651  -0.064900
    22  H   -0.150604   0.323501
    23  H   -0.082321   0.242587
    24  H   -0.225994   0.368258
    25  H   -0.130638   0.275468
    26  H   -0.054239   0.187326
    27  H   -0.261524   0.410814
    28  H    0.096023   0.080337
    29  H    0.165984  -0.033051
    30  H   -0.260238   0.414835
    31  H    0.078548   0.075116
    32  H   -0.021699   0.165584
 Sum of Mulliken charges =  -1.00000   1.00000

 Dipole moment (field-independent basis, Debye):
    X=             -3.8907    Y=              1.4715    Z=              2.3182  Tot=              4.7620
 Quadrupole moment (field-independent basis, Debye-Ang):
   XX=           -138.7537   YY=           -124.3039   ZZ=           -115.2174
   XY=             -1.4487   XZ=              2.0460   YZ=              0.1691

 Summary of Natural Population Analysis:

                                       Natural Population
                Natural  -----------------------------------------------
    Atom  No    Charge         Core      Valence    Rydberg      Total
 -----------------------------------------------------------------------
      C    1   -0.28849      0.99965     2.28326    0.00559     3.28849
      C    2   -0.18461      0.99961     2.17599    0.00900     3.18461
      C    3   -0.10743      0.99958     2.09553    0.01232     3.10743
      C    4   -0.18804      0.99961     2.17865    0.00978     3.18804
      C    5   -0.18327      0.99958     2.17437    0.00932     3.18327
      C    6   -0.03861      0.99949     2.02523    0.01388     3.03861
      C    7   -0.19327      0.99958     2.18493    0.00876     3.19327
      C    8   -0.19558      0.99958     2.18753    0.00846     3.19558
      C    9   -0.04012      0.99949     2.02581    0.01481     3.04012
      C   10   -0.18105      0.99957     2.17048    0.01100     3.18105
      C   11   -0.19474      0.99958     2.18654    0.00862     3.19474
      C   12   -0.19661      0.99958     2.18841    0.00862     3.19661
      H   13    0.09799      0.00000     0.40063    0.00138     0.40201
      H   14    0.09742      0.00000     0.40161    0.00098     0.40258
      H   15    0.09452      0.00000     0.40437    0.00111     0.40548
      H   16    0.09413      0.00000     0.40435    0.00153     0.40587
      H   17    0.09601      0.00000     0.40223    0.00176     0.40399
      H   18    0.10018      0.00000     0.39748    0.00234     0.39982
      H   19    0.09846      0.00000     0.39992    0.00163     0.40154
      H   20    0.10010      0.00000     0.39865    0.00126     0.39990
      H   21    0.09859      0.00000     0.39969    0.00172     0.40141
      H   22    0.09851      0.00000     0.40020    0.00130     0.40149
      H   23    0.10283      0.00000     0.39606    0.00111     0.39717
      H   24    0.10208      0.00000     0.39681    0.00111     0.39792
      H   25    0.10158      0.00000     0.39746    0.00096     0.39842
      H   26    0.10016      0.00000     0.39878    0.00106     0.39984
      H   27    0.09986      0.00000     0.39839    0.00175     0.40014
      H   28    0.10078      0.00000     0.39763    0.00159     0.39922
      H   29    0.10001      0.00000     0.39887    0.00112     0.39999
      H   30    0.10265      0.00000     0.39634    0.00100     0.39735
      H   31    0.10234      0.00000     0.39666    0.00101     0.39766
      H   32    0.10364      0.00000     0.39536    0.00100     0.39636
 =======================================================================
   * Total *   -0.00000     11.99491    33.85822    0.14688    46.00000

 Normal termination of Gaussian 16 at Wed Dec  9 18:42:48 2020.
