 Gaussian 16, Revision A.03,

 -----------------------------------------------------------
 # opt freq B3LYP/6-31G(d) empiricaldispersion=gd3bj scf=xqc
 -----------------------------------------------------------

 -------------------------------
 CID_102823352_JID_6062_neutraal
 -------------------------------
 Symbolic Z-matrix:
 Charge =  0 Multiplicity = 1

 SCF Done:  E(RB3LYP) =  -710.862408870     A.U. after   15 cycles
 SCF Done:  E(RB3LYP) =  -710.864742467     A.U. after   12 cycles
 SCF Done:  E(RB3LYP) =  -710.863723119     A.U. after   12 cycles
 SCF Done:  E(RB3LYP) =  -710.865151964     A.U. after   12 cycles
 SCF Done:  E(RB3LYP) =  -710.865432872     A.U. after   11 cycles
 SCF Done:  E(RB3LYP) =  -710.865374352     A.U. after   11 cycles
 SCF Done:  E(RB3LYP) =  -710.865542860     A.U. after   11 cycles
 SCF Done:  E(RB3LYP) =  -710.865560650     A.U. after   10 cycles
 SCF Done:  E(RB3LYP) =  -710.865567712     A.U. after   10 cycles
 SCF Done:  E(RB3LYP) =  -710.865568526     A.U. after    8 cycles
 SCF Done:  E(RB3LYP) =  -710.865568853     A.U. after    8 cycles
 SCF Done:  E(RB3LYP) =  -710.865568913     A.U. after    7 cycles
 SCF Done:  E(RB3LYP) =  -710.865568970     A.U. after    7 cycles
 Optimization completed.
    -- Stationary point found.
 Normal termination of Gaussian 16 at Thu Dec 10 21:09:44 2020.

 --------------------------------------------------------------------
 #N Geom=AllCheck Guess=TCheck SCRF=Check GenChk RB3LYP/6-31G(d) Freq
 --------------------------------------------------------------------

 Structure from the checkpoint file:  "JID_6062.chk"
 -------------------------------
 CID_102823352_JID_6062_neutraal
 -------------------------------
 Charge =  0 Multiplicity = 1

 SCF Done:  E(RB3LYP) =  -710.865568970     A.U. after    1 cycles

  Exact polarizability: 194.672   0.425 151.166  11.237   4.328  95.683
 Approx polarizability: 274.147  -0.787 246.411  25.723   8.555 136.361

                      1                      2                      3
                      A                      A                      A
 Frequencies --     24.9654                34.9137                58.4455
 Red. masses --      4.4646                 4.3367                 2.4521
 Frc consts  --      0.0016                 0.0031                 0.0049
 IR Inten    --      0.1831                 0.0643                 0.3892

                      4                      5                      6
                      A                      A                      A
 Frequencies --     60.5350                84.8523               142.5611
 Red. masses --      7.2679                 4.7641                 4.7158
 Frc consts  --      0.0157                 0.0202                 0.0565
 IR Inten    --      0.7765                 0.4963                 2.6272

                      7                      8                      9
                      A                      A                      A
 Frequencies --    162.5372               173.7221               218.7449
 Red. masses --      4.4347                 3.1195                 2.1397
 Frc consts  --      0.0690                 0.0555                 0.0603
 IR Inten    --      0.6840                 0.1608                 2.1726

                     10                     11                     12
                      A                      A                      A
 Frequencies --    225.8605               254.7614               273.4093
 Red. masses --      1.7847                 2.7007                 2.8011
 Frc consts  --      0.0536                 0.1033                 0.1234
 IR Inten    --      0.9941                 0.2921                 3.3478

                     13                     14                     15
                      A                      A                      A
 Frequencies --    294.0417               375.6706               379.8695
 Red. masses --      2.4625                 3.3032                 3.9880
 Frc consts  --      0.1254                 0.2747                 0.3391
 IR Inten    --      0.5531                 1.6264                 5.7257

                     16                     17                     18
                      A                      A                      A
 Frequencies --    410.6044               432.1501               453.6876
 Red. masses --      3.2539                 3.2010                 2.5096
 Frc consts  --      0.3232                 0.3522                 0.3043
 IR Inten    --     22.8620                 4.0881                 1.9641

                     19                     20                     21
                      A                      A                      A
 Frequencies --    485.5181               512.7906               537.7961
 Red. masses --      2.6781                 2.9315                 2.9626
 Frc consts  --      0.3720                 0.4542                 0.5048
 IR Inten    --     33.7576                36.6126                16.8248

                     22                     23                     24
                      A                      A                      A
 Frequencies --    598.3802               625.8130               646.2992
 Red. masses --      2.3045                 1.4272                 5.1066
 Frc consts  --      0.4862                 0.3293                 1.2567
 IR Inten    --     47.6410                81.7595                37.2751

                     25                     26                     27
                      A                      A                      A
 Frequencies --    664.5808               697.8879               729.2891
 Red. masses --      3.2546                 2.2220                 2.1268
 Frc consts  --      0.8469                 0.6376                 0.6665
 IR Inten    --      7.5444                 0.2399                 1.4248

                     28                     29                     30
                      A                      A                      A
 Frequencies --    763.4711               767.3304               811.3517
 Red. masses --      3.8615                 2.9157                 1.1511
 Frc consts  --      1.3262                 1.0115                 0.4465
 IR Inten    --      8.6227                88.3954                 0.0446

                     31                     32                     33
                      A                      A                      A
 Frequencies --    816.1434               837.9870               880.3923
 Red. masses --      1.6991                 1.2660                 1.6408
 Frc consts  --      0.6668                 0.5238                 0.7493
 IR Inten    --      5.9930                 6.0451                 9.3909

                     34                     35                     36
                      A                      A                      A
 Frequencies --    900.5371               908.3522               911.2432
 Red. masses --      2.5158                 1.5100                 2.5707
 Frc consts  --      1.2021                 0.7340                 1.2577
 IR Inten    --      3.1758                 0.3770                 7.9406

                     37                     38                     39
                      A                      A                      A
 Frequencies --    963.3731               973.4714               974.9506
 Red. masses --      2.5571                 1.9107                 1.3671
 Frc consts  --      1.3983                 1.0668                 0.7656
 IR Inten    --      3.5072                 5.1403                 3.0721

                     40                     41                     42
                      A                      A                      A
 Frequencies --    988.0375              1013.8351              1035.2445
 Red. masses --      1.8759                 5.2109                 1.8507
 Frc consts  --      1.0790                 3.1557                 1.1686
 IR Inten    --      0.6865                 4.1122                10.6164

                     43                     44                     45
                      A                      A                      A
 Frequencies --   1066.7692              1088.3416              1094.7764
 Red. masses --      1.3279                 1.5973                 1.4322
 Frc consts  --      0.8903                 1.1147                 1.0114
 IR Inten    --      5.6595                 0.2060                 3.6215

                     46                     47                     48
                      A                      A                      A
 Frequencies --   1103.9931              1126.6263              1137.6003
 Red. masses --      2.4075                 1.9787                 1.6265
 Frc consts  --      1.7288                 1.4797                 1.2402
 IR Inten    --     74.0754                28.7736                 8.7721

                     49                     50                     51
                      A                      A                      A
 Frequencies --   1155.5552              1161.1775              1201.0915
 Red. masses --      1.2562                 2.1032                 1.2162
 Frc consts  --      0.9883                 1.6708                 1.0337
 IR Inten    --      0.5111                 0.0483                73.4144

                     52                     53                     54
                      A                      A                      A
 Frequencies --   1208.6437              1215.0362              1219.6244
 Red. masses --      1.5822                 1.5537                 1.5860
 Frc consts  --      1.3618                 1.3514                 1.3900
 IR Inten    --    101.7412                80.1033                46.2987

                     55                     56                     57
                      A                      A                      A
 Frequencies --   1251.4414              1281.1037              1308.3281
 Red. masses --      1.8384                 1.1833                 1.8506
 Frc consts  --      1.6963                 1.1442                 1.8663
 IR Inten    --      4.6176                 6.1838                35.6117

                     58                     59                     60
                      A                      A                      A
 Frequencies --   1337.7033              1358.5846              1373.3348
 Red. masses --      1.4796                 1.4101                 1.7729
 Frc consts  --      1.5600                 1.5335                 1.9701
 IR Inten    --     31.3359                15.0391                31.0380

                     61                     62                     63
                      A                      A                      A
 Frequencies --   1382.0396              1402.7455              1414.7604
 Red. masses --      2.3612                 3.5099                 1.4591
 Frc consts  --      2.6572                 4.0692                 1.7207
 IR Inten    --     46.4562               104.4873                19.4517

                     64                     65                     66
                      A                      A                      A
 Frequencies --   1429.1887              1448.6616              1479.3604
 Red. masses --      1.5840                 1.2554                 2.8812
 Frc consts  --      1.9063                 1.5523                 3.7152
 IR Inten    --     10.1623                 4.0495                84.1385

                     67                     68                     69
                      A                      A                      A
 Frequencies --   1498.0352              1520.8522              1526.3513
 Red. masses --      1.0963                 1.2771                 1.1602
 Frc consts  --      1.4495                 1.7404                 1.5925
 IR Inten    --      1.5406                17.4266                 1.5318

                     70                     71                     72
                      A                      A                      A
 Frequencies --   1533.5357              1537.1111              1558.9063
 Red. masses --      1.2995                 1.3600                 1.0995
 Frc consts  --      1.8006                 1.8932                 1.5743
 IR Inten    --      7.3522                 5.5862                45.0556

                     73                     74                     75
                      A                      A                      A
 Frequencies --   1565.9909              1648.1877              1668.6459
 Red. masses --      2.0252                 5.2233                 5.6576
 Frc consts  --      2.9261                 8.3600                 9.2814
 IR Inten    --    104.4671                53.5157               161.3143

                     76                     77                     78
                      A                      A                      A
 Frequencies --   1820.8413              2975.5386              3023.5739
 Red. masses --      9.6708                 1.0720                 1.0849
 Frc consts  --     18.8911                 5.5920                 5.8438
 IR Inten    --    312.7891                48.2968                26.1917

                     79                     80                     81
                      A                      A                      A
 Frequencies --   3052.2160              3054.5242              3119.5785
 Red. masses --      1.0737                 1.0495                 1.1026
 Frc consts  --      5.8936                 5.7693                 6.3221
 IR Inten    --     23.1746                39.1446                38.5471

                     82                     83                     84
                      A                      A                      A
 Frequencies --   3125.4588              3142.1045              3143.7304
 Red. masses --      1.1020                 1.0632                 1.0757
 Frc consts  --      6.3424                 6.1843                 6.2639
 IR Inten    --     32.7269                20.4427                23.8207

                     85                     86                     87
                      A                      A                      A
 Frequencies --   3153.7356              3173.2615              3200.2331
 Red. masses --      1.0589                 1.0879                 1.0924
 Frc consts  --      6.2054                 6.4544                 6.5915
 IR Inten    --      9.3879                14.3890                20.7616

                     88                     89                     90
                      A                      A                      A
 Frequencies --   3218.0834              3236.1851              3238.0216
 Red. masses --      1.1185                 1.1156                 1.0927
 Frc consts  --      6.8247                 6.8839                 6.7502
 IR Inten    --      5.0986                26.3167                 2.3358

                     91                     92                     93
                      A                      A                      A
 Frequencies --   3253.1550              3602.8470              3701.0202
 Red. masses --      1.0895                 1.0754                 1.0641
 Frc consts  --      6.7933                 8.2246                 8.5879
 IR Inten    --      3.7339                20.5542                68.3729

 - Thermochemistry -
 -------------------
 Temperature   298.150 Kelvin.  Pressure   1.00000 Atm.
 Atom     1 has atomic number  6 and mass  12.00000

 Molecular mass:   219.12593 amu.
 Principal axes and moments of inertia in atomic units:
                           1         2         3
     Eigenvalues --  1864.654827487.955618049.89494
           X            0.99998   0.00689   0.00100
           Y           -0.00690   0.99990   0.01254
           Z           -0.00091  -0.01255   0.99992
 This molecule is an asymmetric top.
 Rotational symmetry number  1.
 Warning -- assumption of classical behavior for rotation
           may cause significant error
 Rotational temperatures (Kelvin)      0.04645     0.01157     0.01076
 Rotational constants (GHZ):           0.96787     0.24102     0.22419
 Zero-point vibrational energy     739553.1 (Joules/Mol)
                                  176.75743 (Kcal/Mol)
 Warning -- explicit consideration of  22 degrees of freedom as
           vibrations may cause significant error
 Vibrational temperatures:     35.92    50.23    84.09    87.10   122.08
          (Kelvin)            205.11   233.85   249.95   314.73   324.96
                              366.54   393.38   423.06   540.51   546.55
                              590.77   621.77   652.76   698.55   737.79
                              773.77   860.94   900.41   929.88   956.18
                             1004.11  1049.28  1098.46  1104.02  1167.35
                             1174.25  1205.68  1266.69  1295.67  1306.92
                             1311.08  1386.08  1400.61  1402.74  1421.57
                             1458.68  1489.49  1534.84  1565.88  1575.14
                             1588.40  1620.96  1636.75  1662.59  1670.68
                             1728.10  1738.97  1748.17  1754.77  1800.55
                             1843.22  1882.39  1924.66  1954.70  1975.92
                             1988.45  2018.24  2035.52  2056.28  2084.30
                             2128.47  2155.34  2188.17  2196.08  2206.42
                             2211.56  2242.92  2253.11  2371.37  2400.81
                             2619.78  4281.14  4350.25  4391.46  4394.78
                             4488.38  4496.84  4520.79  4523.13  4537.52
                             4565.62  4604.42  4630.10  4656.15  4658.79
                             4680.56  5183.69  5324.94

 Zero-point correction=                           0.281681 (Hartree/Particle)
 Thermal correction to Energy=                    0.297128
 Thermal correction to Enthalpy=                  0.298072
 Thermal correction to Gibbs Free Energy=         0.237375
 Sum of electronic and zero-point Energies=           -710.583888
 Sum of electronic and thermal Energies=              -710.568441
 Sum of electronic and thermal Enthalpies=            -710.567497
 Sum of electronic and thermal Free Energies=         -710.628194

                     E (Thermal)             CV                S
                      KCal/Mol        Cal/Mol-Kelvin    Cal/Mol-Kelvin
 Total                  186.451             59.166            127.749
 Electronic               0.000              0.000              0.000
 Translational            0.889              2.981             42.056
 Rotational               0.889              2.981             33.085
 Vibrational            184.673             53.205             52.607
 Vibration     1          0.593              1.985              6.194
 Vibration     2          0.594              1.983              5.529
 Vibration     3          0.596              1.974              4.509
 Vibration     4          0.597              1.973              4.440
 Vibration     5          0.601              1.960              3.775
 Vibration     6          0.616              1.911              2.769
 Vibration     7          0.623              1.888              2.520
 Vibration     8          0.627              1.875              2.395
 Vibration     9          0.647              1.813              1.969
 Vibration    10          0.650              1.802              1.912
 Vibration    11          0.665              1.755              1.697
 Vibration    12          0.676              1.722              1.575
 Vibration    13          0.689              1.685              1.451
 Vibration    14          0.747              1.522              1.057
 Vibration    15          0.750              1.513              1.040
 Vibration    16          0.775              1.447              0.924
 Vibration    17          0.793              1.400              0.852
 Vibration    18          0.812              1.353              0.785
 Vibration    19          0.842              1.282              0.695
 Vibration    20          0.868              1.222              0.627
 Vibration    21          0.893              1.166              0.570
 Vibration    22          0.956              1.035              0.452

 Optimization completed.
    -- Stationary point found.
 Normal termination of Gaussian 16 at Thu Dec 10 21:19:40 2020.

 ----------------------------------------------------------------------
 # B3LYP/6-311++G(d,p) empiricaldispersion=gd3bj scf=xqc pop=npa geom=c
 heck
 ----------------------------------------------------------------------

 ---------------------------------------
 CID_102823352_JID_6062_Energie_neutraal
 ---------------------------------------
 Structure from the checkpoint file:  "JID_6062.chk"
 Charge =  0 Multiplicity = 1

 SCF Done:  E(RB3LYP) =  -711.071615671     A.U. after   14 cycles
 Normal termination of Gaussian 16 at Thu Dec 10 21:23:33 2020.

 ----------------------------------------------------------------------
 # B3LYP/6-311++G(d,p) empiricaldispersion=gd3bj scf=xqc pop=npa geom=c
 heck
 ----------------------------------------------------------------------

 -------------------------------------
 CID_102823352_JID_6062_Energie_kation
 -------------------------------------
 Structure from the checkpoint file:  "JID_6062.chk"
 Charge =  1 Multiplicity = 2

 SCF Done:  E(UB3LYP) =  -710.794126676     A.U. after   22 cycles
 Normal termination of Gaussian 16 at Thu Dec 10 21:31:38 2020.
 Gaussian 16:  ES64L-G16RevA.03 25-Dec-2016

 ----------------------------------------------------------------------
 # B3LYP/6-311++G(d,p) empiricaldispersion=gd3bj scf=xqc pop=npa geom=c
 heck
 ----------------------------------------------------------------------

 ------------------------------------
 CID_102823352_JID_6062_Energie_anion
 ------------------------------------
 Structure from the checkpoint file:  "JID_6062.chk"
 Charge = -1 Multiplicity = 2

                         Standard orientation:
 ---------------------------------------------------------------------
 Center     Atomic      Atomic             Coordinates (Angstroms)
 Number     Number       Type             X           Y           Z
 ---------------------------------------------------------------------
      1          6           0       -3.483504   -0.098337   -2.019406
      2          6           0       -3.084717   -0.792557   -0.707816
      3          6           0       -1.560649   -0.796538   -0.516101
      4          7           0       -0.994681    0.535812   -0.651621
      5          6           0        0.334243    0.791067   -0.346853
      6          6           0        0.764023    2.120943   -0.160635
      7          6           0        2.095753    2.410186    0.112263
      8          6           0        3.040108    1.389177    0.207978
      9          6           0        2.623691    0.067100    0.026869
     10          6           0        1.284387   -0.237281   -0.244641
     11          6           0        3.648383   -1.000900    0.138848
     12          8           0        4.826891   -0.819390    0.373870
     13          8           0        3.144721   -2.251041   -0.049740
     14          6           0       -3.867196   -0.217968    0.476921
     15          6           0       -3.779579   -0.820489    1.855282
     16          6           0       -3.255245    0.572755    1.617899
     17          1           0       -3.284745    0.977860   -1.987533
     18          1           0       -4.553314   -0.233451   -2.213157
     19          1           0       -2.927750   -0.511725   -2.867908
     20          1           0       -3.372626   -1.849648   -0.796898
     21          1           0       -1.301202   -1.246646    0.457740
     22          1           0       -1.118059   -1.444209   -1.283455
     23          1           0       -1.627837    1.280526   -0.394298
     24          1           0        0.036547    2.926164   -0.237681
     25          1           0        2.398270    3.443988    0.252815
     26          1           0        4.083116    1.591850    0.420139
     27          1           0        0.995161   -1.271010   -0.377193
     28          1           0        3.906719   -2.850993    0.047104
     29          1           0       -4.866037    0.110481    0.193904
     30          1           0       -4.695831   -0.947218    2.424988
     31          1           0       -3.045283   -1.605855    2.018214
     32          1           0       -2.178526    0.705620    1.653476
     33          1           0       -3.816916    1.414070    2.014400
 ---------------------------------------------------------------------

 SCF Done:  E(UB3LYP) =  -711.071517408     A.U. after   33 cycles
 SCF Done:  E(UB3LYP) =  -711.071517408     a.u. after    1 cycles

 The electronic state is 2-A.
 Alpha  occ. eigenvalues --  -19.03727 -18.96452 -14.20802 -10.14930 -10.10098
 Alpha  occ. eigenvalues --  -10.08973 -10.08773 -10.08723 -10.08128 -10.07905
 Alpha  occ. eigenvalues --  -10.06867 -10.04717 -10.04175 -10.03744 -10.03568
 Alpha  occ. eigenvalues --  -10.03362  -0.97282  -0.87810  -0.82709  -0.77059
 Alpha  occ. eigenvalues --   -0.72214  -0.68582  -0.63341  -0.61376  -0.57940
 Alpha  occ. eigenvalues --   -0.53711  -0.52738  -0.51165  -0.48233  -0.46397
 Alpha  occ. eigenvalues --   -0.45436  -0.41236  -0.40496  -0.38593  -0.37475
 Alpha  occ. eigenvalues --   -0.36436  -0.35169  -0.34242  -0.33176  -0.32133
 Alpha  occ. eigenvalues --   -0.31876  -0.30683  -0.30498  -0.29611  -0.28483
 Alpha  occ. eigenvalues --   -0.27270  -0.27078  -0.26179  -0.24500  -0.23861
 Alpha  occ. eigenvalues --   -0.23494  -0.22255  -0.20467  -0.19808  -0.19240
 Alpha  occ. eigenvalues --   -0.17760  -0.14624  -0.13415  -0.08701   0.04202
 Alpha virt. eigenvalues --    0.05453   0.07225   0.07565   0.08238   0.09044
 Alpha virt. eigenvalues --    0.09531   0.10013   0.10513   0.10807   0.11339
 Alpha virt. eigenvalues --    0.12233   0.12415   0.12996   0.13834   0.14386

  Beta  occ. eigenvalues --  -19.03678 -18.96213 -14.20817 -10.14693 -10.10091
  Beta  occ. eigenvalues --  -10.08969 -10.08812 -10.08710 -10.08124 -10.07890
  Beta  occ. eigenvalues --  -10.06851 -10.04739 -10.04041 -10.03499 -10.03429
  Beta  occ. eigenvalues --  -10.03275  -0.97035  -0.87455  -0.82706  -0.77032
  Beta  occ. eigenvalues --   -0.71981  -0.68531  -0.62926  -0.61219  -0.57812
  Beta  occ. eigenvalues --   -0.53577  -0.52338  -0.51127  -0.48133  -0.46284
  Beta  occ. eigenvalues --   -0.45322  -0.41127  -0.40440  -0.38557  -0.37340
  Beta  occ. eigenvalues --   -0.36351  -0.34932  -0.34062  -0.33114  -0.32044
  Beta  occ. eigenvalues --   -0.30822  -0.30606  -0.30444  -0.29532  -0.28440
  Beta  occ. eigenvalues --   -0.27239  -0.26906  -0.26077  -0.24111  -0.23821
  Beta  occ. eigenvalues --   -0.23314  -0.22155  -0.20405  -0.19222  -0.18999
  Beta  occ. eigenvalues --   -0.17343  -0.14384  -0.12248  -0.07997
  Beta virt. eigenvalues --    0.06361   0.07581   0.07609   0.08296   0.08791
  Beta virt. eigenvalues --    0.09118   0.09622   0.10134   0.10664   0.10848
  Beta virt. eigenvalues --    0.11526   0.12241   0.12604   0.13030   0.13890

 Mulliken charges and spin densities:
               1          2
     1  C    0.217522  -0.812172
     2  C   -0.206588   0.309292
     3  C   -0.197890  -0.294819
     4  N    0.077149   0.020842
     5  C   -0.184375   0.007972
     6  C   -0.055933   0.205971
     7  C   -0.336303   0.018863
     8  C   -0.779675   0.101427
     9  C    0.626098   0.067128
    10  C   -0.408786   0.133292
    11  C    0.147018   0.115134
    12  O   -0.409590   0.084564
    13  O   -0.230953   0.012065
    14  C   -0.039275  -0.058193
    15  C    0.157686  -0.575141
    16  C   -0.133867  -0.260378
    17  H    0.079331   0.072991
    18  H   -0.192858   0.335358
    19  H    0.060144   0.076312
    20  H   -0.049841   0.241934
    21  H    0.119974   0.012197
    22  H    0.260730  -0.101989
    23  H    0.225920  -0.054121
    24  H    0.070632   0.001801
    25  H    0.123612   0.005107
    26  H    0.149530  -0.005484
    27  H    0.120775   0.029929
    28  H    0.269404  -0.000752
    29  H   -0.483569   0.717601
    30  H   -0.313553   0.477882
    31  H    0.092016   0.025165
    32  H    0.164977  -0.000828
    33  H    0.060538   0.091052
 Sum of Mulliken charges =  -1.00000   1.00000

 Dipole moment (field-independent basis, Debye):
    X=             -0.8637    Y=             -0.4504    Z=             -0.6268  Tot=              1.1583
 Quadrupole moment (field-independent basis, Debye-Ang):
   XX=           -204.4751   YY=           -109.3192   ZZ=           -119.6944
   XY=             -4.4767   XZ=              0.2605   YZ=              2.3566

 Summary of Natural Population Analysis:

                                       Natural Population
                Natural  -----------------------------------------------
    Atom  No    Charge         Core      Valence    Rydberg      Total
 -----------------------------------------------------------------------
      C    1   -0.28303      0.99965     2.27693    0.00645     3.28303
      C    2   -0.11500      0.99958     2.10442    0.01099     3.11500
      C    3   -0.08476      0.99961     2.07522    0.00992     3.08476
      N    4   -0.32174      0.99967     2.81299    0.00908     3.82174
      C    5    0.07726      0.99951     1.91312    0.01011     2.92274
      C    6   -0.07427      0.99954     2.06662    0.00810     3.07427
      C    7   -0.10981      0.99958     2.10112    0.00911     3.10981
      C    8   -0.08537      0.99954     2.07658    0.00925     3.08537
      C    9   -0.05161      0.99946     2.04254    0.00961     3.05161
      C   10   -0.09273      0.99951     2.08605    0.00718     3.09273
      C   11    0.42532      0.99966     1.55113    0.02389     2.57468
      O   12   -0.30766      0.99987     3.30106    0.00673     4.30766
      O   13   -0.35581      0.99988     3.34809    0.00784     4.35581
      C   14   -0.11546      0.99958     2.10290    0.01298     3.11546
      C   15   -0.19840      0.99961     2.18907    0.00972     3.19840
      C   16   -0.20533      0.99962     2.19751    0.00820     3.20533
      H   17    0.09846      0.00000     0.40055    0.00100     0.40154
      H   18    0.09876      0.00000     0.40019    0.00105     0.40124
      H   19    0.09966      0.00000     0.39965    0.00070     0.40034
      H   20    0.09761      0.00000     0.40093    0.00146     0.40239
      H   21    0.08841      0.00000     0.40989    0.00170     0.41159
      H   22    0.09443      0.00000     0.40414    0.00143     0.40557
      H   23    0.18278      0.00000     0.31447    0.00275     0.31722
      H   24    0.08804      0.00000     0.41072    0.00124     0.41196
      H   25    0.09176      0.00000     0.40723    0.00101     0.40824
      H   26    0.10479      0.00000     0.39415    0.00106     0.39521
      H   27    0.10443      0.00000     0.39423    0.00134     0.39557
      H   28    0.23255      0.00000     0.26453    0.00292     0.26745
      H   29    0.10518      0.00000     0.39300    0.00183     0.39482
      H   30    0.10258      0.00000     0.39626    0.00117     0.39742
      H   31    0.10024      0.00000     0.39870    0.00106     0.39976
      H   32    0.10705      0.00000     0.39170    0.00125     0.39295
      H   33    0.10165      0.00000     0.39753    0.00082     0.39835
 =======================================================================
   * Total *    0.00000     15.99388    42.82321    0.18291    59.00000

 Normal termination of Gaussian 16 at Thu Dec 10 21:46:40 2020.
