 Gaussian 16, Revision A.03,

 -----------------------------------------------------------
 # opt freq B3LYP/6-31G(d) empiricaldispersion=gd3bj scf=xqc
 -----------------------------------------------------------

 -------------------------------
 CID_152545161_JID_7676_neutraal
 -------------------------------
 Symbolic Z-matrix:
 Charge =  0 Multiplicity = 1

 SCF Done:  E(RB3LYP) =  -836.608517583     A.U. after   15 cycles
 SCF Done:  E(RB3LYP) =  -836.613056596     A.U. after   14 cycles
 SCF Done:  E(RB3LYP) =  -836.614522203     A.U. after   14 cycles
 SCF Done:  E(RB3LYP) =  -836.615133620     A.U. after   12 cycles
 SCF Done:  E(RB3LYP) =  -836.615146135     A.U. after   13 cycles
 SCF Done:  E(RB3LYP) =  -836.615267821     A.U. after   11 cycles
 SCF Done:  E(RB3LYP) =  -836.615270891     A.U. after   11 cycles
 SCF Done:  E(RB3LYP) =  -836.615313767     A.U. after   10 cycles
 SCF Done:  E(RB3LYP) =  -836.615398767     A.U. after   12 cycles
 SCF Done:  E(RB3LYP) =  -836.615413445     A.U. after   13 cycles
 SCF Done:  E(RB3LYP) =  -836.615641431     A.U. after    7 cycles
 SCF Done:  E(RB3LYP) =  -836.615635728     A.U. after    9 cycles
 SCF Done:  E(RB3LYP) =  -836.615641463     A.U. after   10 cycles
 SCF Done:  E(RB3LYP) =  -836.615637747     A.U. after    9 cycles
 SCF Done:  E(RB3LYP) =  -836.615635501     A.U. after    8 cycles
 SCF Done:  E(RB3LYP) =  -836.615635721     A.U. after    7 cycles
 Optimization completed.
    -- Stationary point found.
 Normal termination of Gaussian 16 at Fri Dec 11 13:20:22 2020.

 --------------------------------------------------------------------
 #N Geom=AllCheck Guess=TCheck SCRF=Check GenChk RB3LYP/6-31G(d) Freq
 --------------------------------------------------------------------

 Structure from the checkpoint file:  "JID_7676.chk"
 -------------------------------
 CID_152545161_JID_7676_neutraal
 -------------------------------
 Charge =  0 Multiplicity = 1

 SCF Done:  E(RB3LYP) =  -836.615635721     A.U. after    1 cycles

  Exact polarizability: 179.394  -5.751 115.067  -8.072   5.078 123.236
 Approx polarizability: 241.026 -20.723 174.043 -22.130  17.542 198.270

                      1                      2                      3
                      A                      A                      A
 Frequencies --     18.3443                39.8144                47.0059
 Red. masses --      5.1755                 3.5083                 7.6682
 Frc consts  --      0.0010                 0.0033                 0.0100
 IR Inten    --      0.0110                 0.0662                 0.3308

                      4                      5                      6
                      A                      A                      A
 Frequencies --     71.9390               103.3726               117.7927
 Red. masses --      5.6201                 4.5883                 5.1319
 Frc consts  --      0.0171                 0.0289                 0.0420
 IR Inten    --      2.7152                 0.7340                 0.1155

                      7                      8                      9
                      A                      A                      A
 Frequencies --    132.6301               164.2273               197.5185
 Red. masses --      3.9192                 5.7163                 3.1729
 Frc consts  --      0.0406                 0.0908                 0.0729
 IR Inten    --      0.8302                 1.0070                 3.9396

                     10                     11                     12
                      A                      A                      A
 Frequencies --    210.8206               252.8994               272.6000
 Red. masses --      1.1097                 1.0705                 2.9659
 Frc consts  --      0.0291                 0.0403                 0.1299
 IR Inten    --      0.1232                 0.0513                 4.0107

                     13                     14                     15
                      A                      A                      A
 Frequencies --    275.5040               296.7063               312.2250
 Red. masses --      1.1052                 4.1007                 2.9900
 Frc consts  --      0.0494                 0.2127                 0.1717
 IR Inten    --      0.2332                 1.8206                 1.2804

                     16                     17                     18
                      A                      A                      A
 Frequencies --    331.9550               351.5623               388.2510
 Red. masses --      3.2377                 2.4902                 2.1468
 Frc consts  --      0.2102                 0.1813                 0.1907
 IR Inten    --      9.0051                 0.9123                23.7569

                     19                     20                     21
                      A                      A                      A
 Frequencies --    392.1037               410.2850               432.5302
 Red. masses --      1.6137                 2.4540                 3.0039
 Frc consts  --      0.1462                 0.2434                 0.3311
 IR Inten    --     82.6347                12.2639                14.6340

                     22                     23                     24
                      A                      A                      A
 Frequencies --    449.8778               462.0364               462.9902
 Red. masses --      2.0964                 2.9417                 2.8083
 Frc consts  --      0.2500                 0.3700                 0.3547
 IR Inten    --      7.0457                 3.1683                 2.3165

                     25                     26                     27
                      A                      A                      A
 Frequencies --    485.8790               494.0057               530.6371
 Red. masses --      3.6262                 3.0481                 3.3954
 Frc consts  --      0.5044                 0.4383                 0.5633
 IR Inten    --     27.3179                22.2993                 2.7064

                     28                     29                     30
                      A                      A                      A
 Frequencies --    573.6799               593.2224               641.3159
 Red. masses --      3.6132                11.2231                 3.8146
 Frc consts  --      0.7006                 2.3270                 0.9244
 IR Inten    --     15.6599                20.1551                 3.2522

                     31                     32                     33
                      A                      A                      A
 Frequencies --    709.5490               765.6687               772.2206
 Red. masses --      3.2449                11.0820                 4.4920
 Frc consts  --      0.9625                 3.8278                 1.5782
 IR Inten    --      9.2553                20.3941                10.2599

                     34                     35                     36
                      A                      A                      A
 Frequencies --    780.0438               822.4165               843.9440
 Red. masses --      5.0199                 1.5884                 5.0926
 Frc consts  --      1.7996                 0.6330                 2.1371
 IR Inten    --      7.1647                 3.9550                 3.1039

                     37                     38                     39
                      A                      A                      A
 Frequencies --    884.9400               935.9432               937.6195
 Red. masses --      3.2735                 2.8793                 1.6410
 Frc consts  --      1.5104                 1.4860                 0.8500
 IR Inten    --     34.3482                67.5431                 0.8897

                     40                     41                     42
                      A                      A                      A
 Frequencies --    938.8905               963.0560               972.6430
 Red. masses --      1.7305                 2.2257                 2.8636
 Frc consts  --      0.8988                 1.2162                 1.5961
 IR Inten    --      6.2544                 7.2447                14.2399

                     43                     44                     45
                      A                      A                      A
 Frequencies --    982.6724              1011.4346              1034.4336
 Red. masses --      1.1979                 2.6483                 1.6408
 Frc consts  --      0.6816                 1.5962                 1.0345
 IR Inten    --      0.3035                 5.9018                 4.9705

                     46                     47                     48
                      A                      A                      A
 Frequencies --   1055.9300              1066.8200              1070.5814
 Red. masses --      2.6164                 1.4029                 1.4849
 Frc consts  --      1.7188                 0.9407                 1.0028
 IR Inten    --    226.8112                 0.2402                18.0558

                     49                     50                     51
                      A                      A                      A
 Frequencies --   1095.3360              1139.3610              1196.0333
 Red. masses --      2.4786                 2.3508                 2.4310
 Frc consts  --      1.7521                 1.7980                 2.0489
 IR Inten    --     70.5388                83.3088                93.2136

                     52                     53                     54
                      A                      A                      A
 Frequencies --   1202.6249              1218.4069              1219.8892
 Red. masses --      1.2876                 2.0607                 2.2555
 Frc consts  --      1.0972                 1.8024                 1.9776
 IR Inten    --     20.0003                43.1508               356.7710

                     55                     56                     57
                      A                      A                      A
 Frequencies --   1282.5081              1286.9310              1302.6614
 Red. masses --      2.0930                 2.6832                 2.5693
 Frc consts  --      2.0283                 2.6183                 2.5688
 IR Inten    --    142.3048                16.2937                39.0224

                     58                     59                     60
                      A                      A                      A
 Frequencies --   1307.4683              1308.8037              1324.8281
 Red. masses --      4.9046                 2.0472                 1.7513
 Frc consts  --      4.9399                 2.0662                 1.8110
 IR Inten    --    148.2370               130.5197                15.4389

                     61                     62                     63
                      A                      A                      A
 Frequencies --   1356.9963              1390.0876              1396.1414
 Red. masses --      1.3407                 1.2922                 1.6459
 Frc consts  --      1.4546                 1.4711                 1.8903
 IR Inten    --     15.5987                 7.3911                87.4001

                     64                     65                     66
                      A                      A                      A
 Frequencies --   1412.6488              1423.1453              1425.4294
 Red. masses --      1.7629                 1.2866                 1.3034
 Frc consts  --      2.0728                 1.5353                 1.5603
 IR Inten    --     28.2469                18.2604                24.0242

                     67                     68                     69
                      A                      A                      A
 Frequencies --   1430.3124              1451.5491              1461.7777
 Red. masses --      1.3994                 1.2429                 2.1922
 Frc consts  --      1.6868                 1.5430                 2.7600
 IR Inten    --      0.8724                14.8909               250.5924

                     70                     71                     72
                      A                      A                      A
 Frequencies --   1499.6853              1500.9938              1510.2816
 Red. masses --      1.0472                 1.0868                 1.0860
 Frc consts  --      1.3876                 1.4427                 1.4595
 IR Inten    --      0.5055                 2.5344                18.4858

                     73                     74                     75
                      A                      A                      A
 Frequencies --   1516.2360              1520.2803              1520.6332
 Red. masses --      1.0982                 1.0495                 1.0524
 Frc consts  --      1.4875                 1.4291                 1.4337
 IR Inten    --      6.6495                 0.5799                 1.4453

                     76                     77                     78
                      A                      A                      A
 Frequencies --   1524.0304              1530.5843              1535.5747
 Red. masses --      1.0721                 1.1600                 1.0523
 Frc consts  --      1.4671                 1.6011                 1.4619
 IR Inten    --     12.3949                48.6098                 1.0321

                     79                     80                     81
                      A                      A                      A
 Frequencies --   1558.1014              1781.4405              2263.8809
 Red. masses --      1.0581                10.5302                13.9577
 Frc consts  --      1.5135                19.6893                42.1476
 IR Inten    --     19.7859               316.6679               516.2042

                     82                     83                     84
                      A                      A                      A
 Frequencies --   3052.5985              3057.3511              3059.0784
 Red. masses --      1.0649                 1.0357                 1.0384
 Frc consts  --      5.8464                 5.7039                 5.7252
 IR Inten    --     25.5866                 9.3417                25.2711

                     85                     86                     87
                      A                      A                      A
 Frequencies --   3066.2000              3070.1935              3071.6328
 Red. masses --      1.0387                 1.0703                 1.0626
 Frc consts  --      5.7536                 5.9443                 5.9069
 IR Inten    --     21.3907                26.7965                 6.9271

                     88                     89                     90
                      A                      A                      A
 Frequencies --   3086.5318              3109.9085              3120.3758
 Red. masses --      1.0704                 1.0989                 1.1025
 Frc consts  --      6.0080                 6.2617                 6.3249
 IR Inten    --     21.1249                24.8094                 9.2760

                     91                     92                     93
                      A                      A                      A
 Frequencies --   3123.1170              3123.3585              3132.9642
 Red. masses --      1.1024                 1.1029                 1.1032
 Frc consts  --      6.3353                 6.3391                 6.3797
 IR Inten    --     33.1076                13.1396                32.8005

                     94                     95                     96
                      A                      A                      A
 Frequencies --   3137.4084              3176.1072              3177.6941
 Red. masses --      1.1024                 1.0993                 1.0978
 Frc consts  --      6.3935                 6.5339                 6.5315
 IR Inten    --     48.3494                 0.5700                 2.1574

                     97                     98                     99
                      A                      A                      A
 Frequencies --   3179.0423              3188.6404              3719.2958
 Red. masses --      1.0988                 1.0938                 1.0656
 Frc consts  --      6.5428                 6.5522                 8.6850
 IR Inten    --      9.9764                 4.7885                17.3505

 - Thermochemistry -
 -------------------
 Temperature   298.150 Kelvin.  Pressure   1.00000 Atm.
 Atom     1 has atomic number  6 and mass  12.00000

 Molecular mass:   242.13789 amu.
 Principal axes and moments of inertia in atomic units:
                           1         2         3
     Eigenvalues --  1698.914838126.332988200.45234
           X            0.99986  -0.01568   0.00597
           Y            0.01446   0.98586   0.16692
           Z           -0.00851  -0.16681   0.98595
 This molecule is an asymmetric top.
 Rotational symmetry number  1.
 Warning -- assumption of classical behavior for rotation
           may cause significant error
 Rotational temperatures (Kelvin)      0.05098     0.01066     0.01056
 Rotational constants (GHZ):           1.06229     0.22209     0.22008
 Zero-point vibrational energy     775232.2 (Joules/Mol)
                                  185.28494 (Kcal/Mol)
 Warning -- explicit consideration of  29 degrees of freedom as
           vibrations may cause significant error
 Vibrational temperatures:     26.39    57.28    67.63   103.50   148.73
          (Kelvin)            169.48   190.83   236.29   284.19   303.32
                              363.87   392.21   396.39   426.89   449.22
                              477.61   505.82   558.61   564.15   590.31
                              622.31   647.27   664.77   666.14   699.07
                              710.76   763.47   825.40   853.51   922.71
                             1020.88  1101.63  1111.05  1122.31  1183.27
                             1214.25  1273.23  1346.61  1349.03  1350.85
                             1385.62  1399.42  1413.85  1455.23  1488.32
                             1519.25  1534.92  1540.33  1575.94  1639.29
                             1720.83  1730.31  1753.02  1755.15  1845.24
                             1851.61  1874.24  1881.16  1883.08  1906.13
                             1952.41  2000.03  2008.74  2032.49  2047.59
                             2050.88  2057.90  2088.46  2103.17  2157.71
                             2159.60  2172.96  2181.53  2187.34  2187.85
                             2192.74  2202.17  2209.35  2241.76  2563.10
                             3257.22  4392.01  4398.85  4401.33  4411.58
                             4417.32  4419.39  4440.83  4474.46  4489.52
                             4493.47  4493.82  4507.64  4514.03  4569.71
                             4571.99  4573.93  4587.74  5351.24

 Zero-point correction=                           0.295270 (Hartree/Particle)
 Thermal correction to Energy=                    0.312684
 Thermal correction to Enthalpy=                  0.313628
 Thermal correction to Gibbs Free Energy=         0.249304
 Sum of electronic and zero-point Energies=           -836.320365
 Sum of electronic and thermal Energies=              -836.302951
 Sum of electronic and thermal Enthalpies=            -836.302007
 Sum of electronic and thermal Free Energies=         -836.366331

                     E (Thermal)             CV                S
                      KCal/Mol        Cal/Mol-Kelvin    Cal/Mol-Kelvin
 Total                  196.212             66.290            135.381
 Electronic               0.000              0.000              0.000
 Translational            0.889              2.981             42.354
 Rotational               0.889              2.981             33.093
 Vibrational            194.435             60.328             59.935
 Vibration     1          0.593              1.986              6.806
 Vibration     2          0.594              1.981              5.268
 Vibration     3          0.595              1.979              4.940
 Vibration     4          0.598              1.967              4.100
 Vibration     5          0.605              1.947              3.390
 Vibration     6          0.608              1.935              3.136
 Vibration     7          0.613              1.921              2.908
 Vibration     8          0.623              1.886              2.501
 Vibration     9          0.637              1.843              2.156
 Vibration    10          0.643              1.824              2.037
 Vibration    11          0.664              1.758              1.710
 Vibration    12          0.676              1.724              1.580
 Vibration    13          0.677              1.719              1.561
 Vibration    14          0.690              1.680              1.435
 Vibration    15          0.701              1.650              1.351
 Vibration    16          0.714              1.612              1.251
 Vibration    17          0.728              1.572              1.159
 Vibration    18          0.756              1.495              1.007
 Vibration    19          0.760              1.487              0.992
 Vibration    20          0.774              1.448              0.926
 Vibration    21          0.793              1.399              0.850
 Vibration    22          0.809              1.361              0.796
 Vibration    23          0.820              1.334              0.760
 Vibration    24          0.821              1.332              0.757
 Vibration    25          0.842              1.281              0.694
 Vibration    26          0.850              1.263              0.673
 Vibration    27          0.886              1.182              0.586
 Vibration    28          0.930              1.088              0.497
 Vibration    29          0.951              1.046              0.461

                           ! Non-Optimized Parameters !
 Normal termination of Gaussian 16 at Fri Dec 11 13:32:39 2020.

 ----------------------------------------------------------------------
 # B3LYP/6-311++G(d,p) empiricaldispersion=gd3bj scf=xqc pop=npa geom=c
 heck
 ----------------------------------------------------------------------

 ---------------------------------------
 CID_152545161_JID_7676_Energie_neutraal
 ---------------------------------------
 Structure from the checkpoint file:  "JID_7676.chk"
 Charge =  0 Multiplicity = 1

 SCF Done:  E(RB3LYP) =  -836.860727170     A.U. after   15 cycles
 Normal termination of Gaussian 16 at Fri Dec 11 13:38:39 2020.

 ----------------------------------------------------------------------
 # B3LYP/6-311++G(d,p) empiricaldispersion=gd3bj scf=xqc pop=npa geom=c
 heck
 ----------------------------------------------------------------------

 -------------------------------------
 CID_152545161_JID_7676_Energie_kation
 -------------------------------------
 Structure from the checkpoint file:  "JID_7676.chk"
 Charge =  1 Multiplicity = 2

 SCF Done:  E(UB3LYP) =  -836.543123261     A.U. after   29 cycles
 Normal termination of Gaussian 16 at Fri Dec 11 13:55:17 2020.
 Gaussian 16:  ES64L-G16RevA.03 25-Dec-2016

 ----------------------------------------------------------------------
 # B3LYP/6-311++G(d,p) empiricaldispersion=gd3bj scf=xqc pop=npa geom=c
 heck
 ----------------------------------------------------------------------

 ------------------------------------
 CID_152545161_JID_7676_Energie_anion
 ------------------------------------
 Structure from the checkpoint file:  "JID_7676.chk"
 Charge = -1 Multiplicity = 2

                         Standard orientation:
 ---------------------------------------------------------------------
 Center     Atomic      Atomic             Coordinates (Angstroms)
 Number     Number       Type             X           Y           Z
 ---------------------------------------------------------------------
      1          6           0        3.945342   -1.583607   -0.750959
      2          6           0        3.420276   -0.498635    0.189038
      3          6           0        3.183203   -1.064194    1.590764
      4          6           0        4.356554    0.711048    0.198686
      5          8           0        2.137378   -0.139008   -0.429240
      6          6           0        1.351729    0.817610    0.119262
      7          8           0        1.603609    1.443114    1.138475
      8          7           0        0.221117    1.019215   -0.639380
      9          6           0       -0.230378    0.061196   -1.646303
     10          6           0       -1.215082   -0.938585   -1.027156
     11          6           0       -2.381930   -0.200302   -0.361452
     12          6           0       -1.880254    0.858224    0.628246
     13          6           0       -0.862580    1.794218   -0.038171
     14          7           0       -3.193069   -1.255752    0.318084
     15          7           0       -4.202550   -0.834302    0.897804
     16          7           0       -5.160290   -0.562324    1.453542
     17          8           0       -3.168191    0.495030   -1.314024
     18          1           0        4.914693   -1.949292   -0.397684
     19          1           0        4.070906   -1.187865   -1.763794
     20          1           0        3.249385   -2.427690   -0.791647
     21          1           0        4.126624   -1.445083    1.996763
     22          1           0        2.793003   -0.296958    2.259952
     23          1           0        2.471016   -1.895539    1.546704
     24          1           0        4.460562    1.115819   -0.813721
     25          1           0        3.976271    1.493089    0.856359
     26          1           0        5.348472    0.403015    0.547011
     27          1           0        0.631697   -0.449515   -2.068906
     28          1           0       -0.726827    0.624194   -2.444662
     29          1           0       -0.700420   -1.546699   -0.275831
     30          1           0       -1.608649   -1.625193   -1.788110
     31          1           0       -2.736459    1.429405    1.004189
     32          1           0       -1.406558    0.350642    1.474742
     33          1           0       -0.428078    2.476229    0.691067
     34          1           0       -1.349555    2.375463   -0.827451
     35          1           0       -3.446179   -0.146818   -1.988748
 ---------------------------------------------------------------------

 SCF Done:  E(UB3LYP) =  -836.856510673     A.U. after   31 cycles

 The electronic state is 2-A.
 Alpha  occ. eigenvalues --  -19.06276 -19.03386 -18.99797 -14.34892 -14.25344
 Alpha  occ. eigenvalues --  -14.24430 -14.23641 -10.22242 -10.16951 -10.15401
 Alpha  occ. eigenvalues --  -10.10907 -10.10695 -10.07918 -10.07349 -10.07212
 Alpha  occ. eigenvalues --  -10.07039 -10.06862  -1.01868  -1.00922  -0.94661
 Alpha  occ. eigenvalues --   -0.92038  -0.85299  -0.85097  -0.72554  -0.69703
 Alpha  occ. eigenvalues --   -0.67386  -0.60752  -0.60600  -0.60115  -0.55814
 Alpha  occ. eigenvalues --   -0.53207  -0.49650  -0.46981  -0.44676  -0.42320
 Alpha  occ. eigenvalues --   -0.39808  -0.39423  -0.38936  -0.38425  -0.37323
 Alpha  occ. eigenvalues --   -0.36212  -0.36086  -0.35289  -0.34696  -0.33698
 Alpha  occ. eigenvalues --   -0.33215  -0.32294  -0.31050  -0.30470  -0.30051
 Alpha  occ. eigenvalues --   -0.29467  -0.29074  -0.28054  -0.26980  -0.26483
 Alpha  occ. eigenvalues --   -0.26202  -0.25987  -0.25439  -0.24699  -0.20955
 Alpha  occ. eigenvalues --   -0.20692  -0.18520  -0.18096  -0.15166  -0.14380
 Alpha  occ. eigenvalues --    0.03986
 Alpha virt. eigenvalues --    0.05619   0.06759   0.07915   0.08041   0.08536
 Alpha virt. eigenvalues --    0.09250   0.09711   0.10214   0.10481   0.11053
 Alpha virt. eigenvalues --    0.11560   0.11831   0.12148   0.12615   0.12832

  Beta  occ. eigenvalues --  -19.06269 -19.03350 -18.99794 -14.34652 -14.25031
  Beta  occ. eigenvalues --  -14.24429 -14.23697 -10.22240 -10.16891 -10.15400
  Beta  occ. eigenvalues --  -10.10903 -10.10682 -10.07917 -10.07317 -10.07181
  Beta  occ. eigenvalues --  -10.07021 -10.06842  -1.01422  -1.00914  -0.94558
  Beta  occ. eigenvalues --   -0.92030  -0.85184  -0.84988  -0.72533  -0.69614
  Beta  occ. eigenvalues --   -0.67357  -0.60707  -0.60562  -0.60030  -0.55775
  Beta  occ. eigenvalues --   -0.53112  -0.49593  -0.46814  -0.44619  -0.42291
  Beta  occ. eigenvalues --   -0.39393  -0.39050  -0.38850  -0.38356  -0.37082
  Beta  occ. eigenvalues --   -0.36161  -0.36046  -0.35093  -0.34627  -0.33296
  Beta  occ. eigenvalues --   -0.32969  -0.32263  -0.30987  -0.30409  -0.30013
  Beta  occ. eigenvalues --   -0.29326  -0.29040  -0.28027  -0.26954  -0.26457
  Beta  occ. eigenvalues --   -0.26178  -0.25953  -0.25314  -0.24653  -0.20888
  Beta  occ. eigenvalues --   -0.20668  -0.18212  -0.17946  -0.15144  -0.14299
  Beta virt. eigenvalues --    0.06113   0.07272   0.08075   0.08309   0.08711
  Beta virt. eigenvalues --    0.08867   0.09633   0.09912   0.10549   0.10662
  Beta virt. eigenvalues --    0.11117   0.11734   0.12117   0.12340   0.12727

 Mulliken charges and spin densities:
               1          2
     1  C    0.354129  -0.762856
     2  C   -1.161205   1.093556
     3  C    0.312441  -0.707395
     4  C    0.262623  -0.694428
     5  O    0.066477  -0.003002
     6  C    0.051736  -0.343321
     7  O   -0.283361   0.006746
     8  N    0.071427   0.023230
     9  C   -0.223426  -0.136022
    10  C   -0.213427   0.390820
    11  C    0.135120  -1.339695
    12  C    0.554121  -0.382887
    13  C   -0.425182  -0.101609
    14  N    0.034614   0.106751
    15  N    0.341275   0.080936
    16  N   -0.428404   0.160691
    17  O   -0.159393   0.012456
    18  H   -0.081418   0.225328
    19  H   -0.160448   0.312769
    20  H   -0.194244   0.347595
    21  H   -0.106492   0.263461
    22  H    0.113365   0.067576
    23  H    0.104226   0.036325
    24  H    0.040945   0.097804
    25  H    0.125705   0.051988
    26  H   -0.108249   0.271472
    27  H   -0.033195   0.268555
    28  H   -0.074193   0.247648
    29  H    0.098256   0.098286
    30  H   -0.586692   0.801357
    31  H    0.242516  -0.039148
    32  H    0.083897   0.104968
    33  H    0.204740   0.014412
    34  H    0.161827   0.013473
    35  H   -0.120110   0.412163
 Sum of Mulliken charges =  -1.00000   1.00000

 Dipole moment (field-independent basis, Debye):
    X=              2.4701    Y=              3.4167    Z=              0.8886  Tot=              4.3087
 Quadrupole moment (field-independent basis, Debye-Ang):
   XX=           -200.9044   YY=           -133.2701   ZZ=           -136.9844
   XY=             -2.6977   XZ=              0.0390   YZ=             -4.5937

 Summary of Natural Population Analysis:

                                       Natural Population
                Natural  -----------------------------------------------
    Atom  No    Charge         Core      Valence    Rydberg      Total
 -----------------------------------------------------------------------
      C    1   -0.28923      0.99960     2.28258    0.00705     3.28923
      C    2    0.13566      0.99954     1.85082    0.01398     2.86434
      C    3   -0.30244      0.99960     2.29644    0.00640     3.30244
      C    4   -0.30245      0.99960     2.29645    0.00639     3.30245
      O    5   -0.30173      0.99985     3.29198    0.00990     4.30173
      C    6    0.47198      0.99964     1.50325    0.02512     2.52802
      O    7   -0.34238      0.99987     3.33795    0.00456     4.34238
      N    8   -0.26254      0.99965     2.75291    0.00997     3.76254
      C    9   -0.08692      0.99960     2.07592    0.01139     3.08692
      C   10   -0.20831      0.99955     2.19787    0.01088     3.20831
      C   11    0.21757      0.99952     1.76396    0.01894     2.78243
      C   12   -0.20968      0.99956     2.20208    0.00804     3.20968
      C   13   -0.08503      0.99961     2.07593    0.00948     3.08503
      N   14   -0.21859      0.99967     2.70479    0.01413     3.71859
      N   15    0.13908      0.99970     2.34462    0.01659     3.36092
      N   16   -0.01524      0.99981     2.50270    0.01272     3.51524
      O   17   -0.37890      0.99988     3.37231    0.00672     4.37890
      H   18    0.10193      0.00000     0.39690    0.00117     0.39807
      H   19    0.10362      0.00000     0.39529    0.00109     0.39638
      H   20    0.10501      0.00000     0.39382    0.00117     0.39499
      H   21    0.10175      0.00000     0.39743    0.00082     0.39825
      H   22    0.11492      0.00000     0.38422    0.00086     0.38508
      H   23    0.10318      0.00000     0.39586    0.00096     0.39682
      H   24    0.10164      0.00000     0.39750    0.00086     0.39836
      H   25    0.11481      0.00000     0.38432    0.00087     0.38519
      H   26    0.10194      0.00000     0.39722    0.00084     0.39806
      H   27    0.11449      0.00000     0.38421    0.00130     0.38551
      H   28    0.09714      0.00000     0.40146    0.00140     0.40286
      H   29    0.10837      0.00000     0.38985    0.00178     0.39163
      H   30    0.10828      0.00000     0.38866    0.00307     0.39172
      H   31    0.10760      0.00000     0.39143    0.00097     0.39240
      H   32    0.10740      0.00000     0.39162    0.00098     0.39260
      H   33    0.11330      0.00000     0.38563    0.00108     0.38670
      H   34    0.09844      0.00000     0.40040    0.00117     0.40156
      H   35    0.23532      0.00000     0.25956    0.00513     0.26468
 =======================================================================
   * Total *   -0.00000     16.99427    47.78793    0.21780    65.00000

 Normal termination of Gaussian 16 at Fri Dec 11 14:12:51 2020.
