 Gaussian 16, Revision A.03,

 -----------------------------------------------------------
 # opt freq B3LYP/6-31G(d) empiricaldispersion=gd3bj scf=xqc
 -----------------------------------------------------------

 ------------------------------
 CID_66545814_JID_1857_neutraal
 ------------------------------
 Symbolic Z-matrix:
 Charge =  0 Multiplicity = 1

 SCF Done:  E(RB3LYP) =  -823.616530867     A.U. after   14 cycles
 SCF Done:  E(RB3LYP) =  -823.618266291     A.U. after   12 cycles
 SCF Done:  E(RB3LYP) =  -823.618653851     A.U. after   12 cycles
 SCF Done:  E(RB3LYP) =  -823.619019628     A.U. after   11 cycles
 SCF Done:  E(RB3LYP) =  -823.619245395     A.U. after   12 cycles
 SCF Done:  E(RB3LYP) =  -823.619439018     A.U. after   12 cycles
 SCF Done:  E(RB3LYP) =  -823.619514989     A.U. after   10 cycles
 SCF Done:  E(RB3LYP) =  -823.619600883     A.U. after   11 cycles
 SCF Done:  E(RB3LYP) =  -823.619616335     A.U. after   10 cycles
 SCF Done:  E(RB3LYP) =  -823.619620365     A.U. after   11 cycles
 SCF Done:  E(RB3LYP) =  -823.620017310     A.U. after   10 cycles
 SCF Done:  E(RB3LYP) =  -823.620017532     A.U. after    7 cycles
 SCF Done:  E(RB3LYP) =  -823.620017708     A.U. after    7 cycles
 SCF Done:  E(RB3LYP) =  -823.620017891     A.U. after    8 cycles
 SCF Done:  E(RB3LYP) =  -823.620017888     A.U. after    7 cycles
 Optimization completed.
    -- Stationary point found.
 Normal termination of Gaussian 16 at Tue Dec  8 21:34:09 2020.

 --------------------------------------------------------------------
 #N Geom=AllCheck Guess=TCheck SCRF=Check GenChk RB3LYP/6-31G(d) Freq
 --------------------------------------------------------------------

 Structure from the checkpoint file:  "JID_1857.chk"
 ------------------------------
 CID_66545814_JID_1857_neutraal
 ------------------------------
 Charge =  0 Multiplicity = 1

 SCF Done:  E(RB3LYP) =  -823.620017888     A.U. after    1 cycles

  Exact polarizability: 138.765  -4.573 118.642  18.440   2.830  75.137
 Approx polarizability: 199.022 -10.884 197.301  37.938   4.252 109.435

                      1                      2                      3
                      A                      A                      A
 Frequencies --     24.1215                72.3548                91.9502
 Red. masses --      4.4632                 3.8264                 1.1607
 Frc consts  --      0.0015                 0.0118                 0.0058
 IR Inten    --      0.8251                 1.1255                17.5729

                      4                      5                      6
                      A                      A                      A
 Frequencies --    104.1196               120.7790               169.8383
 Red. masses --      2.3141                 2.6390                 1.4101
 Frc consts  --      0.0148                 0.0227                 0.0240
 IR Inten    --      4.0799                 6.3120                 1.7033

                      7                      8                      9
                      A                      A                      A
 Frequencies --    190.5554               217.7477               267.7412
 Red. masses --      3.6704                 3.4856                 3.4265
 Frc consts  --      0.0785                 0.0974                 0.1447
 IR Inten    --      0.6194                 1.9641                 0.2017

                     10                     11                     12
                      A                      A                      A
 Frequencies --    373.4368               411.4121               428.1541
 Red. masses --      3.2986                 6.1921                 2.4931
 Frc consts  --      0.2710                 0.6175                 0.2693
 IR Inten    --      2.1770                 0.5685                 5.1225

                     13                     14                     15
                      A                      A                      A
 Frequencies --    431.6028               459.4758               523.5901
 Red. masses --      2.5320                 3.2094                 4.5835
 Frc consts  --      0.2779                 0.3992                 0.7403
 IR Inten    --      0.3434                 9.1887                 0.5606

                     16                     17                     18
                      A                      A                      A
 Frequencies --    612.0673               695.8794               712.7823
 Red. masses --      3.5810                 6.2573                 2.1031
 Frc consts  --      0.7904                 1.7853                 0.6295
 IR Inten    --      2.0947                 5.4048                13.5418

                     19                     20                     21
                      A                      A                      A
 Frequencies --    794.0311               834.0475               864.0223
 Red. masses --      1.4792                 3.4402                 2.1625
 Frc consts  --      0.5495                 1.4100                 0.9512
 IR Inten    --     25.9765                17.9085                 3.0703

                     22                     23                     24
                      A                      A                      A
 Frequencies --    879.8638               897.5014               943.7022
 Red. masses --      1.5077                 1.4098                 1.1617
 Frc consts  --      0.6877                 0.6691                 0.6095
 IR Inten    --      5.3338                 0.8689                 9.3347

                     25                     26                     27
                      A                      A                      A
 Frequencies --    968.1836               975.1008              1003.8839
 Red. masses --      2.2634                 1.3406                 3.1952
 Frc consts  --      1.2501                 0.7510                 1.8972
 IR Inten    --      2.7316                 0.3062                19.6230

                     28                     29                     30
                      A                      A                      A
 Frequencies --   1019.7159              1070.5740              1124.7595
 Red. masses --      5.8788                 1.8023                 1.9870
 Frc consts  --      3.6016                 1.2170                 1.4811
 IR Inten    --      1.3853                12.1874                13.4331

                     31                     32                     33
                      A                      A                      A
 Frequencies --   1140.7302              1158.3312              1191.2647
 Red. masses --      1.7177                 3.2566                 1.2578
 Frc consts  --      1.3169                 2.5744                 1.0517
 IR Inten    --     15.2504               108.7762                 0.7981

                     34                     35                     36
                      A                      A                      A
 Frequencies --   1208.5830              1212.6922              1243.1881
 Red. masses --      1.2425                 1.2800                 2.3815
 Frc consts  --      1.0693                 1.1091                 2.1685
 IR Inten    --     11.8438                19.8373                 3.3686

                     37                     38                     39
                      A                      A                      A
 Frequencies --   1258.0035              1313.6475              1342.9973
 Red. masses --      1.5396                 1.3241                 1.8836
 Frc consts  --      1.4355                 1.3462                 2.0017
 IR Inten    --     16.3261                 6.8924                 2.5385

                     40                     41                     42
                      A                      A                      A
 Frequencies --   1361.4146              1384.1517              1420.3570
 Red. masses --      2.2200                 1.3554                 1.2528
 Frc consts  --      2.4243                 1.5300                 1.4891
 IR Inten    --      0.3569                 4.8855                27.2662

                     43                     44                     45
                      A                      A                      A
 Frequencies --   1481.3469              1502.4330              1511.1077
 Red. masses --      2.6703                 1.1319                 1.1084
 Frc consts  --      3.4524                 1.5054                 1.4912
 IR Inten    --     11.5418                 2.0216                 4.5583

                     46                     47                     48
                      A                      A                      A
 Frequencies --   1518.3819              1528.6807              1534.0737
 Red. masses --      1.0556                 1.8367                 1.1909
 Frc consts  --      1.4338                 2.5288                 1.6512
 IR Inten    --      1.4263                21.9106                 1.3187

                     49                     50                     51
                      A                      A                      A
 Frequencies --   1540.3637              1637.7030              1654.5984
 Red. masses --      1.1006                 5.5350                 5.7238
 Frc consts  --      1.5386                 8.7466                 9.2325
 IR Inten    --      4.2876                28.1370                28.8706

                     52                     53                     54
                      A                      A                      A
 Frequencies --   2696.1172              3002.2461              3019.6806
 Red. masses --      1.0385                 1.0444                 1.0578
 Frc consts  --      4.4475                 5.5465                 5.6831
 IR Inten    --     12.1423                48.4362                62.3932

                     55                     56                     57
                      A                      A                      A
 Frequencies --   3047.1307              3068.4577              3073.5461
 Red. masses --      1.0643                 1.1034                 1.0947
 Frc consts  --      5.8224                 6.1208                 6.0930
 IR Inten    --     18.5437                71.6312                42.9709

                     58                     59                     60
                      A                      A                      A
 Frequencies --   3098.1290              3135.7830              3173.3214
 Red. masses --      1.1021                 1.1003                 1.0898
 Frc consts  --      6.2328                 6.3749                 6.4658
 IR Inten    --     25.3073                31.9459                11.7238

                     61                     62                     63
                      A                      A                      A
 Frequencies --   3187.3413              3201.7040              3213.8676
 Red. masses --      1.0862                 1.0918                 1.0955
 Frc consts  --      6.5017                 6.5943                 6.6668
 IR Inten    --      4.4227                12.7271                13.3196

 - Thermochemistry -
 -------------------
 Temperature   298.150 Kelvin.  Pressure   1.00000 Atm.
 Atom     1 has atomic number  6 and mass  12.00000

 Molecular mass:   168.06089 amu.
 Principal axes and moments of inertia in atomic units:
                           1         2         3
     Eigenvalues --  1069.314963456.701213711.46055
           X            0.99993   0.01038  -0.00641
           Y           -0.01002   0.99853   0.05319
           Z            0.00695  -0.05312   0.99856
 This molecule is an asymmetric top.
 Rotational symmetry number  1.
 Warning -- assumption of classical behavior for rotation
           may cause significant error
 Rotational temperatures (Kelvin)      0.08100     0.02506     0.02334
 Rotational constants (GHZ):           1.68775     0.52210     0.48626
 Zero-point vibrational energy     498510.0 (Joules/Mol)
                                  119.14676 (Kcal/Mol)
 Warning -- explicit consideration of  16 degrees of freedom as
           vibrations may cause significant error
 Vibrational temperatures:     34.71   104.10   132.30   149.80   173.77
          (Kelvin)            244.36   274.17   313.29   385.22   537.29
                              591.93   616.02   620.98   661.08   753.33
                              880.63  1001.22  1025.53  1142.43  1200.01
                             1243.14  1265.93  1291.30  1357.78  1393.00
                             1402.95  1444.37  1467.14  1540.32  1618.28
                             1641.26  1666.58  1713.96  1738.88  1744.79
                             1788.67  1809.99  1890.05  1932.27  1958.77
                             1991.49  2043.58  2131.33  2161.67  2174.15
                             2184.61  2199.43  2207.19  2216.24  2356.29
                             2380.60  3879.11  4319.56  4344.65  4384.14
                             4414.83  4422.15  4457.52  4511.69  4565.70
                             4585.87  4606.54  4624.04

 Zero-point correction=                           0.189872 (Hartree/Particle)
 Thermal correction to Energy=                    0.201545
 Thermal correction to Enthalpy=                  0.202489
 Thermal correction to Gibbs Free Energy=         0.150694
 Sum of electronic and zero-point Energies=           -823.430145
 Sum of electronic and thermal Energies=              -823.418473
 Sum of electronic and thermal Enthalpies=            -823.417529
 Sum of electronic and thermal Free Energies=         -823.469324

                     E (Thermal)             CV                S
                      KCal/Mol        Cal/Mol-Kelvin    Cal/Mol-Kelvin
 Total                  126.471             42.013            109.013
 Electronic               0.000              0.000              0.000
 Translational            0.889              2.981             41.266
 Rotational               0.889              2.981             30.996
 Vibrational            124.694             36.052             36.752
 Vibration     1          0.593              1.985              6.262
 Vibration     2          0.598              1.967              4.088
 Vibration     3          0.602              1.955              3.618
 Vibration     4          0.605              1.946              3.376
 Vibration     5          0.609              1.932              3.088
 Vibration     6          0.625              1.880              2.437
 Vibration     7          0.634              1.853              2.222
 Vibration     8          0.646              1.814              1.978
 Vibration     9          0.673              1.732              1.611
 Vibration    10          0.745              1.527              1.066
 Vibration    11          0.775              1.445              0.922
 Vibration    12          0.790              1.409              0.865
 Vibration    13          0.793              1.401              0.853
 Vibration    14          0.817              1.340              0.768
 Vibration    15          0.879              1.198              0.602
 Vibration    16          0.971              1.006              0.429

 Optimization completed.
    -- Stationary point found.
 Normal termination of Gaussian 16 at Tue Dec  8 21:39:05 2020.

 ----------------------------------------------------------------------
 # B3LYP/6-311++G(d,p) empiricaldispersion=gd3bj scf=xqc pop=npa geom=c
 heck
 ----------------------------------------------------------------------

 --------------------------------------
 CID_66545814_JID_1857_Energie_neutraal
 --------------------------------------
 Structure from the checkpoint file:  "JID_1857.chk"
 Charge =  0 Multiplicity = 1

 SCF Done:  E(RB3LYP) =  -823.767038311     A.U. after   15 cycles
 Normal termination of Gaussian 16 at Tue Dec  8 21:41:43 2020.

 ----------------------------------------------------------------------
 # B3LYP/6-311++G(d,p) empiricaldispersion=gd3bj scf=xqc pop=npa geom=c
 heck
 ----------------------------------------------------------------------

 ------------------------------------
 CID_66545814_JID_1857_Energie_kation
 ------------------------------------
 Structure from the checkpoint file:  "JID_1857.chk"
 Charge =  1 Multiplicity = 2

 SCF Done:  E(UB3LYP) =  -823.472817955     A.U. after   25 cycles
 Normal termination of Gaussian 16 at Tue Dec  8 21:48:06 2020.
 Gaussian 16:  ES64L-G16RevA.03 25-Dec-2016

 ----------------------------------------------------------------------
 # B3LYP/6-311++G(d,p) empiricaldispersion=gd3bj scf=xqc pop=npa geom=c
 heck
 ----------------------------------------------------------------------

 -----------------------------------
 CID_66545814_JID_1857_Energie_anion
 -----------------------------------
 Structure from the checkpoint file:  "JID_1857.chk"
 Charge = -1 Multiplicity = 2

                         Standard orientation:
 ---------------------------------------------------------------------
 Center     Atomic      Atomic             Coordinates (Angstroms)
 Number     Number       Type             X           Y           Z
 ---------------------------------------------------------------------
      1          6           0       -2.543104    0.288459    1.750635
      2          8           0       -3.112733    0.013937    0.483199
      3          6           0       -2.610078   -1.155484   -0.143165
      4          6           0       -1.678687   -0.811090   -1.316656
      5          6           0       -0.457942   -0.036846   -0.883744
      6          6           0        0.702729   -0.710566   -0.489647
      7          6           0        1.815139   -0.007161   -0.017457
      8          6           0        1.768882    1.389836    0.063250
      9          6           0        0.614878    2.062912   -0.331971
     10          6           0       -0.492530    1.359834   -0.804092
     11         16           0        3.320800   -0.820762    0.495890
     12          1           0       -2.997988    1.217619    2.104452
     13          1           0       -1.455390    0.424456    1.696011
     14          1           0       -2.765817   -0.512110    2.473266
     15          1           0       -2.080893   -1.790005    0.582448
     16          1           0       -3.469553   -1.725059   -0.520086
     17          1           0       -1.386008   -1.747582   -1.809168
     18          1           0       -2.252637   -0.226966   -2.044643
     19          1           0        0.732762   -1.795929   -0.553145
     20          1           0        2.629041    1.944210    0.427245
     21          1           0        0.582212    3.147156   -0.270516
     22          1           0       -1.395311    1.887061   -1.095729
     23          1           0        2.912918   -2.081529    0.247126
 ---------------------------------------------------------------------

 SCF Done:  E(UB3LYP) =  -823.753437077     A.U. after   33 cycles
 SCF Done:  E(UB3LYP) =  -823.753437077     a.u. after    1 cycles

 The electronic state is 2-A.
 Alpha  occ. eigenvalues --  -88.74676 -19.02173 -10.11273 -10.11021 -10.10716
 Alpha  occ. eigenvalues --  -10.07695 -10.07431 -10.07101 -10.06841 -10.06715
 Alpha  occ. eigenvalues --  -10.06449  -7.83391  -5.79763  -5.79389  -5.78805
 Alpha  occ. eigenvalues --   -0.93339  -0.76397  -0.69598  -0.67089  -0.63320
 Alpha  occ. eigenvalues --   -0.60075  -0.57819  -0.51952  -0.49835  -0.46682
 Alpha  occ. eigenvalues --   -0.40734  -0.39178  -0.37969  -0.36703  -0.35779
 Alpha  occ. eigenvalues --   -0.34625  -0.31638  -0.31407  -0.29727  -0.28286
 Alpha  occ. eigenvalues --   -0.27637  -0.26937  -0.25992  -0.23861  -0.22744
 Alpha  occ. eigenvalues --   -0.21677  -0.19223  -0.16436  -0.14243  -0.11531
 Alpha  occ. eigenvalues --    0.04695
 Alpha virt. eigenvalues --    0.06928   0.07375   0.07897   0.08655   0.08906
 Alpha virt. eigenvalues --    0.09149   0.09927   0.10448   0.10940   0.11011
 Alpha virt. eigenvalues --    0.12414   0.13062   0.13358   0.14251   0.15099

  Beta  occ. eigenvalues --  -88.74651 -19.02167 -10.11244 -10.11007 -10.10716
  Beta  occ. eigenvalues --  -10.07664 -10.07424 -10.07051 -10.06802 -10.06698
  Beta  occ. eigenvalues --  -10.06434  -7.83365  -5.79702  -5.79372  -5.78787
  Beta  occ. eigenvalues --   -0.93329  -0.76338  -0.69525  -0.67026  -0.63259
  Beta  occ. eigenvalues --   -0.59972  -0.57767  -0.51868  -0.49772  -0.46606
  Beta  occ. eigenvalues --   -0.40652  -0.39137  -0.37915  -0.36640  -0.35745
  Beta  occ. eigenvalues --   -0.34544  -0.31580  -0.31325  -0.29683  -0.28235
  Beta  occ. eigenvalues --   -0.27555  -0.26845  -0.25928  -0.23799  -0.22674
  Beta  occ. eigenvalues --   -0.21637  -0.19152  -0.16367  -0.14135  -0.11428
  Beta virt. eigenvalues --    0.06976   0.07839   0.08184   0.08394   0.08693
  Beta virt. eigenvalues --    0.09315   0.09773   0.10388   0.10794   0.11205
  Beta virt. eigenvalues --    0.11385   0.12959   0.13124   0.13802   0.14305

 Mulliken charges and spin densities:
               1          2
     1  C    0.039174  -0.395545
     2  O   -0.180119   0.046769
     3  C    0.654357  -1.043017
     4  C    1.047086  -1.400291
     5  C   -0.292327   1.232079
     6  C   -1.169890   0.576100
     7  C    0.627976  -0.263429
     8  C    0.692261  -0.552998
     9  C   -0.013381  -0.343168
    10  C    0.028770  -0.451563
    11  S    0.497545  -1.206397
    12  H    0.043361   0.093707
    13  H    0.097582   0.055139
    14  H   -0.115890   0.238211
    15  H   -0.073480   0.196185
    16  H   -0.395922   0.569901
    17  H   -0.505032   0.655655
    18  H   -0.080916   0.259218
    19  H   -0.746218   0.946024
    20  H   -0.230065   0.407762
    21  H   -0.418280   0.582379
    22  H    0.123734   0.043417
    23  H   -0.630328   0.753861
 Sum of Mulliken charges =  -1.00000   1.00000

 Dipole moment (field-independent basis, Debye):
    X=             -0.1330    Y=              4.4292    Z=              1.2534  Tot=              4.6051
 Quadrupole moment (field-independent basis, Debye-Ang):
   XX=           -130.9303   YY=           -122.1509   ZZ=           -102.1649
   XY=             -2.7037   XZ=             -3.3891   YZ=             -4.4521

 Summary of Natural Population Analysis:

                                       Natural Population
                Natural  -----------------------------------------------
    Atom  No    Charge         Core      Valence    Rydberg      Total
 -----------------------------------------------------------------------
      C    1   -0.09557      0.99961     2.08792    0.00805     3.09557
      O    2   -0.30461      0.99989     3.29474    0.00998     4.30461
      C    3   -0.00237      0.99957     1.98959    0.01321     3.00237
      C    4   -0.20896      0.99959     2.19828    0.01109     3.20896
      C    5   -0.00588      0.99950     1.99464    0.01174     3.00588
      C    6   -0.11132      0.99943     2.09994    0.01195     3.11132
      C    7   -0.07816      0.99941     2.06641    0.01233     3.07816
      C    8   -0.11182      0.99949     2.10188    0.01045     3.11182
      C    9   -0.09622      0.99956     2.08587    0.01079     3.09622
      C   10   -0.10779      0.99950     2.09895    0.00933     3.10779
      S   11    0.01275      4.99956     2.97092    0.01678     7.98725
      H   12    0.08625      0.00000     0.41256    0.00119     0.41375
      H   13    0.08635      0.00000     0.41191    0.00174     0.41365
      H   14    0.07581      0.00000     0.42279    0.00140     0.42419
      H   15    0.08155      0.00000     0.41620    0.00225     0.41845
      H   16    0.08840      0.00000     0.40954    0.00206     0.41160
      H   17    0.10775      0.00000     0.38974    0.00250     0.39225
      H   18    0.10157      0.00000     0.39705    0.00139     0.39843
      H   19    0.10674      0.00000     0.38988    0.00338     0.39326
      H   20    0.10218      0.00000     0.39670    0.00112     0.39782
      H   21    0.09923      0.00000     0.39984    0.00093     0.40077
      H   22    0.10253      0.00000     0.39598    0.00149     0.39747
      H   23    0.07160      0.00000     0.42311    0.00529     0.42840
 =======================================================================
   * Total *    0.00000     14.99512    29.85445    0.15044    45.00000

 Normal termination of Gaussian 16 at Tue Dec  8 21:55:39 2020.
