 Gaussian 16, Revision A.03,

 -----------------------------------------------------------
 # opt freq B3LYP/6-31G(d) empiricaldispersion=gd3bj scf=xqc
 -----------------------------------------------------------

 -------------------------------
 CID_102681347_JID_4245_neutraal
 -------------------------------
 Symbolic Z-matrix:
 Charge =  0 Multiplicity = 1

 SCF Done:  E(RB3LYP) =  -594.866339524     A.U. after   15 cycles
 SCF Done:  E(RB3LYP) =  -594.889687870     A.U. after   12 cycles
 SCF Done:  E(RB3LYP) =  -594.890662059     A.U. after   12 cycles
 SCF Done:  E(RB3LYP) =  -594.890856091     A.U. after   12 cycles
 SCF Done:  E(RB3LYP) =  -594.891043788     A.U. after   11 cycles
 SCF Done:  E(RB3LYP) =  -594.891069236     A.U. after   10 cycles
 SCF Done:  E(RB3LYP) =  -594.891076439     A.U. after    9 cycles
 SCF Done:  E(RB3LYP) =  -594.891087105     A.U. after    9 cycles
 SCF Done:  E(RB3LYP) =  -594.891099945     A.U. after   10 cycles
 SCF Done:  E(RB3LYP) =  -594.891108417     A.U. after   10 cycles
 SCF Done:  E(RB3LYP) =  -594.891116262     A.U. after    9 cycles
 SCF Done:  E(RB3LYP) =  -594.891119072     A.U. after    9 cycles
 SCF Done:  E(RB3LYP) =  -594.891119278     A.U. after    8 cycles
 Optimization completed.
    -- Stationary point found.
 Normal termination of Gaussian 16 at Thu Dec 10 09:23:35 2020.

 --------------------------------------------------------------------
 #N Geom=AllCheck Guess=TCheck SCRF=Check GenChk RB3LYP/6-31G(d) Freq
 --------------------------------------------------------------------

 Structure from the checkpoint file:  "JID_4245.chk"
 -------------------------------
 CID_102681347_JID_4245_neutraal
 -------------------------------
 Charge =  0 Multiplicity = 1

 SCF Done:  E(RB3LYP) =  -594.891119278     A.U. after    1 cycles

  Exact polarizability: 144.175  -4.680 128.083  -0.379  -4.299 102.921
 Approx polarizability: 185.013 -14.301 184.709   3.366  -9.323 163.927

                      1                      2                      3
                      A                      A                      A
 Frequencies --     40.7395                81.3230                94.1683
 Red. masses --      4.6583                 2.8315                 4.3580
 Frc consts  --      0.0046                 0.0110                 0.0228
 IR Inten    --      2.6521                 2.9216                 4.3761

                      4                      5                      6
                      A                      A                      A
 Frequencies --    105.6330               148.9453               180.1123
 Red. masses --      2.6141                 5.4608                 3.0149
 Frc consts  --      0.0172                 0.0714                 0.0576
 IR Inten    --      5.8674                 2.8150                 3.4944

                      7                      8                      9
                      A                      A                      A
 Frequencies --    181.5766               226.9960               238.8729
 Red. masses --      2.3686                 2.8300                 3.0105
 Frc consts  --      0.0460                 0.0859                 0.1012
 IR Inten    --      0.0901                 2.3823                 0.5607

                     10                     11                     12
                      A                      A                      A
 Frequencies --    268.8333               309.5034               335.7699
 Red. masses --      1.1515                 3.1994                 1.8817
 Frc consts  --      0.0490                 0.1806                 0.1250
 IR Inten    --      0.4483                 1.1846                 1.4473

                     13                     14                     15
                      A                      A                      A
 Frequencies --    365.5157               386.1926               403.4486
 Red. masses --      2.3084                 3.1425                 2.9698
 Frc consts  --      0.1817                 0.2761                 0.2848
 IR Inten    --      0.5348                 3.2811                 0.0467

                     16                     17                     18
                      A                      A                      A
 Frequencies --    463.2479               504.1082               520.2598
 Red. masses --      2.9223                 3.3705                 4.1079
 Frc consts  --      0.3695                 0.5046                 0.6551
 IR Inten    --      0.9233                 0.6389                 3.5747

                     19                     20                     21
                      A                      A                      A
 Frequencies --    563.0247               573.8617               591.5092
 Red. masses --      2.0157                 4.0739                 2.4796
 Frc consts  --      0.3765                 0.7905                 0.5112
 IR Inten    --     19.7906                 9.0547                30.9410

                     22                     23                     24
                      A                      A                      A
 Frequencies --    697.7146               736.0701               749.1132
 Red. masses --      3.8499                 2.2091                 2.1189
 Frc consts  --      1.1042                 0.7052                 0.7006
 IR Inten    --      5.1371                20.6762                29.2344

                     25                     26                     27
                      A                      A                      A
 Frequencies --    824.7344               864.5674               892.9253
 Red. masses --      2.4509                 2.2327                 2.2401
 Frc consts  --      0.9822                 0.9833                 1.0523
 IR Inten    --     11.7787                 1.7728                 1.2553

                     28                     29                     30
                      A                      A                      A
 Frequencies --    900.8352               912.2699               926.1196
 Red. masses --      1.5852                 2.4775                 2.4317
 Frc consts  --      0.7579                 1.2148                 1.2288
 IR Inten    --      0.5911                 6.5055                 8.2032

                     31                     32                     33
                      A                      A                      A
 Frequencies --    947.9318               967.1601               986.7543
 Red. masses --      1.9598                 2.1059                 1.5259
 Frc consts  --      1.0376                 1.1606                 0.8754
 IR Inten    --      1.7916                 5.4774                 3.3601

                     34                     35                     36
                      A                      A                      A
 Frequencies --   1018.0562              1030.5239              1063.4257
 Red. masses --      1.6178                 1.5212                 1.8926
 Frc consts  --      0.9879                 0.9518                 1.2610
 IR Inten    --      9.8095                 5.2657                 3.1918

                     37                     38                     39
                      A                      A                      A
 Frequencies --   1089.4827              1095.9702              1115.4656
 Red. masses --      3.3474                 2.1518                 2.5454
 Frc consts  --      2.3410                 1.5228                 1.8661
 IR Inten    --     33.4102                 2.4601                10.0630

                     40                     41                     42
                      A                      A                      A
 Frequencies --   1122.8554              1137.1205              1148.0177
 Red. masses --      2.8366                 1.7599                 2.5367
 Frc consts  --      2.1071                 1.3408                 1.9698
 IR Inten    --      9.6934                 4.1658                 5.4701

                     43                     44                     45
                      A                      A                      A
 Frequencies --   1161.2461              1186.8536              1204.5921
 Red. masses --      1.9939                 1.6102                 1.5915
 Frc consts  --      1.5841                 1.3364                 1.3606
 IR Inten    --      6.4758                31.0216                10.0131

                     46                     47                     48
                      A                      A                      A
 Frequencies --   1213.9819              1239.1322              1251.2314
 Red. masses --      1.5361                 1.7713                 1.3196
 Frc consts  --      1.3338                 1.6024                 1.2172
 IR Inten    --      7.6237                14.0940                 2.2011

                     49                     50                     51
                      A                      A                      A
 Frequencies --   1270.4723              1305.3948              1310.9587
 Red. masses --      1.4210                 1.2618                 1.2820
 Frc consts  --      1.3514                 1.2669                 1.2981
 IR Inten    --     20.0008                 0.5787                 7.1469

                     52                     53                     54
                      A                      A                      A
 Frequencies --   1331.6940              1340.4549              1348.3436
 Red. masses --      1.3633                 1.2242                 1.3701
 Frc consts  --      1.4245                 1.2960                 1.4675
 IR Inten    --      6.7580                 7.1528                 0.9968

                     55                     56                     57
                      A                      A                      A
 Frequencies --   1358.1772              1382.3090              1386.7810
 Red. masses --      1.4402                 1.3626                 1.4502
 Frc consts  --      1.5652                 1.5341                 1.6432
 IR Inten    --      1.0359                 4.3818                 4.6229

                     58                     59                     60
                      A                      A                      A
 Frequencies --   1394.8261              1402.8997              1411.9684
 Red. masses --      1.3968                 1.3035                 1.3394
 Frc consts  --      1.6011                 1.5115                 1.5733
 IR Inten    --      6.9392                12.9722                22.9974

                     61                     62                     63
                      A                      A                      A
 Frequencies --   1422.8553              1433.7787              1445.1403
 Red. masses --      1.3749                 1.4802                 1.2346
 Frc consts  --      1.6400                 1.7928                 1.5192
 IR Inten    --     16.0806                 3.6268                10.2948

                     64                     65                     66
                      A                      A                      A
 Frequencies --   1453.1696              1461.8414              1503.1042
 Red. masses --      1.4254                 1.3821                 1.0875
 Frc consts  --      1.7735                 1.7401                 1.4477
 IR Inten    --      0.8868                 3.1313                 3.9889

                     67                     68                     69
                      A                      A                      A
 Frequencies --   1511.3089              1521.8000              1524.0225
 Red. masses --      1.0908                 1.1088                 1.0433
 Frc consts  --      1.4679                 1.5130                 1.4277
 IR Inten    --      5.3627                 7.3406                16.2292

                     70                     71                     72
                      A                      A                      A
 Frequencies --   1530.0737              1535.7625              1550.0700
 Red. masses --      1.0984                 1.0513                 1.0871
 Frc consts  --      1.5150                 1.4609                 1.5389
 IR Inten    --      2.0113                 9.7825                 2.6928

                     73                     74                     75
                      A                      A                      A
 Frequencies --   1559.7234              2357.5239              2932.6737
 Red. masses --      1.0930                12.6433                 1.0789
 Frc consts  --      1.5666                41.4022                 5.4673
 IR Inten    --      4.7984                12.3063                20.3035

                     76                     77                     78
                      A                      A                      A
 Frequencies --   2950.8082              2979.1403              3013.0575
 Red. masses --      1.0730                 1.0712                 1.0737
 Frc consts  --      5.5047                 5.6017                 5.7430
 IR Inten    --     59.5411                64.7065                25.3609

                     79                     80                     81
                      A                      A                      A
 Frequencies --   3021.9012              3026.1360              3032.4367
 Red. masses --      1.0730                 1.0816                 1.0686
 Frc consts  --      5.7730                 5.8356                 5.7897
 IR Inten    --      6.5839                 5.0986                87.7008

                     82                     83                     84
                      A                      A                      A
 Frequencies --   3048.1607              3048.6037              3062.2826
 Red. masses --      1.0627                 1.0672                 1.0903
 Frc consts  --      5.8175                 5.8441                 6.0238
 IR Inten    --     24.2105                42.7922                52.2595

                     85                     86                     87
                      A                      A                      A
 Frequencies --   3072.1153              3073.2552              3078.9488
 Red. masses --      1.0968                 1.0377                 1.0974
 Frc consts  --      6.0988                 5.7745                 6.1297
 IR Inten    --     21.8580                20.7918                85.3953

                     88                     89                     90
                      A                      A                      A
 Frequencies --   3094.0740              3098.7674              3108.5288
 Red. masses --      1.1014                 1.0915                 1.0989
 Frc consts  --      6.2125                 6.1755                 6.2562
 IR Inten    --     44.8149                28.9192                23.6142

                     91                     92                     93
                      A                      A                      A
 Frequencies --   3140.7880              3160.2797              3555.4130
 Red. masses --      1.1035                 1.1019                 1.0761
 Frc consts  --      6.4135                 6.4841                 8.0145
 IR Inten    --     20.7874                17.9441                 1.0556

 - Thermochemistry -
 -------------------
 Temperature   298.150 Kelvin.  Pressure   1.00000 Atm.
 Atom     1 has atomic number  6 and mass  12.00000

 Molecular mass:   193.15790 amu.
 Principal axes and moments of inertia in atomic units:
                           1         2         3
     Eigenvalues --  1591.025273683.265324687.28544
           X            0.99972   0.02361  -0.00238
           Y           -0.02361   0.99972  -0.00155
           Z            0.00234   0.00160   1.00000
 This molecule is an asymmetric top.
 Rotational symmetry number  1.
 Warning -- assumption of classical behavior for rotation
           may cause significant error
 Rotational temperatures (Kelvin)      0.05444     0.02352     0.01848
 Rotational constants (GHZ):           1.13433     0.48998     0.38503
 Zero-point vibrational energy     781278.8 (Joules/Mol)
                                  186.73012 (Kcal/Mol)
 Warning -- explicit consideration of  21 degrees of freedom as
           vibrations may cause significant error
 Vibrational temperatures:     58.62   117.01   135.49   151.98   214.30
          (Kelvin)            259.14   261.25   326.60   343.68   386.79
                              445.31   483.10   525.90   555.65   580.47
                              666.51   725.30   748.54   810.07   825.66
                              851.05  1003.86  1059.04  1077.81  1186.61
                             1243.92  1284.72  1296.10  1312.55  1332.48
                             1363.86  1391.53  1419.72  1464.76  1482.69
                             1530.03  1567.52  1576.86  1604.91  1615.54
                             1636.06  1651.74  1670.77  1707.62  1733.14
                             1746.65  1782.83  1800.24  1827.93  1878.17
                             1886.18  1916.01  1928.62  1939.97  1954.11
                             1988.83  1995.27  2006.84  2018.46  2031.51
                             2047.17  2062.89  2079.23  2090.79  2103.26
                             2162.63  2174.44  2189.53  2192.73  2201.43
                             2209.62  2230.21  2244.09  3391.95  4219.46
                             4245.55  4286.32  4335.12  4347.84  4353.93
                             4363.00  4385.62  4386.26  4405.94  4420.09
                             4421.73  4429.92  4451.68  4458.44  4472.48
                             4518.89  4546.94  5115.45

 Zero-point correction=                           0.297573 (Hartree/Particle)
 Thermal correction to Energy=                    0.311060
 Thermal correction to Enthalpy=                  0.312004
 Thermal correction to Gibbs Free Energy=         0.257621
 Sum of electronic and zero-point Energies=           -594.593546
 Sum of electronic and thermal Energies=              -594.580060
 Sum of electronic and thermal Enthalpies=            -594.579116
 Sum of electronic and thermal Free Energies=         -594.633498

                     E (Thermal)             CV                S
                      KCal/Mol        Cal/Mol-Kelvin    Cal/Mol-Kelvin
 Total                  195.193             52.545            114.457
 Electronic               0.000              0.000              0.000
 Translational            0.889              2.981             41.680
 Rotational               0.889              2.981             31.685
 Vibrational            193.415             46.583             41.092
 Vibration     1          0.594              1.981              5.223
 Vibration     2          0.600              1.962              3.859
 Vibration     3          0.603              1.953              3.572
 Vibration     4          0.605              1.945              3.348
 Vibration     5          0.618              1.904              2.686
 Vibration     6          0.629              1.867              2.327
 Vibration     7          0.630              1.865              2.312
 Vibration     8          0.651              1.800              1.903
 Vibration     9          0.657              1.781              1.811
 Vibration    10          0.673              1.730              1.604
 Vibration    11          0.699              1.656              1.365
 Vibration    12          0.717              1.604              1.232
 Vibration    13          0.739              1.543              1.099
 Vibration    14          0.755              1.500              1.015
 Vibration    15          0.769              1.463              0.950
 Vibration    16          0.821              1.332              0.757
 Vibration    17          0.859              1.241              0.648
 Vibration    18          0.875              1.205              0.609
 Vibration    19          0.919              1.111              0.518
 Vibration    20          0.930              1.088              0.497
 Vibration    21          0.949              1.050              0.464

 Optimization completed.
    -- Stationary point found.
 Normal termination of Gaussian 16 at Thu Dec 10 09:34:40 2020.

 ----------------------------------------------------------------------
 # B3LYP/6-311++G(d,p) empiricaldispersion=gd3bj scf=xqc pop=npa geom=c
 heck
 ----------------------------------------------------------------------

 ---------------------------------------
 CID_102681347_JID_4245_Energie_neutraal
 ---------------------------------------
 Structure from the checkpoint file:  "JID_4245.chk"
 Charge =  0 Multiplicity = 1

 SCF Done:  E(RB3LYP) =  -595.055697512     A.U. after   14 cycles
 Normal termination of Gaussian 16 at Thu Dec 10 09:39:36 2020.

 ----------------------------------------------------------------------
 # B3LYP/6-311++G(d,p) empiricaldispersion=gd3bj scf=xqc pop=npa geom=c
 heck
 ----------------------------------------------------------------------

 -------------------------------------
 CID_102681347_JID_4245_Energie_kation
 -------------------------------------
 Structure from the checkpoint file:  "JID_4245.chk"
 Charge =  1 Multiplicity = 2

 SCF Done:  E(UB3LYP) =  -594.768701078     A.U. after   22 cycles
 Normal termination of Gaussian 16 at Thu Dec 10 09:51:19 2020.
 Gaussian 16:  ES64L-G16RevA.03 25-Dec-2016

 ----------------------------------------------------------------------
 # B3LYP/6-311++G(d,p) empiricaldispersion=gd3bj scf=xqc pop=npa geom=c
 heck
 ----------------------------------------------------------------------

 ------------------------------------
 CID_102681347_JID_4245_Energie_anion
 ------------------------------------
 Structure from the checkpoint file:  "JID_4245.chk"
 Charge = -1 Multiplicity = 2

                         Standard orientation:
 ---------------------------------------------------------------------
 Center     Atomic      Atomic             Coordinates (Angstroms)
 Number     Number       Type             X           Y           Z
 ---------------------------------------------------------------------
      1          6           0       -1.901612   -1.718553   -1.120027
      2          6           0       -2.427030   -1.043259    0.159023
      3          6           0       -1.319771   -0.609414    1.180787
      4          7           0       -0.225770    0.240121    0.760543
      5          6           0       -0.608070    1.534323    0.188257
      6          6           0        0.573410    2.513953    0.162904
      7          6           0        1.797139    1.919877   -0.555282
      8          6           0        2.102266    0.567200    0.073875
      9          6           0        0.873328   -0.349941    0.012929
     10          6           0        1.463614   -1.665749    0.519461
     11          7           0        2.770999   -1.714902   -0.163486
     12          6           0        3.186312   -0.333798   -0.521532
     13          6           0       -3.328796    0.066317   -0.175639
     14          7           0       -4.045373    0.942855   -0.434331
     15          1           0       -1.368603   -1.006469   -1.753300
     16          1           0       -2.727787   -2.137706   -1.701822
     17          1           0       -1.215432   -2.529584   -0.859093
     18          1           0       -3.043604   -1.773527    0.703030
     19          1           0       -1.834173   -0.109928    2.011560
     20          1           0       -0.893310   -1.533482    1.583124
     21          1           0       -1.424969    1.948847    0.787384
     22          1           0       -0.997697    1.421880   -0.840594
     23          1           0        0.251749    3.443874   -0.320455
     24          1           0        0.847338    2.759939    1.196575
     25          1           0        1.577343    1.785281   -1.624385
     26          1           0        2.652950    2.602564   -0.486854
     27          1           0        2.317158    0.720009    1.141475
     28          1           0        0.617869   -0.483565   -1.055729
     29          1           0        0.864490   -2.545134    0.254299
     30          1           0        1.536083   -1.625742    1.619607
     31          1           0        3.466423   -2.176992    0.411166
     32          1           0        3.225289   -0.227394   -1.615576
     33          1           0        4.185147   -0.095125   -0.138022
 ---------------------------------------------------------------------

 SCF Done:  E(UB3LYP) =  -595.045109908     A.U. after   31 cycles

 The electronic state is 2-A.
 Alpha  occ. eigenvalues --  -14.21419 -14.21376 -14.19489 -10.12054 -10.11298
 Alpha  occ. eigenvalues --  -10.11126 -10.10181 -10.10101 -10.09293 -10.09095
 Alpha  occ. eigenvalues --  -10.08079 -10.07928 -10.07856 -10.07319  -0.84777
 Alpha  occ. eigenvalues --   -0.81352  -0.80665  -0.72544  -0.69932  -0.66509
 Alpha  occ. eigenvalues --   -0.62562  -0.60334  -0.56729  -0.53677  -0.50936
 Alpha  occ. eigenvalues --   -0.48232  -0.46790  -0.43041  -0.40323  -0.38674
 Alpha  occ. eigenvalues --   -0.38243  -0.36570  -0.36060  -0.34610  -0.33922
 Alpha  occ. eigenvalues --   -0.32244  -0.31784  -0.30932  -0.29714  -0.29047
 Alpha  occ. eigenvalues --   -0.28938  -0.28200  -0.26975  -0.26110  -0.25913
 Alpha  occ. eigenvalues --   -0.24765  -0.24023  -0.23205  -0.23103  -0.22731
 Alpha  occ. eigenvalues --   -0.21563  -0.12559  -0.11982   0.04189
 Alpha virt. eigenvalues --    0.05953   0.06901   0.07491   0.08498   0.08901
 Alpha virt. eigenvalues --    0.09221   0.09676   0.10272   0.11169   0.11472
 Alpha virt. eigenvalues --    0.11833   0.11959   0.12418   0.12783   0.13060

  Beta  occ. eigenvalues --  -14.21418 -14.21363 -14.19472 -10.12028 -10.11292
  Beta  occ. eigenvalues --  -10.11102 -10.10175 -10.10097 -10.09274 -10.09068
  Beta  occ. eigenvalues --  -10.08047 -10.07923 -10.07849 -10.07310  -0.84762
  Beta  occ. eigenvalues --   -0.81323  -0.80637  -0.72504  -0.69898  -0.66488
  Beta  occ. eigenvalues --   -0.62520  -0.60287  -0.56674  -0.53627  -0.50908
  Beta  occ. eigenvalues --   -0.48179  -0.46755  -0.42987  -0.40268  -0.38640
  Beta  occ. eigenvalues --   -0.38193  -0.36534  -0.36033  -0.34578  -0.33889
  Beta  occ. eigenvalues --   -0.32211  -0.31749  -0.30905  -0.29682  -0.29001
  Beta  occ. eigenvalues --   -0.28898  -0.28164  -0.26948  -0.26083  -0.25879
  Beta  occ. eigenvalues --   -0.24741  -0.23999  -0.23178  -0.23048  -0.22710
  Beta  occ. eigenvalues --   -0.21535  -0.12535  -0.11964
  Beta virt. eigenvalues --    0.06449   0.07162   0.07433   0.07773   0.08991
  Beta virt. eigenvalues --    0.09333   0.09727   0.10036   0.10525   0.11584
  Beta virt. eigenvalues --    0.11857   0.12085   0.12205   0.12611   0.12984

 Mulliken charges and spin densities:
               1          2
     1  C    0.404907  -1.073182
     2  C   -0.299120   1.002797
     3  C    0.432892  -0.767874
     4  N    0.194278   0.094802
     5  C   -0.091493  -0.088901
     6  C   -0.091446  -0.397604
     7  C   -0.524858   0.125111
     8  C   -0.174747   1.169031
     9  C   -0.741536  -0.529050
    10  C    0.822925  -1.338095
    11  N   -0.319568   0.235859
    12  C    0.641603  -1.423444
    13  C    1.073542  -1.414247
    14  N   -0.376309   0.056509
    15  H   -0.055491   0.198311
    16  H   -0.185653   0.377637
    17  H   -0.113959   0.262294
    18  H   -0.846565   1.106911
    19  H   -0.066204   0.245864
    20  H   -0.532577   0.736534
    21  H    0.133157   0.061043
    22  H    0.134694  -0.013284
    23  H    0.107489   0.056081
    24  H    0.028545   0.107796
    25  H    0.112552   0.002894
    26  H   -0.056284   0.230595
    27  H   -0.010546   0.214108
    28  H    0.282601  -0.045301
    29  H   -0.020884   0.223769
    30  H   -0.395538   0.561985
    31  H   -0.068839   0.311820
    32  H    0.119762   0.025746
    33  H   -0.517331   0.683482
 Sum of Mulliken charges =  -1.00000   1.00000

 Dipole moment (field-independent basis, Debye):
    X=              1.5181    Y=              5.2695    Z=             -2.9683  Tot=              6.2356
 Quadrupole moment (field-independent basis, Debye-Ang):
   XX=           -173.7295   YY=           -135.5107   ZZ=           -120.1425
   XY=              0.9039   XZ=             -3.2979   YZ=              5.5145

 Summary of Natural Population Analysis:

                                       Natural Population
                Natural  -----------------------------------------------
    Atom  No    Charge         Core      Valence    Rydberg      Total
 -----------------------------------------------------------------------
      C    1   -0.27834      0.99964     2.27210    0.00660     3.27834
      C    2   -0.17719      0.99951     2.16406    0.01363     3.17719
      C    3   -0.07157      0.99959     2.05717    0.01482     3.07157
      N    4   -0.28088      0.99968     2.76833    0.01288     3.78088
      C    5   -0.08498      0.99961     2.07552    0.00985     3.08498
      C    6   -0.18867      0.99963     2.18196    0.00708     3.18867
      C    7   -0.18750      0.99961     2.17938    0.00851     3.18750
      C    8   -0.11895      0.99956     2.10759    0.01179     3.11895
      C    9   -0.00546      0.99953     1.99281    0.01313     3.00546
      C   10   -0.08869      0.99959     2.07810    0.01100     3.08869
      N   11   -0.34553      0.99976     2.83407    0.01170     3.84553
      C   12   -0.08103      0.99961     2.07034    0.01109     3.08103
      C   13    0.16856      0.99964     1.81399    0.01781     2.83144
      N   14   -0.19368      0.99979     2.68270    0.01119     3.69368
      H   15    0.09984      0.00000     0.39871    0.00144     0.40016
      H   16    0.10476      0.00000     0.39414    0.00110     0.39524
      H   17    0.10689      0.00000     0.39179    0.00132     0.39311
      H   18    0.12553      0.00000     0.36867    0.00580     0.37447
      H   19    0.09838      0.00000     0.39992    0.00170     0.40162
      H   20    0.10609      0.00000     0.39175    0.00217     0.39391
      H   21    0.10167      0.00000     0.39712    0.00121     0.39833
      H   22    0.08174      0.00000     0.41665    0.00161     0.41826
      H   23    0.09697      0.00000     0.40224    0.00079     0.40303
      H   24    0.09713      0.00000     0.40159    0.00129     0.40287
      H   25    0.09341      0.00000     0.40539    0.00120     0.40659
      H   26    0.09966      0.00000     0.39945    0.00088     0.40034
      H   27    0.09952      0.00000     0.39793    0.00255     0.40048
      H   28    0.08147      0.00000     0.41617    0.00236     0.41853
      H   29    0.09416      0.00000     0.40405    0.00179     0.40584
      H   30    0.08881      0.00000     0.40869    0.00250     0.41119
      H   31    0.17984      0.00000     0.31702    0.00314     0.32016
      H   32    0.08337      0.00000     0.41513    0.00150     0.41663
      H   33    0.09469      0.00000     0.40361    0.00170     0.40531
 =======================================================================
   * Total *   -0.00000     13.99474    38.80814    0.19713    53.00000

 Normal termination of Gaussian 16 at Thu Dec 10 10:08:06 2020.
