 Gaussian 16, Revision A.03,

 -----------------------------------------------------------
 # opt freq B3LYP/6-31G(d) empiricaldispersion=gd3bj scf=xqc
 -----------------------------------------------------------

 -------------------------------
 CID_137821336_JID_5594_neutraal
 -------------------------------
 Symbolic Z-matrix:
 Charge =  0 Multiplicity = 1

 SCF Done:  E(RB3LYP) =  -1103.16139093     A.U. after   14 cycles
 SCF Done:  E(RB3LYP) =  -1103.17043003     A.U. after   13 cycles
 SCF Done:  E(RB3LYP) =  -1103.17072695     A.U. after   13 cycles
 SCF Done:  E(RB3LYP) =  -1103.17394061     A.U. after   12 cycles
 SCF Done:  E(RB3LYP) =  -1103.17575082     A.U. after   12 cycles
 SCF Done:  E(RB3LYP) =  -1103.17728924     A.U. after   12 cycles
 SCF Done:  E(RB3LYP) =  -1103.17832210     A.U. after   13 cycles
 SCF Done:  E(RB3LYP) =  -1103.17912431     A.U. after   12 cycles
 SCF Done:  E(RB3LYP) =  -1103.18045103     A.U. after   13 cycles
 SCF Done:  E(RB3LYP) =  -1103.18282379     A.U. after   15 cycles
 SCF Done:  E(RB3LYP) =  -1103.18871300     A.U. after   11 cycles
 SCF Done:  E(RB3LYP) =  -1103.18872003     A.U. after   10 cycles
 SCF Done:  E(RB3LYP) =  -1103.18872215     A.U. after    9 cycles
 SCF Done:  E(RB3LYP) =  -1103.18872262     A.U. after    8 cycles
 SCF Done:  E(RB3LYP) =  -1103.18872300     A.U. after    8 cycles
 SCF Done:  E(RB3LYP) =  -1103.18872316     A.U. after    7 cycles
 Optimization completed.
    -- Stationary point found.
 Normal termination of Gaussian 16 at Thu Dec 10 16:47:21 2020.

 --------------------------------------------------------------------
 #N Geom=AllCheck Guess=TCheck SCRF=Check GenChk RB3LYP/6-31G(d) Freq
 --------------------------------------------------------------------

 Structure from the checkpoint file:  "JID_5594.chk"
 -------------------------------
 CID_137821336_JID_5594_neutraal
 -------------------------------
 Charge =  0 Multiplicity = 1

 SCF Done:  E(RB3LYP) =  -1103.18872316     A.U. after    1 cycles

  Exact polarizability: 150.569  -0.422 120.984  -2.416   1.847 106.054
 Approx polarizability: 189.623  -1.303 189.380  -4.271   1.232 170.428

                      1                      2                      3
                      A                      A                      A
 Frequencies --     18.1434                23.8555                38.7981
 Red. masses --      4.3598                 3.8696                 4.8931
 Frc consts  --      0.0008                 0.0013                 0.0043
 IR Inten    --      0.5269                 2.3619                 1.3515

                      4                      5                      6
                      A                      A                      A
 Frequencies --     62.4916                64.6807                83.4285
 Red. masses --      3.8344                 3.1638                 6.3515
 Frc consts  --      0.0088                 0.0078                 0.0260
 IR Inten    --      1.0830                 1.1831                 8.7361

                      7                      8                      9
                      A                      A                      A
 Frequencies --    105.3016               143.4255               195.0867
 Red. masses --      5.7191                 2.0549                 3.9152
 Frc consts  --      0.0374                 0.0249                 0.0878
 IR Inten    --      1.6714                 0.3222                 2.5190

                     10                     11                     12
                      A                      A                      A
 Frequencies --    247.7989               264.9619               287.8758
 Red. masses --      1.8014                 2.0898                 2.9283
 Frc consts  --      0.0652                 0.0864                 0.1430
 IR Inten    --      0.9889                 1.6534                 3.0526

                     13                     14                     15
                      A                      A                      A
 Frequencies --    310.1579               340.6140               356.2223
 Red. masses --      3.4855                 2.7071                 2.4396
 Frc consts  --      0.1976                 0.1850                 0.1824
 IR Inten    --      2.0950                 4.2239                 1.4666

                     16                     17                     18
                      A                      A                      A
 Frequencies --    369.9803               393.8734               415.5877
 Red. masses --      3.6668                 3.9951                 5.1491
 Frc consts  --      0.2957                 0.3652                 0.5240
 IR Inten    --      5.5429                 2.7844                23.1849

                     19                     20                     21
                      A                      A                      A
 Frequencies --    472.8433               485.9353               536.8295
 Red. masses --      3.3775                 2.2765                 4.8472
 Frc consts  --      0.4449                 0.3167                 0.8230
 IR Inten    --      5.2092                 5.3144                39.9450

                     22                     23                     24
                      A                      A                      A
 Frequencies --    577.5233               603.0361               649.8606
 Red. masses --      4.9399                 3.2687                 4.1000
 Frc consts  --      0.9707                 0.7004                 1.0202
 IR Inten    --      2.9661                 6.8888                44.3223

                     25                     26                     27
                      A                      A                      A
 Frequencies --    680.3057               699.9891               719.2343
 Red. masses --      2.7286                 1.6123                 2.0710
 Frc consts  --      0.7441                 0.4654                 0.6312
 IR Inten    --     40.7337                91.9217                19.6725

                     28                     29                     30
                      A                      A                      A
 Frequencies --    769.1005               781.8058               799.7721
 Red. masses --      1.4597                 1.4763                 5.2489
 Frc consts  --      0.5087                 0.5317                 1.9781
 IR Inten    --     25.5982                12.1114                64.6420

                     31                     32                     33
                      A                      A                      A
 Frequencies --    826.0787               829.9174               869.2610
 Red. masses --      2.4794                 2.2530                 1.8782
 Frc consts  --      0.9969                 0.9143                 0.8362
 IR Inten    --     37.2517                51.7674                17.0349

                     34                     35                     36
                      A                      A                      A
 Frequencies --    878.3618               909.2964               931.3542
 Red. masses --      2.4153                 2.3703                 1.9547
 Frc consts  --      1.0979                 1.1547                 0.9990
 IR Inten    --      7.5823                36.8803                34.1996

                     37                     38                     39
                      A                      A                      A
 Frequencies --    935.6270               955.7963              1004.1067
 Red. masses --      1.8888                 1.7302                 1.8269
 Frc consts  --      0.9742                 0.9313                 1.0853
 IR Inten    --      4.6983                10.7609                14.6503

                     40                     41                     42
                      A                      A                      A
 Frequencies --   1024.1857              1040.6817              1084.8661
 Red. masses --      1.6559                 1.6883                 1.7369
 Frc consts  --      1.0234                 1.0773                 1.2044
 IR Inten    --      1.9874                20.5108                 5.1688

                     43                     44                     45
                      A                      A                      A
 Frequencies --   1098.0201              1100.3021              1138.0558
 Red. masses --      3.0280                 2.7007                 1.6421
 Frc consts  --      2.1509                 1.9264                 1.2531
 IR Inten    --     90.1731                36.3181                27.5608

                     46                     47                     48
                      A                      A                      A
 Frequencies --   1141.9291              1179.0384              1184.1293
 Red. masses --      1.5686                 2.0313                 2.2943
 Frc consts  --      1.2052                 1.6637                 1.8954
 IR Inten    --     37.8936                16.9076                18.2396

                     49                     50                     51
                      A                      A                      A
 Frequencies --   1196.1285              1238.8621              1246.1562
 Red. masses --      2.2722                 1.6302                 1.5274
 Frc consts  --      1.9154                 1.4741                 1.3975
 IR Inten    --     25.2877                22.0115                 6.7913

                     52                     53                     54
                      A                      A                      A
 Frequencies --   1291.3810              1301.2316              1316.5496
 Red. masses --      1.3198                 1.2301                 4.9450
 Frc consts  --      1.2968                 1.2271                 5.0500
 IR Inten    --     29.4559                14.0174               170.6181

                     55                     56                     57
                      A                      A                      A
 Frequencies --   1320.8927              1335.2058              1357.0931
 Red. masses --      1.2122                 1.7195                 1.3642
 Frc consts  --      1.2461                 1.8061                 1.4803
 IR Inten    --     12.9527                29.8566                11.9885

                     58                     59                     60
                      A                      A                      A
 Frequencies --   1375.9717              1395.7287              1401.3922
 Red. masses --      1.3843                 1.3686                 1.4360
 Frc consts  --      1.5442                 1.5708                 1.6616
 IR Inten    --     72.1625                30.8064                12.2958

                     61                     62                     63
                      A                      A                      A
 Frequencies --   1437.0723              1453.8706              1460.1128
 Red. masses --      1.4996                 1.4305                 1.4866
 Frc consts  --      1.8247                 1.7815                 1.8673
 IR Inten    --     75.2408                35.1942                33.6124

                     64                     65                     66
                      A                      A                      A
 Frequencies --   1489.0016              1490.8280              1494.2238
 Red. masses --      1.2285                 1.1749                 1.0838
 Frc consts  --      1.6048                 1.5385                 1.4257
 IR Inten    --      2.1229                 3.4077                 6.5505

                     67                     68                     69
                      A                      A                      A
 Frequencies --   1514.3220              1519.1116              1522.6181
 Red. masses --      1.0827                 1.0940                 1.1143
 Frc consts  --      1.4629                 1.4875                 1.5220
 IR Inten    --     14.3828                 8.4270                16.3240

                     70                     71                     72
                      A                      A                      A
 Frequencies --   1534.1284              1541.9993              1588.3967
 Red. masses --      1.0679                 1.0533                 1.2443
 Frc consts  --      1.4808                 1.4756                 1.8496
 IR Inten    --     18.4959                 5.5943                57.0856

                     73                     74                     75
                      A                      A                      A
 Frequencies --   1800.4099              3042.6691              3043.4610
 Red. masses --      6.1928                 1.0463                 1.0563
 Frc consts  --     11.8272                 5.7069                 5.7647
 IR Inten    --    359.5679                15.8890                37.9638

                     76                     77                     78
                      A                      A                      A
 Frequencies --   3063.7716              3085.8551              3086.9241
 Red. masses --      1.0744                 1.0940                 1.0637
 Frc consts  --      5.9419                 6.1379                 5.9719
 IR Inten    --     22.9280                21.1308                14.1893

                     79                     80                     81
                      A                      A                      A
 Frequencies --   3101.8267              3111.6060              3112.0397
 Red. masses --      1.0631                 1.0995                 1.0758
 Frc consts  --      6.0264                 6.2722                 6.1389
 IR Inten    --      2.5747                50.0427                10.5078

                     82                     83                     84
                      A                      A                      A
 Frequencies --   3114.2212              3123.2478              3139.1840
 Red. masses --      1.0656                 1.1024                 1.1041
 Frc consts  --      6.0891                 6.3361                 6.4107
 IR Inten    --      2.2948                34.3650                 7.1561

                     85                     86                     87
                      A                      A                      A
 Frequencies --   3154.2950              3166.8495              3177.1304
 Red. masses --      1.0954                 1.1070                 1.1095
 Frc consts  --      6.4211                 6.5413                 6.5984
 IR Inten    --      9.5005                 1.0994                 1.3109

                     88                     89                     90
                      A                      A                      A
 Frequencies --   3486.4490              3507.8472              3585.5419
 Red. masses --      1.0748                 1.0751                 1.0751
 Frc consts  --      7.6975                 7.7942                 8.1435
 IR Inten    --      6.0017                18.0373                19.7583

 - Thermochemistry -
 -------------------
 Temperature   298.150 Kelvin.  Pressure   1.00000 Atm.
 Atom     1 has atomic number  6 and mass  12.00000

 Molecular mass:   235.09906 amu.
 Principal axes and moments of inertia in atomic units:
                           1         2         3
     Eigenvalues --  1498.747507242.379817552.23906
           X            0.99987  -0.00699   0.01451
           Y            0.00671   0.99979   0.01911
           Z           -0.01464  -0.01901   0.99971
 This molecule is an asymmetric top.
 Rotational symmetry number  1.
 Warning -- assumption of classical behavior for rotation
           may cause significant error
 Rotational temperatures (Kelvin)      0.05779     0.01196     0.01147
 Rotational constants (GHZ):           1.20417     0.24919     0.23897
 Zero-point vibrational energy     713902.2 (Joules/Mol)
                                  170.62673 (Kcal/Mol)
 Warning -- explicit consideration of  23 degrees of freedom as
           vibrations may cause significant error
 Vibrational temperatures:     26.10    34.32    55.82    89.91    93.06
          (Kelvin)            120.04   151.51   206.36   280.69   356.53
                              381.22   414.19   446.25   490.07   512.52
                              532.32   566.70   597.94   680.32   699.15
                              772.38   830.93   867.63   935.00   978.81
                             1007.13  1034.82  1106.56  1124.84  1150.69
                             1188.54  1194.07  1250.67  1263.77  1308.27
                             1340.01  1346.16  1375.18  1444.69  1473.57
                             1497.31  1560.88  1579.81  1583.09  1637.41
                             1642.98  1696.37  1703.70  1720.96  1782.45
                             1792.94  1858.01  1872.18  1894.22  1900.47
                             1921.06  1952.55  1979.72  2008.14  2016.29
                             2067.63  2091.80  2100.78  2142.34  2144.97
                             2149.85  2178.77  2185.66  2190.71  2207.27
                             2218.59  2285.35  2590.39  4377.72  4378.86
                             4408.08  4439.86  4441.40  4462.84  4476.91
                             4477.53  4480.67  4493.66  4516.59  4538.33
                             4556.39  4571.18  5016.22  5047.01  5158.80

 Zero-point correction=                           0.271911 (Hartree/Particle)
 Thermal correction to Energy=                    0.287830
 Thermal correction to Enthalpy=                  0.288774
 Thermal correction to Gibbs Free Energy=         0.225600
 Sum of electronic and zero-point Energies=          -1102.916812
 Sum of electronic and thermal Energies=             -1102.900893
 Sum of electronic and thermal Enthalpies=           -1102.899949
 Sum of electronic and thermal Free Energies=        -1102.963123

                     E (Thermal)             CV                S
                      KCal/Mol        Cal/Mol-Kelvin    Cal/Mol-Kelvin
 Total                  180.616             58.905            132.961
 Electronic               0.000              0.000              0.000
 Translational            0.889              2.981             42.266
 Rotational               0.889              2.981             32.772
 Vibrational            178.839             52.943             57.923
 Vibration     1          0.593              1.986              6.828
 Vibration     2          0.593              1.985              6.284
 Vibration     3          0.594              1.981              5.320
 Vibration     4          0.597              1.972              4.377
 Vibration     5          0.597              1.971              4.309
 Vibration     6          0.600              1.961              3.809
 Vibration     7          0.605              1.945              3.354
 Vibration     8          0.616              1.910              2.758
 Vibration     9          0.636              1.847              2.179
 Vibration    10          0.661              1.766              1.746
 Vibration    11          0.671              1.737              1.629
 Vibration    12          0.685              1.696              1.486
 Vibration    13          0.699              1.654              1.361
 Vibration    14          0.720              1.594              1.209
 Vibration    15          0.732              1.562              1.139
 Vibration    16          0.742              1.534              1.080
 Vibration    17          0.761              1.483              0.985
 Vibration    18          0.779              1.436              0.907
 Vibration    19          0.830              1.310              0.730
 Vibration    20          0.842              1.281              0.694
 Vibration    21          0.892              1.169              0.572
 Vibration    22          0.934              1.080              0.490
 Vibration    23          0.961              1.025              0.444

                           ! Non-Optimized Parameters !
 Normal termination of Gaussian 16 at Thu Dec 10 17:00:37 2020.

 ----------------------------------------------------------------------
 # B3LYP/6-311++G(d,p) empiricaldispersion=gd3bj scf=xqc pop=npa geom=c
 heck
 ----------------------------------------------------------------------

 ---------------------------------------
 CID_137821336_JID_5594_Energie_neutraal
 ---------------------------------------
 Structure from the checkpoint file:  "JID_5594.chk"
 Charge =  0 Multiplicity = 1

 SCF Done:  E(RB3LYP) =  -1103.43139726     A.U. after   15 cycles
 Normal termination of Gaussian 16 at Thu Dec 10 17:08:09 2020.

 ----------------------------------------------------------------------
 # B3LYP/6-311++G(d,p) empiricaldispersion=gd3bj scf=xqc pop=npa geom=c
 heck
 ----------------------------------------------------------------------

 -------------------------------------
 CID_137821336_JID_5594_Energie_kation
 -------------------------------------
 Structure from the checkpoint file:  "JID_5594.chk"
 Charge =  1 Multiplicity = 2

 SCF Done:  E(UB3LYP) =  -1103.10092617     A.U. after   28 cycles
 Normal termination of Gaussian 16 at Thu Dec 10 17:25:42 2020.
 Gaussian 16:  ES64L-G16RevA.03 25-Dec-2016

 ----------------------------------------------------------------------
 # B3LYP/6-311++G(d,p) empiricaldispersion=gd3bj scf=xqc pop=npa geom=c
 heck
 ----------------------------------------------------------------------

 ------------------------------------
 CID_137821336_JID_5594_Energie_anion
 ------------------------------------
 Structure from the checkpoint file:  "JID_5594.chk"
 Charge = -1 Multiplicity = 2

                         Standard orientation:
 ---------------------------------------------------------------------
 Center     Atomic      Atomic             Coordinates (Angstroms)
 Number     Number       Type             X           Y           Z
 ---------------------------------------------------------------------
      1          6           0       -5.008597    0.392034   -0.868070
      2          6           0       -3.676181    1.144505   -0.901959
      3          6           0       -2.950628    1.165239    0.449744
      4          7           0       -2.678778   -0.169226    1.006100
      5          6           0       -2.009695   -1.177091    0.339058
      6          8           0       -2.319905   -2.358513    0.443880
      7          7           0       -0.933523   -0.808869   -0.472954
      8          7           0       -0.144191    0.305747   -0.126932
      9          6           0        0.807579    0.045052    0.962676
     10          6           0        1.567136    1.347293    1.313819
     11          6           0        2.760036    1.535415    0.355008
     12         16           0        3.040582   -0.099531   -0.440901
     13          8           0        4.429177   -0.548325   -0.282014
     14          8           0        2.406894   -0.052424   -1.776097
     15          6           0        1.894380   -1.000161    0.648725
     16          1           0       -4.859990   -0.665498   -0.623467
     17          1           0       -5.511845    0.437114   -1.839555
     18          1           0       -5.688649    0.820710   -0.120505
     19          1           0       -3.012970    0.692573   -1.649381
     20          1           0       -3.838451    2.185075   -1.213940
     21          1           0       -2.004731    1.699744    0.360842
     22          1           0       -3.563227    1.683002    1.196987
     23          1           0       -3.469631   -0.585607    1.483510
     24          1           0       -0.435688   -1.644355   -0.777793
     25          1           0        0.338744    0.596790   -0.974831
     26          1           0        0.212356   -0.281329    1.819461
     27          1           0        1.935007    1.266356    2.340870
     28          1           0        0.880425    2.195833    1.269049
     29          1           0        3.684472    1.821130    0.858968
     30          1           0        2.561155    2.230811   -0.462896
     31          1           0        1.544044   -1.887904    0.118371
     32          1           0        2.441599   -1.305121    1.545059
 ---------------------------------------------------------------------

 SCF Done:  E(UB3LYP) =  -1103.42680615     A.U. after   32 cycles

 The electronic state is 2-A.
 Alpha  occ. eigenvalues --  -88.95759 -19.03296 -19.03129 -18.99828 -14.26945
 Alpha  occ. eigenvalues --  -14.25749 -14.24027 -10.20686 -10.13873 -10.12543
 Alpha  occ. eigenvalues --  -10.12265 -10.10894 -10.10016 -10.08079 -10.07618
 Alpha  occ. eigenvalues --   -8.02314  -5.98582  -5.98445  -5.98406  -1.02211
 Alpha  occ. eigenvalues --   -0.96856  -0.92100  -0.90385  -0.83012  -0.77841
 Alpha  occ. eigenvalues --   -0.71217  -0.68991  -0.66968  -0.62443  -0.60243
 Alpha  occ. eigenvalues --   -0.53604  -0.52122  -0.50988  -0.49474  -0.46376
 Alpha  occ. eigenvalues --   -0.43616  -0.40846  -0.40695  -0.40314  -0.39269
 Alpha  occ. eigenvalues --   -0.37790  -0.36870  -0.36506  -0.35436  -0.34943
 Alpha  occ. eigenvalues --   -0.33909  -0.33280  -0.32338  -0.30985  -0.30291
 Alpha  occ. eigenvalues --   -0.29468  -0.28464  -0.27193  -0.26342  -0.25449
 Alpha  occ. eigenvalues --   -0.24442  -0.23656  -0.22333  -0.20822  -0.19597
 Alpha  occ. eigenvalues --   -0.18203  -0.16604  -0.16400   0.03734
 Alpha virt. eigenvalues --    0.05675   0.07001   0.07424   0.08144   0.08301
 Alpha virt. eigenvalues --    0.09090   0.09763   0.10020   0.10554   0.10934
 Alpha virt. eigenvalues --    0.11465   0.11845   0.11992   0.12488   0.12821

  Beta  occ. eigenvalues --  -88.95759 -19.03293 -19.03124 -18.99825 -14.26938
  Beta  occ. eigenvalues --  -14.25738 -14.24018 -10.20687 -10.13859 -10.12511
  Beta  occ. eigenvalues --  -10.12235 -10.10872 -10.09957 -10.08068 -10.07601
  Beta  occ. eigenvalues --   -8.02314  -5.98581  -5.98445  -5.98407  -1.02203
  Beta  occ. eigenvalues --   -0.96848  -0.92091  -0.90372  -0.82993  -0.77796
  Beta  occ. eigenvalues --   -0.71182  -0.68964  -0.66900  -0.62382  -0.60200
  Beta  occ. eigenvalues --   -0.53567  -0.52054  -0.50931  -0.49434  -0.46331
  Beta  occ. eigenvalues --   -0.43583  -0.40799  -0.40673  -0.40276  -0.39235
  Beta  occ. eigenvalues --   -0.37758  -0.36840  -0.36465  -0.35400  -0.34913
  Beta  occ. eigenvalues --   -0.33871  -0.33256  -0.32321  -0.30948  -0.30228
  Beta  occ. eigenvalues --   -0.29410  -0.28399  -0.27166  -0.26314  -0.25421
  Beta  occ. eigenvalues --   -0.24417  -0.23647  -0.22318  -0.20800  -0.19577
  Beta  occ. eigenvalues --   -0.18188  -0.16589  -0.16386
  Beta virt. eigenvalues --    0.05983   0.06873   0.07571   0.07906   0.08636
  Beta virt. eigenvalues --    0.08729   0.09543   0.09938   0.10476   0.10796
  Beta virt. eigenvalues --    0.11143   0.11729   0.12050   0.12335   0.12636

 Mulliken charges and spin densities:
               1          2
     1  C   -0.041123  -0.584948
     2  C   -0.329779   0.232621
     3  C    0.389949  -0.687083
     4  N   -0.316043   0.112030
     5  C    0.299172  -0.386385
     6  O   -0.340771   0.026834
     7  N   -0.259707  -0.005890
     8  N    0.279386  -0.242220
     9  C   -1.784972   1.843789
    10  C    2.189444  -2.471795
    11  C   -0.568345  -0.161642
    12  S    0.801512  -0.283832
    13  O   -0.080370   0.000306
    14  O   -0.291650   0.005109
    15  C   -0.000629  -0.984688
    16  H    0.102869   0.078257
    17  H   -0.053421   0.179516
    18  H    0.034195   0.101268
    19  H    0.136205  -0.000926
    20  H   -0.280399   0.434971
    21  H    0.360790  -0.186038
    22  H   -0.527860   0.705798
    23  H    0.220259   0.112720
    24  H    0.272658   0.018493
    25  H    0.274522  -0.006243
    26  H   -0.332305   0.628436
    27  H   -0.601425   0.820164
    28  H   -0.495332   0.692046
    29  H   -0.060650   0.307413
    30  H    0.017803   0.210204
    31  H    0.226630  -0.007885
    32  H   -0.240613   0.499602
 Sum of Mulliken charges =  -1.00000   1.00000

 Dipole moment (field-independent basis, Debye):
    X=             -1.3821    Y=             -1.7131    Z=             -4.2325  Tot=              4.7707
 Quadrupole moment (field-independent basis, Debye-Ang):
   XX=           -183.0606   YY=           -142.1398   ZZ=           -144.3929
   XY=              1.3068   XZ=             -4.0689   YZ=             -5.8281

 Summary of Natural Population Analysis:

                                       Natural Population
                Natural  -----------------------------------------------
    Atom  No    Charge         Core      Valence    Rydberg      Total
 -----------------------------------------------------------------------
      C    1   -0.29145      0.99967     2.28633    0.00545     3.29145
      C    2   -0.19999      0.99964     2.19301    0.00735     3.19999
      C    3   -0.09141      0.99960     2.08010    0.01170     3.09141
      N    4   -0.32963      0.99968     2.81919    0.01076     3.82963
      C    5    0.40142      0.99970     1.57435    0.02452     2.59858
      O    6   -0.33570      0.99988     3.33055    0.00528     4.33570
      N    7   -0.24638      0.99968     2.73527    0.01143     3.74638
      N    8   -0.24923      0.99972     2.73563    0.01388     3.74923
      C    9   -0.02605      0.99959     2.01090    0.01557     3.02605
      C   10   -0.20378      0.99961     2.19246    0.01172     3.20378
      C   11   -0.28617      0.99960     2.27581    0.01076     3.28617
      S   12    1.00929      4.99929     1.89831    0.09311     6.99071
      O   13   -0.45965      0.99991     3.45414    0.00561     4.45965
      O   14   -0.47847      0.99991     3.47291    0.00565     4.47847
      C   15   -0.29869      0.99957     2.28587    0.01324     3.29869
      H   16    0.10017      0.00000     0.39892    0.00091     0.39983
      H   17    0.09868      0.00000     0.40066    0.00066     0.40132
      H   18    0.09557      0.00000     0.40347    0.00097     0.40443
      H   19    0.09862      0.00000     0.40009    0.00129     0.40138
      H   20    0.09821      0.00000     0.40064    0.00115     0.40179
      H   21    0.11100      0.00000     0.38708    0.00192     0.38900
      H   22    0.09484      0.00000     0.40374    0.00142     0.40516
      H   23    0.19227      0.00000     0.30570    0.00204     0.30773
      H   24    0.18139      0.00000     0.31624    0.00238     0.31861
      H   25    0.18707      0.00000     0.31039    0.00254     0.31293
      H   26    0.11432      0.00000     0.38327    0.00241     0.38568
      H   27    0.11731      0.00000     0.37443    0.00826     0.38269
      H   28    0.11717      0.00000     0.38022    0.00261     0.38283
      H   29    0.12191      0.00000     0.37644    0.00165     0.37809
      H   30    0.11620      0.00000     0.38259    0.00121     0.38380
      H   31    0.11632      0.00000     0.38245    0.00123     0.38368
      H   32    0.12486      0.00000     0.37359    0.00155     0.37514
 =======================================================================
   * Total *   -0.00000     18.99504    43.72474    0.28022    63.00000

 Normal termination of Gaussian 16 at Thu Dec 10 17:42:28 2020.
