 Gaussian 16, Revision A.03,

 -----------------------------------------------------------
 # opt freq B3LYP/6-31G(d) empiricaldispersion=gd3bj scf=xqc
 -----------------------------------------------------------

 ------------------------------
 CID_20232712_JID_2199_neutraal
 ------------------------------
 Symbolic Z-matrix:
 Charge =  0 Multiplicity = 1

 SCF Done:  E(RB3LYP) =  -1344.12105421     A.U. after   26 cycles
 SCF Done:  E(RB3LYP) =  -1344.14755595     A.U. after   32 cycles
 SCF Done:  E(RB3LYP) =  -1344.15250261     A.U. after   27 cycles
 SCF Done:  E(RB3LYP) =  -1344.15581532     A.U. after   19 cycles
 SCF Done:  E(RB3LYP) =  -1344.16138495     A.U. after   25 cycles
 SCF Done:  E(RB3LYP) =  -1344.16530231     A.U. after   24 cycles
 SCF Done:  E(RB3LYP) =  -1344.16903930     A.U. after   24 cycles
 SCF Done:  E(RB3LYP) =  -1344.16952375     A.U. after   16 cycles
 SCF Done:  E(RB3LYP) =  -1344.16958600     A.U. after   14 cycles
 SCF Done:  E(RB3LYP) =  -1344.16961361     A.U. after   15 cycles
 SCF Done:  E(RB3LYP) =  -1344.16961986     A.U. after   12 cycles
 SCF Done:  E(RB3LYP) =  -1344.16962217     A.U. after   12 cycles
 SCF Done:  E(RB3LYP) =  -1344.16962244     A.U. after   10 cycles
 Optimization completed.
    -- Stationary point found.
 Normal termination of Gaussian 16 at Wed Dec  9 16:51:51 2020.

 --------------------------------------------------------------------
 #N Geom=AllCheck Guess=TCheck SCRF=Check GenChk RB3LYP/6-31G(d) Freq
 --------------------------------------------------------------------

 Structure from the checkpoint file:  "JID_2199.chk"
 ------------------------------
 CID_20232712_JID_2199_neutraal
 ------------------------------
 Charge =  0 Multiplicity = 1

 SCF Done:  E(RB3LYP) =  -1344.16962244     A.U. after    1 cycles

  Exact polarizability: 353.947   0.869 103.267   0.371   0.587  46.039
 Approx polarizability:2916.096  -1.262 231.349   4.883  -0.313  77.630

                      1                      2                      3
                      A                      A                      A
 Frequencies --     59.9152                67.1339                98.9872
 Red. masses --     11.2010                14.9432                 7.3885
 Frc consts  --      0.0237                 0.0397                 0.0427
 IR Inten    --      5.3729                 0.9593                 3.4138

                      4                      5                      6
                      A                      A                      A
 Frequencies --    126.0301               196.3347               203.6166
 Red. masses --     10.3548                10.0325                 9.7446
 Frc consts  --      0.0969                 0.2279                 0.2380
 IR Inten    --      3.1027                 1.2862                37.0156

                      7                      8                      9
                      A                      A                      A
 Frequencies --    225.5918               278.5720               338.3749
 Red. masses --     17.5096                13.9924                11.3348
 Frc consts  --      0.5250                 0.6398                 0.7646
 IR Inten    --      0.0644                21.1514               534.6753

                     10                     11                     12
                      A                      A                      A
 Frequencies --    358.7364               380.5452               411.3678
 Red. masses --     13.1878                10.5358                 4.0049
 Frc consts  --      0.9999                 0.8989                 0.3993
 IR Inten    --      1.4397                37.8075                 5.9062

                     13                     14                     15
                      A                      A                      A
 Frequencies --    429.1235               478.4274               486.8742
 Red. masses --      5.8299                17.6210                 4.0353
 Frc consts  --      0.6325                 2.3764                 0.5636
 IR Inten    --      3.6177                12.3583                20.3244

                     16                     17                     18
                      A                      A                      A
 Frequencies --    545.1725               625.1642               724.8686
 Red. masses --     13.6005                 8.4464                 5.7422
 Frc consts  --      2.3816                 1.9450                 1.7776
 IR Inten    --     14.6331                 4.8546                11.7412

                     19                     20                     21
                      A                      A                      A
 Frequencies --    758.0540               852.5507               965.8584
 Red. masses --      7.9672                 1.3408                 1.3831
 Frc consts  --      2.6975                 0.5742                 0.7602
 IR Inten    --      0.2746                20.3658                 3.3459

                     22                     23                     24
                      A                      A                      A
 Frequencies --   1006.7339              1010.4728              1030.4111
 Red. masses --      2.2735                 2.0427                 4.2008
 Frc consts  --      1.3576                 1.2289                 2.6279
 IR Inten    --     88.6378                57.7406               224.5673

                     25                     26                     27
                      A                      A                      A
 Frequencies --   1037.6293              1092.3784              1120.0249
 Red. masses --      9.7954                 7.6413                 4.3711
 Frc consts  --      6.2138                 5.3723                 3.2307
 IR Inten    --    454.3712                20.2133               258.5425

                     28                     29                     30
                      A                      A                      A
 Frequencies --   1178.2948              1253.8009              1281.6146
 Red. masses --      1.4165                13.5683                17.3340
 Frc consts  --      1.1587                12.5670                16.7750
 IR Inten    --     14.2619                89.0423                98.4523

                     31                     32                     33
                      A                      A                      A
 Frequencies --   1317.0760              1348.5077              1429.9867
 Red. masses --      2.0983                 2.5810                 2.7272
 Frc consts  --      2.1446                 2.7653                 3.2858
 IR Inten    --      5.0338                11.6461                11.6269

                     34                     35                     36
                      A                      A                      A
 Frequencies --   1484.6379              1536.8103              1604.3619
 Red. masses --      2.6772                 5.1648                 5.3464
 Frc consts  --      3.4767                 7.1869                 8.1081
 IR Inten    --      8.1416                18.2876                 7.0489

                     37                     38                     39
                      A                      A                      A
 Frequencies --   3213.6232              3227.6613              3245.0422
 Red. masses --      1.0919                 1.0899                 1.0953
 Frc consts  --      6.6437                 6.6901                 6.7957
 IR Inten    --      0.2018                 0.6533                 1.5079

 - Thermochemistry -
 -------------------
 Temperature   298.150 Kelvin.  Pressure   1.00000 Atm.
 Atom     1 has atomic number  6 and mass  12.00000

 Molecular mass:   204.95035 amu.
 Principal axes and moments of inertia in atomic units:
                           1         2         3
     Eigenvalues --   726.472665503.793606188.37727
           X            1.00000   0.00178   0.00009
           Y           -0.00178   0.99999   0.00306
           Z           -0.00009  -0.00306   1.00000
 This molecule is an asymmetric top.
 Rotational symmetry number  1.
 Warning -- assumption of classical behavior for rotation
           may cause significant error
 Rotational temperatures (Kelvin)      0.11923     0.01574     0.01400
 Rotational constants (GHZ):           2.48425     0.32791     0.29163
 Zero-point vibrational energy     221490.8 (Joules/Mol)
                                   52.93757 (Kcal/Mol)
 Warning -- explicit consideration of  16 degrees of freedom as
           vibrations may cause significant error
 Vibrational temperatures:     86.20    96.59   142.42   181.33   282.48
          (Kelvin)            292.96   324.58   400.80   486.85   516.14
                              547.52   591.87   617.41   688.35   700.50
                              784.38   899.47  1042.92  1090.67  1226.63
                             1389.65  1448.47  1453.84  1482.53  1492.92
                             1571.69  1611.47  1695.30  1803.94  1843.96
                             1894.98  1940.20  2057.43  2136.06  2211.13
                             2308.32  4623.69  4643.88  4668.89

 Zero-point correction=                           0.084361 (Hartree/Particle)
 Thermal correction to Energy=                    0.095339
 Thermal correction to Enthalpy=                  0.096283
 Thermal correction to Gibbs Free Energy=         0.046233
 Sum of electronic and zero-point Energies=          -1344.085261
 Sum of electronic and thermal Energies=             -1344.074284
 Sum of electronic and thermal Enthalpies=           -1344.073340
 Sum of electronic and thermal Free Energies=        -1344.123390

                     E (Thermal)             CV                S
                      KCal/Mol        Cal/Mol-Kelvin    Cal/Mol-Kelvin
 Total                   59.826             38.768            105.339
 Electronic               0.000              0.000              0.000
 Translational            0.889              2.981             41.857
 Rotational               0.889              2.981             31.582
 Vibrational             58.049             32.806             31.901
 Vibration     1          0.597              1.973              4.460
 Vibration     2          0.598              1.970              4.236
 Vibration     3          0.604              1.950              3.474
 Vibration     4          0.611              1.927              3.006
 Vibration     5          0.636              1.845              2.167
 Vibration     6          0.639              1.835              2.100
 Vibration     7          0.650              1.802              1.914
 Vibration     8          0.679              1.713              1.542
 Vibration     9          0.719              1.599              1.220
 Vibration    10          0.734              1.557              1.128
 Vibration    11          0.750              1.512              1.037
 Vibration    12          0.775              1.446              0.922
 Vibration    13          0.790              1.407              0.862
 Vibration    14          0.835              1.298              0.714
 Vibration    15          0.843              1.279              0.692
 Vibration    16          0.900              1.150              0.554

 Optimization completed.
    -- Stationary point found.
 Normal termination of Gaussian 16 at Wed Dec  9 16:54:39 2020.

 ----------------------------------------------------------------------
 # B3LYP/6-311++G(d,p) empiricaldispersion=gd3bj scf=xqc pop=npa geom=c
 heck
 ----------------------------------------------------------------------

 --------------------------------------
 CID_20232712_JID_2199_Energie_neutraal
 --------------------------------------
 Structure from the checkpoint file:  "JID_2199.chk"
 Charge =  0 Multiplicity = 1

 SCF Done:  E(RB3LYP) =  -1344.37809692     A.U. after   25 cycles
 Normal termination of Gaussian 16 at Wed Dec  9 16:56:39 2020.

 ----------------------------------------------------------------------
 # B3LYP/6-311++G(d,p) empiricaldispersion=gd3bj scf=xqc pop=npa geom=c
 heck
 ----------------------------------------------------------------------

 ------------------------------------
 CID_20232712_JID_2199_Energie_kation
 ------------------------------------
 Structure from the checkpoint file:  "JID_2199.chk"
 Charge =  1 Multiplicity = 2

 SCF Done:  E(UB3LYP) =  -1344.06837765     A.U. after   28 cycles
 Normal termination of Gaussian 16 at Wed Dec  9 16:59:49 2020.
 Gaussian 16:  ES64L-G16RevA.03 25-Dec-2016

 ----------------------------------------------------------------------
 # B3LYP/6-311++G(d,p) empiricaldispersion=gd3bj scf=xqc pop=npa geom=c
 heck
 ----------------------------------------------------------------------

 -----------------------------------
 CID_20232712_JID_2199_Energie_anion
 -----------------------------------
 Structure from the checkpoint file:  "JID_2199.chk"
 Charge = -1 Multiplicity = 2

                         Standard orientation:
 ---------------------------------------------------------------------
 Center     Atomic      Atomic             Coordinates (Angstroms)
 Number     Number       Type             X           Y           Z
 ---------------------------------------------------------------------
      1          6           0       -0.687410    1.271766    0.005619
      2          6           0        0.688131    1.265015   -0.025142
      3          6           0        1.326262    0.003009   -0.006689
      4         16           0        3.078811   -0.053442   -0.163004
      5          8           0        3.655944    1.280799    0.118809
      6          8           0        3.670297   -1.316026    0.315738
      7          7           0        0.708211   -1.186038   -0.118523
      8          6           0       -0.608205   -1.174170   -0.109920
      9          6           0       -1.355577    0.027134    0.025061
     10         16           0       -3.086987   -0.029974   -0.185897
     11          8           0       -3.622450   -1.346705    0.238521
     12          8           0       -3.691649    1.262567    0.221701
     13          1           0       -1.258640    2.191401    0.076130
     14          1           0        1.278074    2.172774    0.022279
     15          1           0       -1.122444   -2.128850   -0.178055
 ---------------------------------------------------------------------

 SCF Done:  E(UB3LYP) =  -1344.52359851     A.U. after   24 cycles

 The electronic state is 2-A.
 Alpha  occ. eigenvalues --  -88.88271 -88.87062 -19.00649 -19.00637 -18.99207
 Alpha  occ. eigenvalues --  -18.99132 -14.22584 -10.13700 -10.12226 -10.10809
 Alpha  occ. eigenvalues --  -10.10146 -10.09881  -7.95466  -7.94222  -5.91726
 Alpha  occ. eigenvalues --   -5.91582  -5.91417  -5.90497  -5.90387  -5.90070
 Alpha  occ. eigenvalues --   -0.98090  -0.96525  -0.89023  -0.87462  -0.86416
 Alpha  occ. eigenvalues --   -0.72548  -0.69356  -0.60355  -0.54879  -0.51666
 Alpha  occ. eigenvalues --   -0.48525  -0.41988  -0.40675  -0.37776  -0.35918
 Alpha  occ. eigenvalues --   -0.35329  -0.33794  -0.33578  -0.32450  -0.32387
 Alpha  occ. eigenvalues --   -0.30341  -0.30028  -0.22362  -0.22185  -0.21509
 Alpha  occ. eigenvalues --   -0.20743  -0.20452  -0.19932  -0.18723  -0.18280
 Alpha  occ. eigenvalues --   -0.17499  -0.10013  -0.08236
 Alpha virt. eigenvalues --    0.04315   0.05995   0.09331   0.10915   0.11344
 Alpha virt. eigenvalues --    0.13230   0.13535   0.14263   0.14625   0.15320
 Alpha virt. eigenvalues --    0.16606   0.17025   0.17212   0.17838   0.18092

  Beta  occ. eigenvalues --  -88.88083 -88.86921 -19.00207 -19.00159 -18.98866
  Beta  occ. eigenvalues --  -18.98799 -14.22574 -10.13655 -10.12214 -10.10736
  Beta  occ. eigenvalues --  -10.10185 -10.09841  -7.95280  -7.94081  -5.91625
  Beta  occ. eigenvalues --   -5.91471  -5.90896  -5.90421  -5.90303  -5.89687
  Beta  occ. eigenvalues --   -0.97249  -0.95891  -0.88013  -0.86702  -0.86343
  Beta  occ. eigenvalues --   -0.72487  -0.69131  -0.59864  -0.54753  -0.50807
  Beta  occ. eigenvalues --   -0.48174  -0.41496  -0.40332  -0.37109  -0.35674
  Beta  occ. eigenvalues --   -0.34345  -0.33176  -0.32385  -0.32017  -0.31781
  Beta  occ. eigenvalues --   -0.30029  -0.29376  -0.21893  -0.21205  -0.20674
  Beta  occ. eigenvalues --   -0.19835  -0.19461  -0.19138  -0.18378  -0.18135
  Beta  occ. eigenvalues --   -0.17268  -0.06222
  Beta virt. eigenvalues --   -0.01431   0.04907   0.06191   0.09444   0.10973
  Beta virt. eigenvalues --    0.11419   0.13297   0.13615   0.14291   0.14685
  Beta virt. eigenvalues --    0.15418   0.16687   0.17075   0.17389   0.17861

 Mulliken charges and spin densities:
               1          2
     1  C   -0.492428  -0.085892
     2  C    0.550140  -0.007262
     3  C   -1.264750   0.085962
     4  S    0.665955   0.237564
     5  O   -0.359713   0.124701
     6  O   -0.323690   0.134660
     7  N    0.065577   0.004920
     8  C   -0.126290   0.029798
     9  C   -0.275591   0.132420
    10  S    0.570862   0.153559
    11  O   -0.367162   0.091505
    12  O   -0.379952   0.089371
    13  H    0.236643   0.004890
    14  H    0.260147   0.001842
    15  H    0.240252   0.001965
 Sum of Mulliken charges =  -1.00000   1.00000

 Dipole moment (field-independent basis, Debye):
    X=              0.4164    Y=              1.7766    Z=             -1.5600  Tot=              2.4007
 Quadrupole moment (field-independent basis, Debye-Ang):
   XX=           -163.4277   YY=            -97.7704   ZZ=            -85.9840
   XY=              2.1496   XZ=              0.5925   YZ=              0.7484

 Summary of Natural Population Analysis:

                                       Natural Population
                Natural  -----------------------------------------------
    Atom  No    Charge         Core      Valence    Rydberg      Total
 -----------------------------------------------------------------------
      C    1   -0.10622      0.99951     2.09523    0.01148     3.10622
      C    2   -0.10718      0.99950     2.09714    0.01054     3.10718
      C    3   -0.05469      0.99945     2.03451    0.02072     3.05469
      S    4    0.97341      4.99918     1.93996    0.08745     7.02659
      O    5   -0.39323      0.99992     3.38613    0.00718     4.39323
      O    6   -0.36857      0.99992     3.36140    0.00725     4.36857
      N    7   -0.22559      0.99966     2.71295    0.01298     3.72559
      C    8    0.03683      0.99954     1.94776    0.01587     2.96317
      C    9   -0.17536      0.99943     2.15940    0.01653     3.17536
      S   10    0.92200      4.99918     1.98620    0.09261     7.07800
      O   11   -0.41757      0.99992     3.41041    0.00724     4.41757
      O   12   -0.41865      0.99992     3.41138    0.00735     4.41865
      H   13    0.11496      0.00000     0.38337    0.00168     0.38504
      H   14    0.11723      0.00000     0.38137    0.00140     0.38277
      H   15    0.10263      0.00000     0.39560    0.00177     0.39737
 =======================================================================
   * Total *    0.00000     19.99514    31.70281    0.30205    52.00000

 Normal termination of Gaussian 16 at Wed Dec  9 17:02:32 2020.
