 Gaussian 16, Revision A.03,

 -----------------------------------------------------------
 # opt freq B3LYP/6-31G(d) empiricaldispersion=gd3bj scf=xqc
 -----------------------------------------------------------

 ------------------------------
 CID_81919773_JID_7712_neutraal
 ------------------------------
 Symbolic Z-matrix:
 Charge =  0 Multiplicity = 1

 SCF Done:  E(RB3LYP) =  -789.745213765     A.U. after   15 cycles
 SCF Done:  E(RB3LYP) =  -789.746146402     A.U. after   13 cycles
 SCF Done:  E(RB3LYP) =  -789.740212894     A.U. after   14 cycles
 SCF Done:  E(RB3LYP) =  -789.748241843     A.U. after   12 cycles
 SCF Done:  E(RB3LYP) =  -789.749693910     A.U. after   15 cycles
 SCF Done:  E(RB3LYP) =  -789.751128563     A.U. after   12 cycles
 SCF Done:  E(RB3LYP) =  -789.751365410     A.U. after   12 cycles
 SCF Done:  E(RB3LYP) =  -789.752630305     A.U. after   12 cycles
 SCF Done:  E(RB3LYP) =  -789.753338845     A.U. after   12 cycles
 SCF Done:  E(RB3LYP) =  -789.753402465     A.U. after   12 cycles
 SCF Done:  E(RB3LYP) =  -789.753521055     A.U. after    8 cycles
 SCF Done:  E(RB3LYP) =  -789.753521344     A.U. after    8 cycles
 SCF Done:  E(RB3LYP) =  -789.753521447     A.U. after    7 cycles
 SCF Done:  E(RB3LYP) =  -789.753521493     A.U. after    6 cycles
 SCF Done:  E(RB3LYP) =  -789.753521526     A.U. after    6 cycles
 Optimization completed.
    -- Stationary point found.
 Normal termination of Gaussian 16 at Fri Dec 11 13:17:53 2020.

 --------------------------------------------------------------------
 #N Geom=AllCheck Guess=TCheck SCRF=Check GenChk RB3LYP/6-31G(d) Freq
 --------------------------------------------------------------------

 Structure from the checkpoint file:  "JID_7712.chk"
 ------------------------------
 CID_81919773_JID_7712_neutraal
 ------------------------------
 Charge =  0 Multiplicity = 1

 SCF Done:  E(RB3LYP) =  -789.753521526     A.U. after    1 cycles

  Exact polarizability: 154.849   2.656 144.419   0.539   0.313 141.363
 Approx polarizability: 212.129  -7.996 204.740  -5.678   2.511 210.130

                      1                      2                      3
                      A                      A                      A
 Frequencies --     29.8036                39.6199                60.9093
 Red. masses --      4.7386                 3.3150                 4.3297
 Frc consts  --      0.0025                 0.0031                 0.0095
 IR Inten    --      1.1523                 0.7522                 0.3542

                      4                      5                      6
                      A                      A                      A
 Frequencies --     66.7447                89.9244               107.9014
 Red. masses --      2.6122                 2.8255                 3.0661
 Frc consts  --      0.0069                 0.0135                 0.0210
 IR Inten    --      0.2401                 0.9686                 0.0680

                      7                      8                      9
                      A                      A                      A
 Frequencies --    118.6570               133.5249               142.3884
 Red. masses --      4.5849                 3.5865                 3.8046
 Frc consts  --      0.0380                 0.0377                 0.0454
 IR Inten    --      0.6947                 1.1006                 1.4846

                     10                     11                     12
                      A                      A                      A
 Frequencies --    174.8201               182.7875               232.9514
 Red. masses --      3.0405                 2.3426                 1.6370
 Frc consts  --      0.0547                 0.0461                 0.0523
 IR Inten    --      1.6710                 0.4117                 0.2020

                     13                     14                     15
                      A                      A                      A
 Frequencies --    243.6713               262.6660               271.3788
 Red. masses --      1.2752                 1.4469                 1.7117
 Frc consts  --      0.0446                 0.0588                 0.0743
 IR Inten    --      0.0597                 3.2559                 0.3328

                     16                     17                     18
                      A                      A                      A
 Frequencies --    289.3939               295.2679               332.7862
 Red. masses --      3.0797                 3.0381                 2.6028
 Frc consts  --      0.1520                 0.1561                 0.1698
 IR Inten    --      4.4708                 6.4472                 2.9275

                     19                     20                     21
                      A                      A                      A
 Frequencies --    346.2059               379.0736               386.7954
 Red. masses --      4.8335                 2.6986                 3.2566
 Frc consts  --      0.3413                 0.2285                 0.2871
 IR Inten    --     15.1769                 0.9433                 2.9391

                     22                     23                     24
                      A                      A                      A
 Frequencies --    391.7906               420.5022               438.9523
 Red. masses --      2.0929                 3.1499                 2.3080
 Frc consts  --      0.1893                 0.3282                 0.2620
 IR Inten    --      1.9496                 2.1936                 0.1956

                     25                     26                     27
                      A                      A                      A
 Frequencies --    472.6629               502.8968               552.6961
 Red. masses --      3.6668                 2.3492                 2.3615
 Frc consts  --      0.4827                 0.3500                 0.4250
 IR Inten    --      1.2546                 2.8023                 0.6298

                     28                     29                     30
                      A                      A                      A
 Frequencies --    576.4428               626.4280               717.8928
 Red. masses --      3.9829                 1.4037                 2.7719
 Frc consts  --      0.7798                 0.3245                 0.8417
 IR Inten    --     13.3273                45.3965                 1.0580

                     31                     32                     33
                      A                      A                      A
 Frequencies --    756.0848               767.6909               798.7274
 Red. masses --      4.6487                 2.4410                 3.9903
 Frc consts  --      1.5658                 0.8476                 1.4999
 IR Inten    --     35.8523                13.5903                24.9655

                     34                     35                     36
                      A                      A                      A
 Frequencies --    821.5058               838.1778               863.2826
 Red. masses --      1.2027                 2.9876                 1.9447
 Frc consts  --      0.4782                 1.2367                 0.8539
 IR Inten    --      0.4193                13.5955                 5.0964

                     37                     38                     39
                      A                      A                      A
 Frequencies --    864.5566               883.5015               899.5832
 Red. masses --      2.9234                 2.9394                 2.7359
 Frc consts  --      1.2875                 1.3518                 1.3045
 IR Inten    --      9.6872                 2.0427                 0.9018

                     40                     41                     42
                      A                      A                      A
 Frequencies --    916.6856               931.2245               942.5912
 Red. masses --      2.7698                 1.5026                 1.1838
 Frc consts  --      1.3713                 0.7677                 0.6197
 IR Inten    --      6.6911                 6.0280                 1.7837

                     43                     44                     45
                      A                      A                      A
 Frequencies --    954.7277               981.5378              1014.5796
 Red. masses --      2.1472                 1.4561                 1.7200
 Frc consts  --      1.1532                 0.8265                 1.0432
 IR Inten    --      1.2143                 0.0779                 5.3382

                     46                     47                     48
                      A                      A                      A
 Frequencies --   1043.6418              1057.0375              1061.0253
 Red. masses --      2.5719                 2.6700                 1.8447
 Frc consts  --      1.6504                 1.7577                 1.2235
 IR Inten    --      3.3693                46.9753                 0.8876

                     49                     50                     51
                      A                      A                      A
 Frequencies --   1101.9166              1105.4322              1121.3956
 Red. masses --      2.1836                 1.9107                 1.8876
 Frc consts  --      1.5621                 1.3757                 1.3985
 IR Inten    --     23.6009                 5.7841                 1.4711

                     52                     53                     54
                      A                      A                      A
 Frequencies --   1148.3463              1153.0747              1171.4786
 Red. masses --      2.1325                 1.7512                 1.6664
 Frc consts  --      1.6568                 1.3718                 1.3474
 IR Inten    --     12.2748                 1.2761                20.2825

                     55                     56                     57
                      A                      A                      A
 Frequencies --   1188.0221              1192.5981              1205.9353
 Red. masses --      1.9465                 1.5875                 1.8043
 Frc consts  --      1.6186                 1.3303                 1.5460
 IR Inten    --     22.7967                 1.8370                 4.7830

                     58                     59                     60
                      A                      A                      A
 Frequencies --   1235.4533              1257.1626              1290.4201
 Red. masses --      4.9735                 1.8425                 1.3573
 Frc consts  --      4.4727                 1.7157                 1.3317
 IR Inten    --    402.3331                13.4240                 6.6527

                     61                     62                     63
                      A                      A                      A
 Frequencies --   1298.9080              1309.0234              1325.6297
 Red. masses --      1.2154                 1.1077                 1.3111
 Frc consts  --      1.2082                 1.1183                 1.3575
 IR Inten    --      4.6712                 1.2826                 0.8171

                     64                     65                     66
                      A                      A                      A
 Frequencies --   1351.5609              1371.3998              1378.2273
 Red. masses --      1.3517                 1.2702                 1.3426
 Frc consts  --      1.4548                 1.4075                 1.5026
 IR Inten    --      3.0779                 0.3676                 3.4908

                     67                     68                     69
                      A                      A                      A
 Frequencies --   1385.1855              1390.5377              1401.9878
 Red. masses --      1.6613                 1.4125                 1.4695
 Frc consts  --      1.8781                 1.6092                 1.7019
 IR Inten    --     65.4479                 2.9461                15.8036

                     70                     71                     72
                      A                      A                      A
 Frequencies --   1408.6721              1412.4104              1421.3499
 Red. masses --      1.3942                 1.3564                 1.4499
 Frc consts  --      1.6300                 1.5943                 1.7258
 IR Inten    --      5.5831                 2.3177                 9.7775

                     73                     74                     75
                      A                      A                      A
 Frequencies --   1422.3293              1429.7960              1448.3801
 Red. masses --      1.5247                 1.2713                 1.2304
 Frc consts  --      1.8174                 1.5313                 1.5208
 IR Inten    --     17.7926                 4.2614                 6.1191

                     76                     77                     78
                      A                      A                      A
 Frequencies --   1451.7541              1479.4323              1504.3331
 Red. masses --      1.3384                 1.5190                 1.1810
 Frc consts  --      1.6620                 1.9588                 1.5747
 IR Inten    --     12.1154                35.3127                16.1191

                     79                     80                     81
                      A                      A                      A
 Frequencies --   1515.7427              1517.4096              1518.1831
 Red. masses --      1.0451                 1.1050                 1.1579
 Frc consts  --      1.4146                 1.4990                 1.5725
 IR Inten    --      4.0098                 4.7334                 8.7775

                     82                     83                     84
                      A                      A                      A
 Frequencies --   1525.2212              1525.8485              1528.2889
 Red. masses --      1.1965                 1.0963                 1.1767
 Frc consts  --      1.6399                 1.5039                 1.6193
 IR Inten    --      3.6503                 0.7933                11.0728

                     85                     86                     87
                      A                      A                      A
 Frequencies --   1532.8903              1535.3955              1542.8131
 Red. masses --      1.0637                 1.0680                 1.0988
 Frc consts  --      1.4726                 1.4834                 1.5410
 IR Inten    --      0.7949                 5.8095                 5.0726

                     88                     89                     90
                      A                      A                      A
 Frequencies --   1545.5547              1549.5156              1757.0224
 Red. masses --      1.0775                 1.0538                 7.4491
 Frc consts  --      1.5165                 1.4907                13.5490
 IR Inten    --      1.7061                11.3878               378.2667

                     91                     92                     93
                      A                      A                      A
 Frequencies --   1815.1270              2983.4557              3018.8566
 Red. masses --     12.1309                 1.0819                 1.0682
 Frc consts  --     23.5482                 5.6741                 5.7359
 IR Inten    --    202.3963                17.3681                30.1953

                     94                     95                     96
                      A                      A                      A
 Frequencies --   3027.0928              3037.8505              3042.4280
 Red. masses --      1.0663                 1.0395                 1.0413
 Frc consts  --      5.7569                 5.6520                 5.6792
 IR Inten    --     39.5046                19.7742                27.1405

                     97                     98                     99
                      A                      A                      A
 Frequencies --   3058.5886              3063.9227              3075.4155
 Red. masses --      1.0684                 1.0353                 1.0823
 Frc consts  --      5.8887                 5.7265                 6.0312
 IR Inten    --     41.5821                12.4864                23.8674

                    100                    101                    102
                      A                      A                      A
 Frequencies --   3077.3499              3080.5473              3081.1571
 Red. masses --      1.0871                 1.0937                 1.0583
 Frc consts  --      6.0657                 6.1151                 5.9194
 IR Inten    --     50.4116                62.2489                13.2967

                    103                    104                    105
                      A                      A                      A
 Frequencies --   3082.8128              3086.9629              3100.7928
 Red. masses --      1.0857                 1.0823                 1.0992
 Frc consts  --      6.0791                 6.0768                 6.2269
 IR Inten    --     15.0481                 7.9209                 1.6930

                    106                    107                    108
                      A                      A                      A
 Frequencies --   3113.5340              3117.4461              3120.4986
 Red. masses --      1.0966                 1.0976                 1.1076
 Frc consts  --      6.2632                 6.2848                 6.3548
 IR Inten    --     57.5594                 7.6545                 3.1873

                    109                    110                    111
                      A                      A                      A
 Frequencies --   3123.3509              3126.7820              3135.8610
 Red. masses --      1.0989                 1.0994                 1.1020
 Frc consts  --      6.3160                 6.3330                 6.3851
 IR Inten    --     42.9611                37.8789                24.0358

                    112                    113                    114
                      A                      A                      A
 Frequencies --   3147.0254              3147.3963              3555.0685
 Red. masses --      1.1057                 1.0900                 1.0747
 Frc consts  --      6.4520                 6.3617                 8.0025
 IR Inten    --     34.2669                32.3385                20.2140

 - Thermochemistry -
 -------------------
 Temperature   298.150 Kelvin.  Pressure   1.00000 Atm.
 Atom     1 has atomic number  6 and mass  12.00000

 Molecular mass:   241.16779 amu.
 Principal axes and moments of inertia in atomic units:
                           1         2         3
     Eigenvalues --  3597.565024297.301655029.38444
           X            0.99679   0.07768   0.01939
           Y           -0.07640   0.99528  -0.05977
           Z           -0.02394   0.05810   0.99802
 This molecule is an asymmetric top.
 Rotational symmetry number  1.
 Warning -- assumption of classical behavior for rotation
           may cause significant error
 Rotational temperatures (Kelvin)      0.02408     0.02016     0.01722
 Rotational constants (GHZ):           0.50166     0.41997     0.35884
 Zero-point vibrational energy     935833.0 (Joules/Mol)
                                  223.66945 (Kcal/Mol)
 Warning -- explicit consideration of  28 degrees of freedom as
           vibrations may cause significant error
 Vibrational temperatures:     42.88    57.00    87.63    96.03   129.38
          (Kelvin)            155.25   170.72   192.11   204.87   251.53
                              262.99   335.17   350.59   377.92   390.45
                              416.37   424.82   478.81   498.11   545.40
                              556.51   563.70   605.01   631.55   680.06
                              723.56   795.21   829.37   901.29  1032.89
                             1087.84  1104.54  1149.19  1181.96  1205.95
                             1242.07  1243.90  1271.16  1294.30  1318.91
                             1339.82  1356.18  1373.64  1412.21  1459.75
                             1501.57  1520.84  1526.58  1585.41  1590.47
                             1613.44  1652.21  1659.02  1685.50  1709.30
                             1715.88  1735.07  1777.54  1808.78  1856.63
                             1868.84  1883.39  1907.29  1944.59  1973.14
                             1982.96  1992.97  2000.67  2017.15  2026.76
                             2032.14  2045.01  2046.41  2057.16  2083.90
                             2088.75  2128.57  2164.40  2180.82  2183.21
                             2184.33  2194.45  2195.36  2198.87  2205.49
                             2209.09  2219.76  2223.71  2229.41  2527.96
                             2611.56  4292.53  4343.46  4355.31  4370.79
                             4377.38  4400.63  4408.30  4424.84  4427.62
                             4432.22  4433.10  4435.48  4441.45  4461.35
                             4479.68  4485.31  4489.70  4493.81  4498.74
                             4511.80  4527.87  4528.40  5114.95

 Zero-point correction=                           0.356440 (Hartree/Particle)
 Thermal correction to Energy=                    0.374861
 Thermal correction to Enthalpy=                  0.375805
 Thermal correction to Gibbs Free Energy=         0.309783
 Sum of electronic and zero-point Energies=           -789.397082
 Sum of electronic and thermal Energies=              -789.378660
 Sum of electronic and thermal Enthalpies=            -789.377716
 Sum of electronic and thermal Free Energies=         -789.443738

                     E (Thermal)             CV                S
                      KCal/Mol        Cal/Mol-Kelvin    Cal/Mol-Kelvin
 Total                  235.229             69.059            138.955
 Electronic               0.000              0.000              0.000
 Translational            0.889              2.981             42.342
 Rotational               0.889              2.981             32.719
 Vibrational            233.451             63.097             63.894
 Vibration     1          0.594              1.984              5.842
 Vibration     2          0.594              1.981              5.278
 Vibration     3          0.597              1.973              4.428
 Vibration     4          0.598              1.970              4.247
 Vibration     5          0.602              1.956              3.662
 Vibration     6          0.606              1.943              3.306
 Vibration     7          0.609              1.934              3.122
 Vibration     8          0.613              1.920              2.895
 Vibration     9          0.616              1.911              2.772
 Vibration    10          0.627              1.873              2.383
 Vibration    11          0.630              1.863              2.300
 Vibration    12          0.654              1.791              1.856
 Vibration    13          0.659              1.773              1.776
 Vibration    14          0.670              1.741              1.644
 Vibration    15          0.675              1.726              1.587
 Vibration    16          0.686              1.693              1.478
 Vibration    17          0.689              1.683              1.444
 Vibration    18          0.715              1.610              1.247
 Vibration    19          0.724              1.583              1.183
 Vibration    20          0.749              1.515              1.043
 Vibration    21          0.755              1.498              1.012
 Vibration    22          0.759              1.488              0.993
 Vibration    23          0.783              1.426              0.890
 Vibration    24          0.799              1.385              0.830
 Vibration    25          0.830              1.311              0.730
 Vibration    26          0.858              1.244              0.651
 Vibration    27          0.908              1.134              0.539
 Vibration    28          0.933              1.082              0.492

 Optimization completed.
    -- Stationary point found.
 Normal termination of Gaussian 16 at Fri Dec 11 13:35:02 2020.

 ----------------------------------------------------------------------
 # B3LYP/6-311++G(d,p) empiricaldispersion=gd3bj scf=xqc pop=npa geom=c
 heck
 ----------------------------------------------------------------------

 --------------------------------------
 CID_81919773_JID_7712_Energie_neutraal
 --------------------------------------
 Structure from the checkpoint file:  "JID_7712.chk"
 Charge =  0 Multiplicity = 1

 SCF Done:  E(RB3LYP) =  -789.982200924     A.U. after   16 cycles
 Normal termination of Gaussian 16 at Fri Dec 11 13:42:57 2020.

 ----------------------------------------------------------------------
 # B3LYP/6-311++G(d,p) empiricaldispersion=gd3bj scf=xqc pop=npa geom=c
 heck
 ----------------------------------------------------------------------

 ------------------------------------
 CID_81919773_JID_7712_Energie_kation
 ------------------------------------
 Structure from the checkpoint file:  "JID_7712.chk"
 Charge =  1 Multiplicity = 2

 SCF Done:  E(UB3LYP) =  -789.648705796     A.U. after   33 cycles
 SCF Done:  E(UB3LYP) =  -789.648705797     a.u. after    1 cycles
 Normal termination of Gaussian 16 at Fri Dec 11 14:04:44 2020.
 Gaussian 16:  ES64L-G16RevA.03 25-Dec-2016

 ----------------------------------------------------------------------
 # B3LYP/6-311++G(d,p) empiricaldispersion=gd3bj scf=xqc pop=npa geom=c
 heck
 ----------------------------------------------------------------------

 -----------------------------------
 CID_81919773_JID_7712_Energie_anion
 -----------------------------------
 Structure from the checkpoint file:  "JID_7712.chk"
 Charge = -1 Multiplicity = 2

                         Standard orientation:
 ---------------------------------------------------------------------
 Center     Atomic      Atomic             Coordinates (Angstroms)
 Number     Number       Type             X           Y           Z
 ---------------------------------------------------------------------
      1          6           0        3.846800    0.817054    0.705437
      2          6           0        3.006004   -0.434705    0.848373
      3          8           0        2.042662   -0.426249   -0.235302
      4          6           0        1.098989   -1.378555   -0.196339
      5          8           0        1.003595   -2.225502    0.664408
      6          6           0        0.268758   -1.358362   -1.475078
      7          8           0        0.750774   -1.975644   -2.419577
      8          7           0       -0.922456   -0.711507   -1.570727
      9          6           0       -1.864235   -0.005919   -0.669140
     10          6           0       -2.788331   -0.978890    0.090097
     11          6           0       -2.154938   -1.556414    1.355579
     12          6           0       -1.726596   -0.420572    2.289462
     13          6           0       -0.754889    0.553014    1.608025
     14          6           0       -1.274239    1.090474    0.258662
     15          6           0       -0.274052    2.021673   -0.469721
     16          6           0       -0.885201    2.633628   -1.738554
     17          6           0        0.236954    3.141264    0.449033
     18          1           0        4.357471    0.835010   -0.262046
     19          1           0        4.602179    0.849071    1.497668
     20          1           0        3.223477    1.713493    0.784757
     21          1           0        3.600147   -1.350088    0.770240
     22          1           0        2.464506   -0.464828    1.798362
     23          1           0       -1.306477   -0.886843   -2.493984
     24          1           0       -2.496233    0.527325   -1.384742
     25          1           0       -3.693647   -0.419511    0.366972
     26          1           0       -3.104718   -1.774065   -0.595176
     27          1           0       -1.288372   -2.173880    1.098397
     28          1           0       -2.874801   -2.211974    1.860339
     29          1           0       -1.261648   -0.824419    3.196433
     30          1           0       -2.620418    0.133249    2.613659
     31          1           0        0.213547    0.065230    1.480336
     32          1           0       -0.577906    1.401652    2.276667
     33          1           0       -2.155326    1.706467    0.504396
     34          1           0        0.591536    1.422244   -0.770061
     35          1           0       -1.806642    3.184800   -1.507584
     36          1           0       -0.184952    3.339191   -2.198937
     37          1           0       -1.119910    1.874557   -2.490658
     38          1           0        0.819298    2.754006    1.290560
     39          1           0        0.883698    3.826230   -0.110631
     40          1           0       -0.594016    3.730659    0.858880
 ---------------------------------------------------------------------

 SCF Done:  E(UB3LYP) =  -789.973756705     A.U. after   32 cycles

 The electronic state is 2-A.
 Alpha  occ. eigenvalues --  -19.09151 -19.03662 -19.00858 -14.25259 -10.22588
 Alpha  occ. eigenvalues --  -10.19799 -10.14952 -10.12280 -10.08565 -10.08222
 Alpha  occ. eigenvalues --  -10.07629 -10.07226 -10.06856 -10.06770 -10.06458
 Alpha  occ. eigenvalues --  -10.06179 -10.05970  -1.03445  -0.95809  -0.94549
 Alpha  occ. eigenvalues --   -0.83786  -0.74072  -0.70220  -0.70011  -0.65485
 Alpha  occ. eigenvalues --   -0.63491  -0.60498  -0.58842  -0.55081  -0.52751
 Alpha  occ. eigenvalues --   -0.52308  -0.48671  -0.47407  -0.46971  -0.43962
 Alpha  occ. eigenvalues --   -0.41316  -0.40152  -0.38940  -0.38373  -0.37218
 Alpha  occ. eigenvalues --   -0.36083  -0.34563  -0.34046  -0.33392  -0.32784
 Alpha  occ. eigenvalues --   -0.32677  -0.32299  -0.31948  -0.30761  -0.29183
 Alpha  occ. eigenvalues --   -0.28709  -0.28620  -0.28238  -0.27694  -0.27240
 Alpha  occ. eigenvalues --   -0.25695  -0.25275  -0.24630  -0.23962  -0.22876
 Alpha  occ. eigenvalues --   -0.22262  -0.21584  -0.21164  -0.20385  -0.16962
 Alpha  occ. eigenvalues --   -0.16683   0.03869
 Alpha virt. eigenvalues --    0.05526   0.06973   0.07224   0.07306   0.08228
 Alpha virt. eigenvalues --    0.08407   0.08617   0.09417   0.09539   0.09740
 Alpha virt. eigenvalues --    0.10542   0.10898   0.11443   0.11569   0.12003

  Beta  occ. eigenvalues --  -19.09147 -19.03649 -19.00848 -14.25239 -10.22569
  Beta  occ. eigenvalues --  -10.19801 -10.14942 -10.12263 -10.08534 -10.08211
  Beta  occ. eigenvalues --  -10.07625 -10.07203 -10.06843 -10.06759 -10.06455
  Beta  occ. eigenvalues --  -10.06152 -10.05941  -1.03425  -0.95793  -0.94528
  Beta  occ. eigenvalues --   -0.83745  -0.74042  -0.70194  -0.69986  -0.65448
  Beta  occ. eigenvalues --   -0.63457  -0.60448  -0.58786  -0.55036  -0.52709
  Beta  occ. eigenvalues --   -0.52258  -0.48639  -0.47367  -0.46921  -0.43900
  Beta  occ. eigenvalues --   -0.41283  -0.40121  -0.38903  -0.38326  -0.37188
  Beta  occ. eigenvalues --   -0.36044  -0.34523  -0.34017  -0.33354  -0.32753
  Beta  occ. eigenvalues --   -0.32648  -0.32269  -0.31910  -0.30737  -0.29150
  Beta  occ. eigenvalues --   -0.28667  -0.28587  -0.28196  -0.27661  -0.27211
  Beta  occ. eigenvalues --   -0.25662  -0.25245  -0.24601  -0.23933  -0.22841
  Beta  occ. eigenvalues --   -0.22225  -0.21556  -0.21139  -0.20351  -0.16929
  Beta  occ. eigenvalues --   -0.16658
  Beta virt. eigenvalues --    0.06001   0.06566   0.07353   0.07533   0.07853
  Beta virt. eigenvalues --    0.08503   0.08828   0.09045   0.09538   0.09848
  Beta virt. eigenvalues --    0.09882   0.11028   0.11235   0.11727   0.11902

 Mulliken charges and spin densities:
               1          2
     1  C    0.650218  -1.209416
     2  C   -0.424649   0.408688
     3  O    0.150763   0.008820
     4  C   -0.015819  -0.418150
     5  O   -0.094779   0.008524
     6  C   -0.300248   0.328799
     7  O   -0.269130   0.010968
     8  N   -0.432526   0.114203
     9  C   -0.211682   0.463686
    10  C    1.149698  -1.833482
    11  C   -0.952910   0.684052
    12  C    0.225850  -0.818668
    13  C    0.032152  -0.165014
    14  C    0.851833  -0.702513
    15  C   -1.026940   1.286660
    16  C    0.251752  -0.936995
    17  C    0.077176  -0.808311
    18  H    0.091947   0.067072
    19  H   -0.368420   0.516201
    20  H   -0.095699   0.253727
    21  H    0.015536   0.152243
    22  H    0.010006   0.179855
    23  H    0.032979   0.310266
    24  H   -0.503405   0.728469
    25  H   -0.311387   0.460796
    26  H   -0.020352   0.182969
    27  H    0.184634  -0.007618
    28  H    0.025993   0.163608
    29  H   -0.057396   0.214890
    30  H   -0.114787   0.248400
    31  H    0.604363  -0.569263
    32  H   -0.111896   0.289750
    33  H    0.072327   0.169856
    34  H    0.529803  -0.321671
    35  H   -0.127357   0.271282
    36  H   -0.088402   0.232255
    37  H   -0.093105   0.264091
    38  H   -0.242164   0.371717
    39  H   -0.008988   0.155089
    40  H   -0.084991   0.244168
 Sum of Mulliken charges =  -1.00000   1.00000

 Dipole moment (field-independent basis, Debye):
    X=              2.0860    Y=             -1.6401    Z=              0.9709  Tot=              2.8256
 Quadrupole moment (field-independent basis, Debye-Ang):
   XX=           -168.9095   YY=           -157.4823   ZZ=           -155.6775
   XY=              2.8950   XZ=             -6.4897   YZ=             -6.5037

 Summary of Natural Population Analysis:

                                       Natural Population
                Natural  -----------------------------------------------
    Atom  No    Charge         Core      Valence    Rydberg      Total
 -----------------------------------------------------------------------
      C    1   -0.29522      0.99966     2.29019    0.00537     3.29522
      C    2   -0.01819      0.99958     2.00732    0.01130     3.01819
      O    3   -0.27375      0.99985     3.26564    0.00825     4.27375
      C    4    0.37949      0.99967     1.59598    0.02486     2.62051
      O    5   -0.29449      0.99987     3.28956    0.00506     4.29449
      C    6    0.30154      0.99962     1.67633    0.02252     2.69846
      O    7   -0.30947      0.99988     3.30418    0.00541     4.30947
      N    8   -0.30880      0.99966     2.79804    0.01110     3.80880
      C    9   -0.00871      0.99954     1.99361    0.01556     3.00871
      C   10   -0.18854      0.99960     2.18006    0.00888     3.18854
      C   11   -0.19948      0.99962     2.19175    0.00812     3.19948
      C   12   -0.18517      0.99963     2.17771    0.00784     3.18517
      C   13   -0.19266      0.99960     2.18417    0.00890     3.19266
      C   14   -0.10844      0.99955     2.09635    0.01254     3.10844
      C   15   -0.12070      0.99959     2.11152    0.00960     3.12070
      C   16   -0.28315      0.99965     2.27767    0.00583     3.28315
      C   17   -0.28299      0.99965     2.27715    0.00619     3.28299
      H   18    0.10170      0.00000     0.39735    0.00095     0.39830
      H   19    0.10399      0.00000     0.39486    0.00115     0.39601
      H   20    0.10555      0.00000     0.39322    0.00123     0.39445
      H   21    0.09063      0.00000     0.40838    0.00099     0.40937
      H   22    0.09432      0.00000     0.40440    0.00128     0.40568
      H   23    0.19794      0.00000     0.29966    0.00239     0.30206
      H   24    0.10803      0.00000     0.38850    0.00347     0.39197
      H   25    0.10026      0.00000     0.39812    0.00163     0.39974
      H   26    0.10132      0.00000     0.39767    0.00101     0.39868
      H   27    0.10657      0.00000     0.39162    0.00181     0.39343
      H   28    0.09685      0.00000     0.40236    0.00079     0.40315
      H   29    0.09838      0.00000     0.40081    0.00081     0.40162
      H   30    0.09292      0.00000     0.40587    0.00121     0.40708
      H   31    0.09236      0.00000     0.40460    0.00304     0.40764
      H   32    0.10301      0.00000     0.39574    0.00125     0.39699
      H   33    0.10217      0.00000     0.39575    0.00208     0.39783
      H   34    0.10055      0.00000     0.39613    0.00332     0.39945
      H   35    0.09749      0.00000     0.40148    0.00104     0.40251
      H   36    0.09833      0.00000     0.40093    0.00074     0.40167
      H   37    0.10082      0.00000     0.39806    0.00111     0.39918
      H   38    0.09954      0.00000     0.39921    0.00125     0.40046
      H   39    0.09861      0.00000     0.40058    0.00081     0.40139
      H   40    0.09741      0.00000     0.40164    0.00095     0.40259
 =======================================================================
   * Total *    0.00000     16.99420    48.79418    0.21162    66.00000

 Normal termination of Gaussian 16 at Fri Dec 11 14:25:47 2020.
