 Gaussian 16, Revision A.03,

 -----------------------------------------------------------
 # opt freq B3LYP/6-31G(d) empiricaldispersion=gd3bj scf=xqc
 -----------------------------------------------------------

 -------------------------------
 CID_127444809_JID_5429_neutraal
 -------------------------------
 Symbolic Z-matrix:
 Charge =  0 Multiplicity = 1

 SCF Done:  E(RB3LYP) =  -655.283485283     A.U. after   14 cycles
 SCF Done:  E(RB3LYP) =  -655.295428360     A.U. after   12 cycles
 SCF Done:  E(RB3LYP) =  -655.297331916     A.U. after   14 cycles
 SCF Done:  E(RB3LYP) =  -655.304893404     A.U. after   11 cycles
 SCF Done:  E(RB3LYP) =  -655.308692177     A.U. after   14 cycles
 SCF Done:  E(RB3LYP) =  -655.311201354     A.U. after   12 cycles
 SCF Done:  E(RB3LYP) =  -655.312564284     A.U. after   12 cycles
 SCF Done:  E(RB3LYP) =  -655.313925477     A.U. after   12 cycles
 SCF Done:  E(RB3LYP) =  -655.314242931     A.U. after   13 cycles
 SCF Done:  E(RB3LYP) =  -655.315151018     A.U. after   11 cycles
 SCF Done:  E(RB3LYP) =  -655.315501137     A.U. after    9 cycles
 SCF Done:  E(RB3LYP) =  -655.315525477     A.U. after   10 cycles
 SCF Done:  E(RB3LYP) =  -655.315531729     A.U. after    8 cycles
 SCF Done:  E(RB3LYP) =  -655.315534004     A.U. after    8 cycles
 SCF Done:  E(RB3LYP) =  -655.315534326     A.U. after    7 cycles
 SCF Done:  E(RB3LYP) =  -655.315534510     A.U. after    7 cycles
 Optimization completed.
    -- Stationary point found.
 Normal termination of Gaussian 16 at Thu Dec 10 16:10:58 2020.

 --------------------------------------------------------------------
 #N Geom=AllCheck Guess=TCheck SCRF=Check GenChk RB3LYP/6-31G(d) Freq
 --------------------------------------------------------------------

 Structure from the checkpoint file:  "JID_5429.chk"
 -------------------------------
 CID_127444809_JID_5429_neutraal
 -------------------------------
 Charge =  0 Multiplicity = 1

 SCF Done:  E(RB3LYP) =  -655.315534510     A.U. after    1 cycles

  Exact polarizability: 157.008  -2.268 124.392   1.879   4.779 124.037
 Approx polarizability: 191.471  -6.566 183.270   3.112  16.034 189.969

                      1                      2                      3
                      A                      A                      A
 Frequencies --     33.2066                45.9093                56.1536
 Red. masses --      3.1398                 3.3186                 3.4460
 Frc consts  --      0.0020                 0.0041                 0.0064
 IR Inten    --      0.0862                 0.9050                 0.3334

                      4                      5                      6
                      A                      A                      A
 Frequencies --     75.1311               116.9102               131.9377
 Red. masses --      4.5651                 2.1587                 3.6268
 Frc consts  --      0.0152                 0.0174                 0.0372
 IR Inten    --      2.7301                 0.0899                 1.4121

                      7                      8                      9
                      A                      A                      A
 Frequencies --    134.6806               188.4435               219.5333
 Red. masses --      3.6273                 2.5735                 3.9920
 Frc consts  --      0.0388                 0.0538                 0.1134
 IR Inten    --      1.6951                 0.3029                 8.1422

                     10                     11                     12
                      A                      A                      A
 Frequencies --    222.5675               253.5001               256.7187
 Red. masses --      2.0224                 1.4474                 1.3976
 Frc consts  --      0.0590                 0.0548                 0.0543
 IR Inten    --      4.2715                 0.0740                 0.1625

                     13                     14                     15
                      A                      A                      A
 Frequencies --    276.9505               304.6989               346.3553
 Red. masses --      1.6012                 2.2996                 2.1150
 Frc consts  --      0.0724                 0.1258                 0.1495
 IR Inten    --      0.7709                 0.6798                 1.3428

                     16                     17                     18
                      A                      A                      A
 Frequencies --    353.0104               386.6774               414.6785
 Red. masses --      2.7044                 1.9824                 2.6783
 Frc consts  --      0.1986                 0.1746                 0.2713
 IR Inten    --      0.4708                 0.2104                 3.8267

                     19                     20                     21
                      A                      A                      A
 Frequencies --    446.8165               474.1721               568.6350
 Red. masses --      2.5448                 3.0190                 2.3060
 Frc consts  --      0.2993                 0.3999                 0.4393
 IR Inten    --      2.0941                 6.7469                40.3826

                     22                     23                     24
                      A                      A                      A
 Frequencies --    625.2287               707.5916               742.9233
 Red. masses --      3.8554                 2.0144                 2.2746
 Frc consts  --      0.8880                 0.5942                 0.7397
 IR Inten    --      7.9790                43.5326                 3.8620

                     25                     26                     27
                      A                      A                      A
 Frequencies --    766.5302               771.4145               784.9756
 Red. masses --      2.8494                 2.7726                 4.9124
 Frc consts  --      0.9864                 0.9721                 1.7834
 IR Inten    --      1.0272                10.6600                33.9982

                     28                     29                     30
                      A                      A                      A
 Frequencies --    795.5572               805.3987               824.8521
 Red. masses --      1.4078                 1.7413                 2.6133
 Frc consts  --      0.5250                 0.6655                 1.0476
 IR Inten    --      3.1696                 2.8251                 2.6649

                     31                     32                     33
                      A                      A                      A
 Frequencies --    847.9914               882.7291               898.4048
 Red. masses --      3.1982                 1.8652                 2.0883
 Frc consts  --      1.3550                 0.8563                 0.9931
 IR Inten    --      2.0865                 4.1130                 5.7158

                     34                     35                     36
                      A                      A                      A
 Frequencies --    916.8703               935.9996               960.6178
 Red. masses --      2.0052                 2.0165                 1.7442
 Frc consts  --      0.9932                 1.0409                 0.9483
 IR Inten    --      0.0407                 1.2499                 1.4754

                     37                     38                     39
                      A                      A                      A
 Frequencies --    968.6426               995.1826               999.4229
 Red. masses --      1.6721                 1.7188                 1.8141
 Frc consts  --      0.9243                 1.0029                 1.0676
 IR Inten    --      2.1519                 0.1611                 2.4837

                     40                     41                     42
                      A                      A                      A
 Frequencies --   1021.2114              1033.9290              1048.1007
 Red. masses --      1.8165                 1.6597                 1.9957
 Frc consts  --      1.1161                 1.0454                 1.2917
 IR Inten    --      0.1804                 1.0927                 0.6510

                     43                     44                     45
                      A                      A                      A
 Frequencies --   1086.5618              1095.1131              1102.3820
 Red. masses --      1.6388                 1.5332                 2.0951
 Frc consts  --      1.1400                 1.0833                 1.5001
 IR Inten    --      0.9704                 2.3839                 1.8142

                     46                     47                     48
                      A                      A                      A
 Frequencies --   1143.2984              1153.6582              1159.6113
 Red. masses --      2.1312                 1.3065                 1.8848
 Frc consts  --      1.6414                 1.0245                 1.4932
 IR Inten    --      3.9023                 0.5634                 3.0646

                     49                     50                     51
                      A                      A                      A
 Frequencies --   1160.8798              1213.6414              1217.6030
 Red. masses --      1.4148                 2.0200                 1.3890
 Frc consts  --      1.1234                 1.7530                 1.2133
 IR Inten    --      1.0057                 5.5432                 6.0742

                     52                     53                     54
                      A                      A                      A
 Frequencies --   1218.7411              1234.7716              1243.6781
 Red. masses --      1.5775                 3.1421                 1.5568
 Frc consts  --      1.3806                 2.8225                 1.4187
 IR Inten    --      9.5025                10.6228                24.4794

                     55                     56                     57
                      A                      A                      A
 Frequencies --   1258.3286              1266.0693              1282.7313
 Red. masses --      1.2558                 1.6868                 1.3377
 Frc consts  --      1.1716                 1.5930                 1.2969
 IR Inten    --      3.1245                22.5973                 2.4904

                     58                     59                     60
                      A                      A                      A
 Frequencies --   1295.8175              1304.0746              1308.4918
 Red. masses --      1.2685                 1.5678                 1.5433
 Frc consts  --      1.2549                 1.5709                 1.5569
 IR Inten    --      3.0982                 3.1403                 5.8298

                     61                     62                     63
                      A                      A                      A
 Frequencies --   1338.4940              1355.4434              1375.2220
 Red. masses --      1.3449                 1.2964                 1.7299
 Frc consts  --      1.4196                 1.4033                 1.9276
 IR Inten    --      0.2107                 0.0814                 2.5190

                     64                     65                     66
                      A                      A                      A
 Frequencies --   1379.2074              1385.1508              1386.7949
 Red. masses --      1.3328                 1.3967                 1.4357
 Frc consts  --      1.4938                 1.5789                 1.6268
 IR Inten    --     67.7449                 5.8392                25.5812

                     67                     68                     69
                      A                      A                      A
 Frequencies --   1401.2026              1418.0083              1439.4224
 Red. masses --      1.3980                 1.4211                 2.3002
 Frc consts  --      1.6172                 1.6836                 2.8080
 IR Inten    --      6.5196                26.5947               324.7905

                     70                     71                     72
                      A                      A                      A
 Frequencies --   1447.0956              1449.4443              1481.1812
 Red. masses --      1.3219                 1.3372                 1.7429
 Frc consts  --      1.6310                 1.6552                 2.2528
 IR Inten    --     28.6811                48.8274                94.6934

                     73                     74                     75
                      A                      A                      A
 Frequencies --   1502.9502              1514.2005              1522.2169
 Red. masses --      1.1044                 1.0737                 1.1054
 Frc consts  --      1.4698                 1.4505                 1.5091
 IR Inten    --     12.1532                 1.1902                 0.6324

                     76                     77                     78
                      A                      A                      A
 Frequencies --   1523.7329              1529.2313              1531.9915
 Red. masses --      1.0847                 1.0542                 1.0468
 Frc consts  --      1.4839                 1.4525                 1.4475
 IR Inten    --      1.5419                 5.1622                 7.6338

                     79                     80                     81
                      A                      A                      A
 Frequencies --   1535.4676              1536.3929              1553.6012
 Red. masses --      1.0750                 1.0513                 1.0770
 Frc consts  --      1.4932                 1.4622                 1.5316
 IR Inten    --      6.6358                 5.0769                 8.2441

                     82                     83                     84
                      A                      A                      A
 Frequencies --   1568.8824              1763.3830              3029.0101
 Red. masses --      1.0913                 7.3011                 1.0613
 Frc consts  --      1.5827                13.3762                 5.7369
 IR Inten    --      1.0310               357.9064                30.7302

                     85                     86                     87
                      A                      A                      A
 Frequencies --   3041.3595              3047.5422              3051.4025
 Red. masses --      1.0361                 1.0612                 1.0672
 Frc consts  --      5.6468                 5.8068                 5.8548
 IR Inten    --     28.8627                28.0413                 5.4855

                     88                     89                     90
                      A                      A                      A
 Frequencies --   3056.5568              3057.4767              3060.3215
 Red. masses --      1.0509                 1.0532                 1.0785
 Frc consts  --      5.7848                 5.8007                 5.9515
 IR Inten    --     34.7774                38.0337                 6.4902

                     91                     92                     93
                      A                      A                      A
 Frequencies --   3062.1912              3063.7980              3068.3163
 Red. masses --      1.0904                 1.0793                 1.0846
 Frc consts  --      6.0243                 5.9690                 6.0159
 IR Inten    --     49.6921                29.6443                36.6692

                     94                     95                     96
                      A                      A                      A
 Frequencies --   3075.2177              3081.9834              3089.6369
 Red. masses --      1.0769                 1.0698                 1.0984
 Frc consts  --      6.0006                 5.9868                 6.1776
 IR Inten    --     57.9438                29.4818                27.2629

                     97                     98                     99
                      A                      A                      A
 Frequencies --   3094.3924              3104.7378              3112.4427
 Red. masses --      1.1031                 1.1022                 1.1059
 Frc consts  --      6.2232                 6.2596                 6.3119
 IR Inten    --     27.1295                30.5358                55.2390

                    100                    101                    102
                      A                      A                      A
 Frequencies --   3116.1571              3118.0777              3119.7581
 Red. masses --      1.1030                 1.1022                 1.1021
 Frc consts  --      6.3103                 6.3136                 6.3198
 IR Inten    --     21.1065                33.0166                44.8484

                    103                    104                    105
                      A                      A                      A
 Frequencies --   3130.1908              3136.7683              3587.3887
 Red. masses --      1.1024                 1.1047                 1.0751
 Frc consts  --      6.3640                 6.4040                 8.1516
 IR Inten    --     29.8244                35.7192                16.7524

 - Thermochemistry -
 -------------------
 Temperature   298.150 Kelvin.  Pressure   1.00000 Atm.
 Atom     1 has atomic number  6 and mass  12.00000

 Molecular mass:   210.17321 amu.
 Principal axes and moments of inertia in atomic units:
                           1         2         3
     Eigenvalues --  1774.127634866.816945241.63314
           X            0.99999  -0.00298  -0.00324
           Y            0.00280   0.99849  -0.05483
           Z            0.00340   0.05482   0.99849
 This molecule is an asymmetric top.
 Rotational symmetry number  1.
 Warning -- assumption of classical behavior for rotation
           may cause significant error
 Rotational temperatures (Kelvin)      0.04882     0.01780     0.01652
 Rotational constants (GHZ):           1.01726     0.37083     0.34431
 Zero-point vibrational energy     883018.5 (Joules/Mol)
                                  211.04648 (Kcal/Mol)
 Warning -- explicit consideration of  21 degrees of freedom as
           vibrations may cause significant error
 Vibrational temperatures:     47.78    66.05    80.79   108.10   168.21
          (Kelvin)            189.83   193.78   271.13   315.86   320.22
                              364.73   369.36   398.47   438.39   498.33
                              507.90   556.34   596.63   642.87   682.23
                              818.14   899.56  1018.07  1068.90  1102.87
                             1109.89  1129.40  1144.63  1158.79  1186.78
                             1220.07  1270.05  1292.60  1319.17  1346.69
                             1382.11  1393.66  1431.85  1437.95  1469.30
                             1487.59  1507.98  1563.32  1575.62  1586.08
                             1644.95  1659.86  1668.42  1670.25  1746.16
                             1751.86  1753.50  1776.56  1789.38  1810.45
                             1821.59  1845.56  1864.39  1876.27  1882.63
                             1925.79  1950.18  1978.64  1984.37  1992.92
                             1995.29  2016.02  2040.20  2071.01  2082.05
                             2085.43  2131.09  2162.41  2178.60  2190.13
                             2192.31  2200.22  2204.19  2209.20  2210.53
                             2235.29  2257.27  2537.11  4358.07  4375.84
                             4384.73  4390.29  4397.70  4399.03  4403.12
                             4405.81  4408.12  4414.62  4424.55  4434.29
                             4445.30  4452.14  4467.03  4478.11  4483.45
                             4486.22  4488.64  4503.65  4513.11  5161.45

 Zero-point correction=                           0.336324 (Hartree/Particle)
 Thermal correction to Energy=                    0.351821
 Thermal correction to Enthalpy=                  0.352765
 Thermal correction to Gibbs Free Energy=         0.293021
 Sum of electronic and zero-point Energies=           -654.979211
 Sum of electronic and thermal Energies=              -654.963714
 Sum of electronic and thermal Enthalpies=            -654.962770
 Sum of electronic and thermal Free Energies=         -655.022513

                     E (Thermal)             CV                S
                      KCal/Mol        Cal/Mol-Kelvin    Cal/Mol-Kelvin
 Total                  220.771             59.192            125.741
 Electronic               0.000              0.000              0.000
 Translational            0.889              2.981             41.932
 Rotational               0.889              2.981             32.182
 Vibrational            218.993             53.231             51.627
 Vibration     1          0.594              1.983              5.628
 Vibration     2          0.595              1.979              4.986
 Vibration     3          0.596              1.975              4.588
 Vibration     4          0.599              1.966              4.014
 Vibration     5          0.608              1.935              3.151
 Vibration     6          0.612              1.921              2.918
 Vibration     7          0.613              1.919              2.878
 Vibration     8          0.633              1.856              2.243
 Vibration     9          0.647              1.811              1.963
 Vibration    10          0.648              1.807              1.938
 Vibration    11          0.665              1.757              1.706
 Vibration    12          0.666              1.751              1.684
 Vibration    13          0.678              1.716              1.552
 Vibration    14          0.696              1.665              1.391
 Vibration    15          0.724              1.583              1.183
 Vibration    16          0.729              1.569              1.153
 Vibration    17          0.755              1.499              1.013
 Vibration    18          0.778              1.438              0.910
 Vibration    19          0.806              1.368              0.805
 Vibration    20          0.831              1.307              0.726
 Vibration    21          0.925              1.099              0.507

                           ! Non-Optimized Parameters !
 Normal termination of Gaussian 16 at Thu Dec 10 16:24:45 2020.

 ----------------------------------------------------------------------
 # B3LYP/6-311++G(d,p) empiricaldispersion=gd3bj scf=xqc pop=npa geom=c
 heck
 ----------------------------------------------------------------------

 ---------------------------------------
 CID_127444809_JID_5429_Energie_neutraal
 ---------------------------------------
 Structure from the checkpoint file:  "JID_5429.chk"
 Charge =  0 Multiplicity = 1

 SCF Done:  E(RB3LYP) =  -655.499336512     A.U. after   14 cycles
 Normal termination of Gaussian 16 at Thu Dec 10 16:30:44 2020.

 ----------------------------------------------------------------------
 # B3LYP/6-311++G(d,p) empiricaldispersion=gd3bj scf=xqc pop=npa geom=c
 heck
 ----------------------------------------------------------------------

 -------------------------------------
 CID_127444809_JID_5429_Energie_kation
 -------------------------------------
 Structure from the checkpoint file:  "JID_5429.chk"
 Charge =  1 Multiplicity = 2

 SCF Done:  E(UB3LYP) =  -655.196220158     A.U. after   26 cycles
 Normal termination of Gaussian 16 at Thu Dec 10 16:50:52 2020.
 Gaussian 16:  ES64L-G16RevA.03 25-Dec-2016

 ----------------------------------------------------------------------
 # B3LYP/6-311++G(d,p) empiricaldispersion=gd3bj scf=xqc pop=npa geom=c
 heck
 ----------------------------------------------------------------------

 ------------------------------------
 CID_127444809_JID_5429_Energie_anion
 ------------------------------------
 Structure from the checkpoint file:  "JID_5429.chk"
 Charge = -1 Multiplicity = 2

                         Standard orientation:
 ---------------------------------------------------------------------
 Center     Atomic      Atomic             Coordinates (Angstroms)
 Number     Number       Type             X           Y           Z
 ---------------------------------------------------------------------
      1          6           0       -2.219504    2.180232   -0.510063
      2          6           0       -3.399221    1.210793   -0.632965
      3          6           0       -3.149983   -0.229257   -0.147330
      4          6           0       -2.744817   -0.344299    1.339899
      5          6           0       -1.207015   -0.303147    1.350416
      6          7           0       -0.830543   -0.743202    0.002880
      7          6           0       -1.991559   -0.934781   -0.873497
      8          6           0        0.326744   -1.407838   -0.311174
      9          8           0        0.423391   -2.122338   -1.309554
     10          7           0        1.396521   -1.247062    0.569450
     11          6           0        1.809204    0.037308    1.144593
     12          6           0        1.667175    1.273162    0.205217
     13          6           0        3.177065    1.164808   -0.152847
     14          6           0        3.349271    0.214188    1.067260
     15          6           0        3.450358    0.525012   -1.511679
     16          1           0       -1.944715    2.354589    0.535763
     17          1           0       -2.474662    3.151950   -0.946717
     18          1           0       -1.332196    1.802696   -1.028102
     19          1           0       -4.258265    1.616352   -0.081052
     20          1           0       -3.709806    1.161238   -1.685370
     21          1           0       -4.076803   -0.788032   -0.319314
     22          1           0       -3.088156   -1.304711    1.739134
     23          1           0       -3.182883    0.445412    1.958940
     24          1           0       -0.836688    0.708898    1.550035
     25          1           0       -0.775949   -0.970037    2.104327
     26          1           0       -2.184797   -2.005773   -1.009096
     27          1           0       -1.792012   -0.517171   -1.865764
     28          1           0        2.168689   -1.804178    0.224634
     29          1           0        1.377655    0.161836    2.142713
     30          1           0        1.428203    2.179787    0.770310
     31          1           0        0.956160    1.174770   -0.618837
     32          1           0        3.733967    2.104526   -0.069855
     33          1           0        3.934682   -0.700191    0.911278
     34          1           0        3.743161    0.726887    1.949707
     35          1           0        3.190407    1.215990   -2.322625
     36          1           0        4.510386    0.264233   -1.618823
     37          1           0        2.858335   -0.385599   -1.658140
 ---------------------------------------------------------------------

 SCF Done:  E(UB3LYP) =  -655.488538135     A.U. after   30 cycles

 The electronic state is 2-A.
 Alpha  occ. eigenvalues --  -18.97968 -14.23444 -14.22654 -10.18797 -10.11412
 Alpha  occ. eigenvalues --  -10.10572 -10.10063 -10.08221 -10.08176 -10.07789
 Alpha  occ. eigenvalues --  -10.07518 -10.07207 -10.06909 -10.06773 -10.06098
 Alpha  occ. eigenvalues --   -0.94576  -0.84482  -0.82175  -0.74100  -0.71147
 Alpha  occ. eigenvalues --   -0.65599  -0.63360  -0.62893  -0.57587  -0.56052
 Alpha  occ. eigenvalues --   -0.53622  -0.52373  -0.47160  -0.45959  -0.45134
 Alpha  occ. eigenvalues --   -0.41610  -0.40717  -0.40498  -0.38808  -0.36236
 Alpha  occ. eigenvalues --   -0.34989  -0.33968  -0.33200  -0.32666  -0.32037
 Alpha  occ. eigenvalues --   -0.30906  -0.30508  -0.29719  -0.29341  -0.28584
 Alpha  occ. eigenvalues --   -0.27959  -0.27474  -0.26913  -0.25009  -0.23979
 Alpha  occ. eigenvalues --   -0.23611  -0.22870  -0.22513  -0.21918  -0.21153
 Alpha  occ. eigenvalues --   -0.17116  -0.14598  -0.14120   0.04036
 Alpha virt. eigenvalues --    0.05829   0.07065   0.07293   0.08302   0.08352
 Alpha virt. eigenvalues --    0.08595   0.09771   0.09921   0.10602   0.10689
 Alpha virt. eigenvalues --    0.10769   0.11282   0.11941   0.12901   0.13021

  Beta  occ. eigenvalues --  -18.97967 -14.23444 -14.22652 -10.18796 -10.11402
  Beta  occ. eigenvalues --  -10.10554 -10.10052 -10.08213 -10.08164 -10.07769
  Beta  occ. eigenvalues --  -10.07490 -10.07188 -10.06895 -10.06763 -10.06071
  Beta  occ. eigenvalues --   -0.94572  -0.84473  -0.82161  -0.74073  -0.71118
  Beta  occ. eigenvalues --   -0.65563  -0.63330  -0.62865  -0.57547  -0.56018
  Beta  occ. eigenvalues --   -0.53583  -0.52317  -0.47120  -0.45918  -0.45094
  Beta  occ. eigenvalues --   -0.41580  -0.40687  -0.40437  -0.38787  -0.36209
  Beta  occ. eigenvalues --   -0.34961  -0.33941  -0.33179  -0.32637  -0.32014
  Beta  occ. eigenvalues --   -0.30888  -0.30484  -0.29692  -0.29324  -0.28556
  Beta  occ. eigenvalues --   -0.27916  -0.27450  -0.26881  -0.24988  -0.23944
  Beta  occ. eigenvalues --   -0.23571  -0.22837  -0.22483  -0.21886  -0.21125
  Beta  occ. eigenvalues --   -0.17109  -0.14588  -0.14108
  Beta virt. eigenvalues --    0.06185   0.06683   0.07661   0.07905   0.08644
  Beta virt. eigenvalues --    0.08818   0.09032   0.10106   0.10395   0.10753
  Beta virt. eigenvalues --    0.10979   0.11126   0.11536   0.12228   0.12990

 Mulliken charges and spin densities:
               1          2
     1  C   -0.319748  -0.126931
     2  C    1.057978  -1.642383
     3  C   -1.123487   1.495858
     4  C    1.126423  -1.867763
     5  C   -0.524316   0.332161
     6  N   -0.011968   0.081545
     7  C    0.090781  -0.495381
     8  C    0.150009  -0.178282
     9  O   -0.355157   0.012952
    10  N    0.040254  -0.129547
    11  C   -0.578871   0.955166
    12  C    0.817859  -1.264047
    13  C   -0.476379   0.877245
    14  C    0.513694  -1.577026
    15  C    0.034125  -0.737503
    16  H   -0.094308   0.245556
    17  H   -0.182745   0.339706
    18  H    0.118694   0.030035
    19  H   -0.095413   0.242398
    20  H   -0.083318   0.212722
    21  H   -0.386451   0.610975
    22  H   -0.030392   0.201050
    23  H   -0.516462   0.703068
    24  H    0.370200  -0.241313
    25  H   -0.010424   0.209385
    26  H    0.135234   0.063223
    27  H    0.113390   0.089826
    28  H    0.308561   0.002828
    29  H   -0.432673   0.682547
    30  H   -0.282696   0.467255
    31  H    0.055032   0.041920
    32  H   -0.308238   0.532375
    33  H    0.010114   0.107605
    34  H   -0.294910   0.449120
    35  H    0.035659   0.099586
    36  H    0.018386   0.108873
    37  H    0.111562   0.065194
 Sum of Mulliken charges =  -1.00000   1.00000

 Dipole moment (field-independent basis, Debye):
    X=              1.3002    Y=             -2.3693    Z=             -2.2105  Tot=              3.4915
 Quadrupole moment (field-independent basis, Debye-Ang):
   XX=           -167.0276   YY=           -142.5005   ZZ=           -138.4294
   XY=             -4.4083   XZ=             -0.5166   YZ=             -7.9123

 Summary of Natural Population Analysis:

                                       Natural Population
                Natural  -----------------------------------------------
    Atom  No    Charge         Core      Valence    Rydberg      Total
 -----------------------------------------------------------------------
      C    1   -0.29014      0.99966     2.28476    0.00571     3.29014
      C    2   -0.18509      0.99962     2.17710    0.00837     3.18509
      C    3   -0.11505      0.99959     2.10409    0.01136     3.11505
      C    4   -0.19245      0.99962     2.18414    0.00870     3.19245
      C    5   -0.08475      0.99962     2.07435    0.01078     3.08475
      N    6   -0.26985      0.99964     2.76109    0.00912     3.76985
      C    7   -0.07979      0.99961     2.06888    0.01131     3.07979
      C    8    0.41347      0.99965     1.56445    0.02242     2.58653
      O    9   -0.34480      0.99988     3.34021    0.00471     4.34480
      N   10   -0.33805      0.99968     2.82832    0.01005     3.83805
      C   11   -0.01420      0.99959     1.99973    0.01488     3.01420
      C   12   -0.19256      0.99961     2.18412    0.00883     3.19256
      C   13   -0.11201      0.99962     2.10049    0.01190     3.11201
      C   14   -0.18496      0.99962     2.17633    0.00901     3.18496
      C   15   -0.28797      0.99964     2.28170    0.00662     3.28797
      H   16    0.09791      0.00000     0.40064    0.00145     0.40209
      H   17    0.09942      0.00000     0.39969    0.00089     0.40058
      H   18    0.09796      0.00000     0.40048    0.00155     0.40204
      H   19    0.09686      0.00000     0.40182    0.00132     0.40314
      H   20    0.09406      0.00000     0.40488    0.00106     0.40594
      H   21    0.10321      0.00000     0.39561    0.00118     0.39679
      H   22    0.10126      0.00000     0.39745    0.00129     0.39874
      H   23    0.10517      0.00000     0.39338    0.00145     0.39483
      H   24    0.09515      0.00000     0.40290    0.00195     0.40485
      H   25    0.10138      0.00000     0.39718    0.00144     0.39862
      H   26    0.10019      0.00000     0.39885    0.00096     0.39981
      H   27    0.09996      0.00000     0.39912    0.00093     0.40004
      H   28    0.18993      0.00000     0.30776    0.00231     0.31007
      H   29    0.09453      0.00000     0.40331    0.00217     0.40547
      H   30    0.10529      0.00000     0.39284    0.00186     0.39471
      H   31    0.10176      0.00000     0.39642    0.00181     0.39824
      H   32    0.09651      0.00000     0.40190    0.00159     0.40349
      H   33    0.09262      0.00000     0.40635    0.00103     0.40738
      H   34    0.10688      0.00000     0.39143    0.00169     0.39312
      H   35    0.09925      0.00000     0.40001    0.00075     0.40075
      H   36    0.09594      0.00000     0.40329    0.00077     0.40406
      H   37    0.10295      0.00000     0.39602    0.00103     0.39705
 =======================================================================
   * Total *    0.00000     14.99464    42.82111    0.18425    58.00000

 Normal termination of Gaussian 16 at Thu Dec 10 17:06:35 2020.
