 Gaussian 16, Revision A.03,

 -----------------------------------------------------------
 # opt freq B3LYP/6-31G(d) empiricaldispersion=gd3bj scf=xqc
 -----------------------------------------------------------

 -------------------------------
 CID_114387196_JID_6323_neutraal
 -------------------------------
 Symbolic Z-matrix:
 Charge =  0 Multiplicity = 1

 SCF Done:  E(RB3LYP) =  -739.074606151     A.U. after   15 cycles
 SCF Done:  E(RB3LYP) =  -739.083168619     A.U. after   13 cycles
 SCF Done:  E(RB3LYP) =  -739.082096322     A.U. after   13 cycles
 SCF Done:  E(RB3LYP) =  -739.075608644     A.U. after   14 cycles
 SCF Done:  E(RB3LYP) =  -739.078732210     A.U. after   13 cycles
 SCF Done:  E(RB3LYP) =  -739.083874774     A.U. after   11 cycles
 SCF Done:  E(RB3LYP) =  -739.084973384     A.U. after   12 cycles
 SCF Done:  E(RB3LYP) =  -739.085333857     A.U. after   12 cycles
 SCF Done:  E(RB3LYP) =  -739.085443314     A.U. after   11 cycles
 SCF Done:  E(RB3LYP) =  -739.085463083     A.U. after   11 cycles
 SCF Done:  E(RB3LYP) =  -739.085496711     A.U. after   10 cycles
 SCF Done:  E(RB3LYP) =  -739.085499720     A.U. after   10 cycles
 SCF Done:  E(RB3LYP) =  -739.085502608     A.U. after    9 cycles
 SCF Done:  E(RB3LYP) =  -739.085503276     A.U. after    8 cycles
 SCF Done:  E(RB3LYP) =  -739.085503316     A.U. after    7 cycles
 Optimization completed.
    -- Stationary point found.
 Normal termination of Gaussian 16 at Thu Dec 10 22:15:44 2020.

 --------------------------------------------------------------------
 #N Geom=AllCheck Guess=TCheck SCRF=Check GenChk RB3LYP/6-31G(d) Freq
 --------------------------------------------------------------------

 Structure from the checkpoint file:  "JID_6323.chk"
 -------------------------------
 CID_114387196_JID_6323_neutraal
 -------------------------------
 Charge =  0 Multiplicity = 1

 SCF Done:  E(RB3LYP) =  -739.085503316     A.U. after    1 cycles

  Exact polarizability: 192.380 -11.356 134.160  -1.402   1.728  94.835
 Approx polarizability: 272.880 -24.698 225.981  -7.122   6.911 139.664

                      1                      2                      3
                      A                      A                      A
 Frequencies --     23.9524                50.6362                83.3090
 Red. masses --      4.4631                 4.9206                 3.2094
 Frc consts  --      0.0015                 0.0074                 0.0131
 IR Inten    --      0.3043                 0.1557                 0.9002

                      4                      5                      6
                      A                      A                      A
 Frequencies --     96.6185               114.8715               115.6421
 Red. masses --      4.3496                 2.4085                 2.0838
 Frc consts  --      0.0239                 0.0187                 0.0164
 IR Inten    --      0.2250                 1.4653                 0.1118

                      7                      8                      9
                      A                      A                      A
 Frequencies --    124.0276               159.5508               185.0277
 Red. masses --      1.8287                 1.0913                 4.0264
 Frc consts  --      0.0166                 0.0164                 0.0812
 IR Inten    --      3.5979                 0.3744                 1.0198

                     10                     11                     12
                      A                      A                      A
 Frequencies --    202.1697               237.1610               268.0863
 Red. masses --      3.9634                 3.9344                 2.5351
 Frc consts  --      0.0954                 0.1304                 0.1073
 IR Inten    --      0.7671                 1.1875                 6.3192

                     13                     14                     15
                      A                      A                      A
 Frequencies --    276.1969               287.1906               320.4596
 Red. masses --      1.7078                 2.5038                 3.0279
 Frc consts  --      0.0768                 0.1217                 0.1832
 IR Inten    --     15.7378                 1.5814                 0.5385

                     16                     17                     18
                      A                      A                      A
 Frequencies --    341.2002               356.4825               390.9221
 Red. masses --      4.0887                 1.5976                 4.9541
 Frc consts  --      0.2804                 0.1196                 0.4461
 IR Inten    --      3.7044                83.9972                 5.7337

                     19                     20                     21
                      A                      A                      A
 Frequencies --    441.0341               452.8877               470.9141
 Red. masses --      3.7731                 7.7772                 3.6803
 Frc consts  --      0.4324                 0.9398                 0.4809
 IR Inten    --     18.2918                 0.6733                10.7433

                     22                     23                     24
                      A                      A                      A
 Frequencies --    555.8475               592.0270               636.6979
 Red. masses --      5.1322                 4.5462                 3.5364
 Frc consts  --      0.9342                 0.9388                 0.8447
 IR Inten    --      2.0807                 3.3936                 0.8684

                     25                     26                     27
                      A                      A                      A
 Frequencies --    662.3697               680.4672               708.0853
 Red. masses --      4.7823                 4.9936                 1.8600
 Frc consts  --      1.2362                 1.3623                 0.5495
 IR Inten    --      6.5749                14.8859                41.4879

                     28                     29                     30
                      A                      A                      A
 Frequencies --    762.0156               771.4869               795.6027
 Red. masses --      6.0268                 1.5921                 1.3621
 Frc consts  --      2.0619                 0.5583                 0.5080
 IR Inten    --      4.9256                39.9022                10.9481

                     31                     32                     33
                      A                      A                      A
 Frequencies --    806.2710               847.5124               861.3666
 Red. masses --      6.5047                 2.6930                 1.3056
 Frc consts  --      2.4914                 1.1397                 0.5707
 IR Inten    --      6.0069                 4.6248               126.8807

                     34                     35                     36
                      A                      A                      A
 Frequencies --    899.1174               957.2079               965.7903
 Red. masses --      2.5208                 1.8740                 1.4041
 Frc consts  --      1.2007                 1.0117                 0.7716
 IR Inten    --      0.9964                11.3372                 5.8004

                     37                     38                     39
                      A                      A                      A
 Frequencies --    972.2087               982.7942              1035.6476
 Red. masses --      3.9711                 1.8718                 1.9405
 Frc consts  --      2.2115                 1.0652                 1.2263
 IR Inten    --     19.0118                42.0219                 2.8259

                     40                     41                     42
                      A                      A                      A
 Frequencies --   1039.2921              1049.1461              1068.8709
 Red. masses --      1.5235                 1.4240                 3.3801
 Frc consts  --      0.9696                 0.9235                 2.2753
 IR Inten    --     18.8575                 3.3225                16.0111

                     43                     44                     45
                      A                      A                      A
 Frequencies --   1080.4317              1084.1498              1089.0650
 Red. masses --      1.5340                 1.6373                 1.4612
 Frc consts  --      1.0550                 1.1338                 1.0211
 IR Inten    --      4.3517                 0.0736                 4.3778

                     46                     47                     48
                      A                      A                      A
 Frequencies --   1094.5626              1168.6348              1193.7781
 Red. masses --      2.5560                 4.7620                 1.4631
 Frc consts  --      1.8043                 3.8318                 1.2285
 IR Inten    --      5.9656               141.5390                11.5940

                     49                     50                     51
                      A                      A                      A
 Frequencies --   1210.1052              1219.6587              1228.8708
 Red. masses --      2.5278                 2.6823                 2.0243
 Frc consts  --      2.1810                 2.3509                 1.8011
 IR Inten    --     36.0917                10.8285                73.9920

                     52                     53                     54
                      A                      A                      A
 Frequencies --   1284.4614              1312.5952              1330.8386
 Red. masses --      2.5618                 1.6347                 2.4387
 Frc consts  --      2.4902                 1.6594                 2.5448
 IR Inten    --     19.0428                38.5421               119.5505

                     55                     56                     57
                      A                      A                      A
 Frequencies --   1380.3550              1406.1832              1425.4682
 Red. masses --      4.1969                 2.3819                 1.3612
 Frc consts  --      4.7115                 2.7750                 1.6296
 IR Inten    --    104.1252               162.4356                 8.4612

                     58                     59                     60
                      A                      A                      A
 Frequencies --   1442.4743              1449.3011              1468.1953
 Red. masses --      1.3322                 1.5129                 2.4071
 Frc consts  --      1.6332                 1.8724                 3.0571
 IR Inten    --      8.3018                34.5213                 3.3873

                     61                     62                     63
                      A                      A                      A
 Frequencies --   1493.2419              1497.6572              1504.0420
 Red. masses --      1.0916                 1.2788                 1.0528
 Frc consts  --      1.4341                 1.6900                 1.4032
 IR Inten    --      1.3244                 1.1233                 0.3825

                     64                     65                     66
                      A                      A                      A
 Frequencies --   1511.9343              1517.3275              1531.7184
 Red. masses --      1.2133                 1.0437                 1.2850
 Frc consts  --      1.6341                 1.4158                 1.7762
 IR Inten    --     17.6110                16.6583                 1.3804

                     67                     68                     69
                      A                      A                      A
 Frequencies --   1539.7975              1544.4505              1591.7404
 Red. masses --      1.3049                 2.5011                 4.5107
 Frc consts  --      1.8229                 3.5151                 6.7335
 IR Inten    --     84.5031               354.9232                87.8923

                     70                     71                     72
                      A                      A                      A
 Frequencies --   1604.1642              1679.0277              1789.5373
 Red. masses --      5.9329                 1.0924                 9.1119
 Frc consts  --      8.9952                 1.8145                17.1925
 IR Inten    --    167.2193                27.7383               366.3185

                     73                     74                     75
                      A                      A                      A
 Frequencies --   2941.8153              3045.8525              3052.5071
 Red. masses --      1.0735                 1.0393                 1.0382
 Frc consts  --      5.4739                 5.6808                 5.6997
 IR Inten    --     88.7451                21.1737                 8.1273

                     76                     77                     78
                      A                      A                      A
 Frequencies --   3071.8215              3095.3650              3105.9357
 Red. masses --      1.0880                 1.1007                 1.0998
 Frc consts  --      6.0486                 6.2136                 6.2510
 IR Inten    --     30.7111                16.6651                 6.0828

                     79                     80                     81
                      A                      A                      A
 Frequencies --   3147.1595              3151.5805              3158.7537
 Red. masses --      1.0525                 1.0585                 1.0994
 Frc consts  --      6.1418                 6.1944                 6.4633
 IR Inten    --     19.6259                11.3576                10.2629

                     82                     83                     84
                      A                      A                      A
 Frequencies --   3158.9184              3222.8132              3237.4625
 Red. masses --      1.1010                 1.1187                 1.1157
 Frc consts  --      6.4731                 6.8461                 6.8897
 IR Inten    --      4.9252                 1.9782                15.1296

                     85                     86                     87
                      A                      A                      A
 Frequencies --   3483.9354              3570.9493              3579.9236
 Red. masses --      1.0490                 1.0750                 1.0938
 Frc consts  --      7.5017                 8.0768                 8.2592
 IR Inten    --     11.4886                53.7906                 6.5465

 - Thermochemistry -
 -------------------
 Temperature   298.150 Kelvin.  Pressure   1.00000 Atm.
 Atom     1 has atomic number  6 and mass  12.00000

 Molecular mass:   221.12766 amu.
 Principal axes and moments of inertia in atomic units:
                           1         2         3
     Eigenvalues --  1832.725665102.756505872.12377
           X            0.99999  -0.00313   0.00166
           Y            0.00315   0.99994  -0.01083
           Z           -0.00163   0.01084   0.99994
 This molecule is an asymmetric top.
 Rotational symmetry number  1.
 Warning -- assumption of classical behavior for rotation
           may cause significant error
 Rotational temperatures (Kelvin)      0.04726     0.01697     0.01475
 Rotational constants (GHZ):           0.98473     0.35368     0.30734
 Zero-point vibrational energy     671982.7 (Joules/Mol)
                                  160.60771 (Kcal/Mol)
 Warning -- explicit consideration of  23 degrees of freedom as
           vibrations may cause significant error
 Vibrational temperatures:     34.46    72.85   119.86   139.01   165.27
          (Kelvin)            166.38   178.45   229.56   266.21   290.88
                              341.22   385.72   397.39   413.20   461.07
                              490.91   512.90   562.45   634.55   651.60
                              677.54   799.74   851.79   916.07   953.00
                              979.04  1018.78  1096.37  1110.00  1144.69
                             1160.04  1219.38  1239.31  1293.63  1377.21
                             1389.56  1398.79  1414.02  1490.07  1495.31
                             1509.49  1537.87  1554.50  1559.85  1566.92
                             1574.83  1681.40  1717.58  1741.07  1754.82
                             1768.07  1848.05  1888.53  1914.78  1986.02
                             2023.18  2050.93  2075.40  2085.22  2112.41
                             2148.44  2154.79  2163.98  2175.34  2183.10
                             2203.80  2215.43  2222.12  2290.16  2308.03
                             2415.75  2574.74  4232.62  4382.30  4391.88
                             4419.67  4453.54  4468.75  4528.06  4534.42
                             4544.74  4544.98  4636.91  4657.99  5012.61
                             5137.80  5150.71

 Zero-point correction=                           0.255945 (Hartree/Particle)
 Thermal correction to Energy=                    0.271913
 Thermal correction to Enthalpy=                  0.272857
 Thermal correction to Gibbs Free Energy=         0.212095
 Sum of electronic and zero-point Energies=           -738.829559
 Sum of electronic and thermal Energies=              -738.813591
 Sum of electronic and thermal Enthalpies=            -738.812647
 Sum of electronic and thermal Free Energies=         -738.873409

                     E (Thermal)             CV                S
                      KCal/Mol        Cal/Mol-Kelvin    Cal/Mol-Kelvin
 Total                  170.628             59.429            127.885
 Electronic               0.000              0.000              0.000
 Translational            0.889              2.981             42.083
 Rotational               0.889              2.981             32.374
 Vibrational            168.850             53.468             53.428
 Vibration     1          0.593              1.985              6.276
 Vibration     2          0.595              1.977              4.792
 Vibration     3          0.600              1.961              3.811
 Vibration     4          0.603              1.952              3.521
 Vibration     5          0.608              1.937              3.185
 Vibration     6          0.608              1.936              3.172
 Vibration     7          0.610              1.929              3.037
 Vibration     8          0.621              1.892              2.555
 Vibration     9          0.631              1.860              2.277
 Vibration    10          0.639              1.837              2.113
 Vibration    11          0.656              1.784              1.824
 Vibration    12          0.673              1.732              1.609
 Vibration    13          0.678              1.717              1.557
 Vibration    14          0.684              1.698              1.490
 Vibration    15          0.706              1.634              1.308
 Vibration    16          0.721              1.593              1.207
 Vibration    17          0.732              1.562              1.137
 Vibration    18          0.759              1.490              0.997
 Vibration    19          0.801              1.381              0.823
 Vibration    20          0.811              1.355              0.787
 Vibration    21          0.828              1.315              0.735
 Vibration    22          0.911              1.127              0.532
 Vibration    23          0.950              1.049              0.464

                           ! Non-Optimized Parameters !
 Normal termination of Gaussian 16 at Thu Dec 10 22:27:10 2020.

 ----------------------------------------------------------------------
 # B3LYP/6-311++G(d,p) empiricaldispersion=gd3bj scf=xqc pop=npa geom=c
 heck
 ----------------------------------------------------------------------

 ---------------------------------------
 CID_114387196_JID_6323_Energie_neutraal
 ---------------------------------------
 Structure from the checkpoint file:  "JID_6323.chk"
 Charge =  0 Multiplicity = 1

 SCF Done:  E(RB3LYP) =  -739.295711580     A.U. after   15 cycles
 Normal termination of Gaussian 16 at Thu Dec 10 22:32:27 2020.

 ----------------------------------------------------------------------
 # B3LYP/6-311++G(d,p) empiricaldispersion=gd3bj scf=xqc pop=npa geom=c
 heck
 ----------------------------------------------------------------------

 -------------------------------------
 CID_114387196_JID_6323_Energie_kation
 -------------------------------------
 Structure from the checkpoint file:  "JID_6323.chk"
 Charge =  1 Multiplicity = 2

 SCF Done:  E(UB3LYP) =  -738.985929287     A.U. after   33 cycles
 SCF Done:  E(UB3LYP) =  -738.985929287     a.u. after    2 cycles
 Normal termination of Gaussian 16 at Thu Dec 10 23:04:13 2020.
 Gaussian 16:  ES64L-G16RevA.03 25-Dec-2016

 ----------------------------------------------------------------------
 # B3LYP/6-311++G(d,p) empiricaldispersion=gd3bj scf=xqc pop=npa geom=c
 heck
 ----------------------------------------------------------------------

 ------------------------------------
 CID_114387196_JID_6323_Energie_anion
 ------------------------------------
 Structure from the checkpoint file:  "JID_6323.chk"
 Charge = -1 Multiplicity = 2

                         Standard orientation:
 ---------------------------------------------------------------------
 Center     Atomic      Atomic             Coordinates (Angstroms)
 Number     Number       Type             X           Y           Z
 ---------------------------------------------------------------------
      1          6           0        2.220778   -2.217844   -0.102774
      2          6           0        1.972488   -0.738181   -0.052739
      3          6           0        3.030253    0.196275   -0.069279
      4          7           0        2.765638    1.505260    0.004956
      5          7           0        1.512910    1.925950    0.064541
      6          6           0        0.529893    1.002473    0.060557
      7          7           0        0.710095   -0.326162    0.023731
      8          7           0       -0.729455    1.565633    0.111512
      9          6           0       -2.040227    1.077867    0.088191
     10          8           0       -2.938469    1.861192    0.342640
     11          6           0       -2.317074   -0.355158   -0.289062
     12          6           0       -3.177594   -0.566769   -1.511920
     13          6           0       -1.718368   -0.942518   -1.538088
     14          6           0       -2.599690   -1.235376    0.918832
     15          7           0       -1.525405   -1.126463    1.902976
     16          6           0        4.474469   -0.204596   -0.151164
     17          1           0        1.269799   -2.754299   -0.094640
     18          1           0        2.776825   -2.491875   -1.007257
     19          1           0        2.824804   -2.543919    0.752665
     20          1           0       -0.697040    2.565533    0.285066
     21          1           0       -3.921207   -1.358141   -1.464029
     22          1           0       -3.497238    0.312805   -2.062008
     23          1           0       -1.045177   -0.323449   -2.123492
     24          1           0       -1.442372   -1.993325   -1.514162
     25          1           0       -3.525767   -0.883762    1.389533
     26          1           0       -2.792707   -2.260027    0.549382
     27          1           0       -1.722173   -1.713869    2.710120
     28          1           0       -0.651296   -1.435488    1.484976
     29          1           0        4.764263   -0.843954    0.691939
     30          1           0        4.685817   -0.766001   -1.069764
     31          1           0        5.095169    0.693671   -0.138784
 ---------------------------------------------------------------------

 SCF Done:  E(UB3LYP) =  -739.313277741     A.U. after   31 cycles

 The electronic state is 2-A.
 Alpha  occ. eigenvalues --  -18.97286 -14.21487 -14.17558 -14.15677 -14.14854
 Alpha  occ. eigenvalues --  -14.13319 -10.15785 -10.11375 -10.09276 -10.07993
 Alpha  occ. eigenvalues --  -10.06884 -10.06566 -10.04544 -10.04485 -10.04177
 Alpha  occ. eigenvalues --  -10.04080  -0.92716  -0.86805  -0.79975  -0.78104
 Alpha  occ. eigenvalues --   -0.75472  -0.74659  -0.67329  -0.60261  -0.58936
 Alpha  occ. eigenvalues --   -0.57857  -0.52648  -0.49945  -0.49426  -0.48656
 Alpha  occ. eigenvalues --   -0.42908  -0.40377  -0.39529  -0.38701  -0.36220
 Alpha  occ. eigenvalues --   -0.35287  -0.33505  -0.32199  -0.31495  -0.30476
 Alpha  occ. eigenvalues --   -0.29923  -0.28682  -0.28198  -0.27347  -0.26878
 Alpha  occ. eigenvalues --   -0.26627  -0.26255  -0.25747  -0.24815  -0.20090
 Alpha  occ. eigenvalues --   -0.19060  -0.18724  -0.16529  -0.16319  -0.14364
 Alpha  occ. eigenvalues --   -0.13902  -0.13028  -0.09471  -0.06055   0.04504
 Alpha virt. eigenvalues --    0.07297   0.08407   0.08748   0.09977   0.10501
 Alpha virt. eigenvalues --    0.10511   0.11123   0.11568   0.12481   0.12663
 Alpha virt. eigenvalues --    0.13252   0.13359   0.14028   0.14719   0.15078

  Beta  occ. eigenvalues --  -18.97270 -14.21501 -14.17543 -14.15367 -14.14040
  Beta  occ. eigenvalues --  -14.12750 -10.15760 -10.11454 -10.09271 -10.07995
  Beta  occ. eigenvalues --  -10.06879 -10.06564 -10.04609 -10.04213 -10.04120
  Beta  occ. eigenvalues --  -10.04079  -0.92681  -0.86095  -0.79634  -0.78074
  Beta  occ. eigenvalues --   -0.74690  -0.74391  -0.66937  -0.59943  -0.58730
  Beta  occ. eigenvalues --   -0.57723  -0.52537  -0.49898  -0.49197  -0.48045
  Beta  occ. eigenvalues --   -0.42742  -0.40281  -0.39276  -0.38605  -0.36131
  Beta  occ. eigenvalues --   -0.35214  -0.33466  -0.31581  -0.31332  -0.30347
  Beta  occ. eigenvalues --   -0.29796  -0.28560  -0.28045  -0.27274  -0.26559
  Beta  occ. eigenvalues --   -0.26476  -0.26182  -0.25328  -0.24282  -0.20010
  Beta  occ. eigenvalues --   -0.18755  -0.17460  -0.15880  -0.14201  -0.13743
  Beta  occ. eigenvalues --   -0.13214  -0.12911  -0.08246  -0.05271
  Beta virt. eigenvalues --    0.07221   0.08349   0.08682   0.09876   0.10439
  Beta virt. eigenvalues --    0.10658   0.11040   0.11470   0.12427   0.12601
  Beta virt. eigenvalues --    0.12992   0.13196   0.13452   0.14042   0.14672

 Mulliken charges and spin densities:
               1          2
     1  C   -0.494340  -0.057810
     2  C    0.278502   0.273728
     3  C   -0.144423  -0.051764
     4  N   -0.183376   0.411578
     5  N   -0.126156   0.104141
     6  C   -0.349207  -0.000514
     7  N   -0.005482   0.281053
     8  N   -0.231774  -0.005004
     9  C   -0.344696   0.029995
    10  O   -0.293738   0.006480
    11  C    0.549730   0.031263
    12  C   -0.361905  -0.003766
    13  C   -0.237247   0.001871
    14  C   -0.448606  -0.125517
    15  N   -0.404154   0.016198
    16  C   -0.472261  -0.046255
    17  H    0.079220   0.002388
    18  H    0.118676   0.007440
    19  H    0.082085   0.046327
    20  H    0.325449  -0.002183
    21  H    0.117319   0.001232
    22  H    0.168850   0.000721
    23  H    0.194754   0.000028
    24  H    0.117035  -0.001406
    25  H    0.173066   0.004043
    26  H    0.078695   0.029173
    27  H    0.187161   0.035806
    28  H    0.263322   0.017596
    29  H    0.112844   0.000771
    30  H    0.116398  -0.003810
    31  H    0.134260  -0.003801
 Sum of Mulliken charges =  -1.00000   1.00000

 Dipole moment (field-independent basis, Debye):
    X=             -2.8075    Y=             -6.3722    Z=             -1.2920  Tot=              7.0821
 Quadrupole moment (field-independent basis, Debye-Ang):
   XX=           -139.5821   YY=           -119.5756   ZZ=           -104.2199
   XY=             -1.6308   XZ=              1.8571   YZ=             -3.0243

 Summary of Natural Population Analysis:

                                       Natural Population
                Natural  -----------------------------------------------
    Atom  No    Charge         Core      Valence    Rydberg      Total
 -----------------------------------------------------------------------
      C    1   -0.30220      0.99965     2.29759    0.00496     3.30220
      C    2    0.17174      0.99952     1.81630    0.01244     2.82826
      C    3    0.03032      0.99951     1.95642    0.01374     2.96968
      N    4   -0.01439      0.99968     2.49564    0.01908     3.51439
      N    5   -0.13671      0.99969     2.62039    0.01663     3.63671
      C    6    0.26153      0.99960     1.71882    0.02005     2.73847
      N    7   -0.20673      0.99963     2.69376    0.01334     3.70673
      N    8   -0.30855      0.99962     2.79715    0.01178     3.80855
      C    9    0.35954      0.99960     1.61676    0.02409     2.64046
      O   10   -0.32233      0.99987     3.31642    0.00604     4.32233
      C   11   -0.08218      0.99950     2.06730    0.01539     3.08218
      C   12   -0.19171      0.99961     2.18580    0.00630     3.19171
      C   13   -0.18146      0.99960     2.17334    0.00852     3.18146
      C   14   -0.07753      0.99959     2.06697    0.01097     3.07753
      N   15   -0.42542      0.99976     2.91508    0.01057     3.92542
      C   16   -0.29467      0.99965     2.28990    0.00513     3.29467
      H   17    0.09939      0.00000     0.39855    0.00207     0.40061
      H   18    0.09928      0.00000     0.39960    0.00112     0.40072
      H   19    0.09910      0.00000     0.39922    0.00168     0.40090
      H   20    0.20202      0.00000     0.29609    0.00189     0.29798
      H   21    0.09494      0.00000     0.40392    0.00114     0.40506
      H   22    0.10424      0.00000     0.39479    0.00098     0.39576
      H   23    0.11027      0.00000     0.38886    0.00088     0.38973
      H   24    0.10033      0.00000     0.39863    0.00105     0.39967
      H   25    0.09148      0.00000     0.40680    0.00172     0.40852
      H   26    0.07317      0.00000     0.42483    0.00200     0.42683
      H   27    0.16670      0.00000     0.33157    0.00174     0.33330
      H   28    0.19148      0.00000     0.30613    0.00239     0.30852
      H   29    0.09251      0.00000     0.40593    0.00155     0.40749
      H   30    0.09233      0.00000     0.40650    0.00118     0.40767
      H   31    0.10353      0.00000     0.39279    0.00367     0.39647
 =======================================================================
   * Total *    0.00000     15.99408    42.78184    0.22408    59.00000

 Normal termination of Gaussian 16 at Thu Dec 10 23:19:38 2020.
