 Gaussian 16, Revision A.03,

 -----------------------------------------------------------
 # opt freq B3LYP/6-31G(d) empiricaldispersion=gd3bj scf=xqc
 -----------------------------------------------------------

 ------------------------------
 CID_70542579_JID_5996_neutraal
 ------------------------------
 Symbolic Z-matrix:
 Charge =  0 Multiplicity = 1

 SCF Done:  E(RB3LYP) =  -722.331910127     A.U. after   15 cycles
 SCF Done:  E(RB3LYP) =  -722.338517885     A.U. after   12 cycles
 SCF Done:  E(RB3LYP) =  -722.339247811     A.U. after   12 cycles
 SCF Done:  E(RB3LYP) =  -722.340255335     A.U. after   11 cycles
 SCF Done:  E(RB3LYP) =  -722.340505968     A.U. after   11 cycles
 SCF Done:  E(RB3LYP) =  -722.340562351     A.U. after   10 cycles
 SCF Done:  E(RB3LYP) =  -722.340567004     A.U. after    9 cycles
 SCF Done:  E(RB3LYP) =  -722.340574289     A.U. after    8 cycles
 SCF Done:  E(RB3LYP) =  -722.340575243     A.U. after    8 cycles
 SCF Done:  E(RB3LYP) =  -722.340575376     A.U. after    7 cycles
 SCF Done:  E(RB3LYP) =  -722.340575439     A.U. after    6 cycles
 Optimization completed.
    -- Stationary point found.
 Normal termination of Gaussian 16 at Thu Dec 10 17:40:04 2020.

 --------------------------------------------------------------------
 #N Geom=AllCheck Guess=TCheck SCRF=Check GenChk RB3LYP/6-31G(d) Freq
 --------------------------------------------------------------------

 Structure from the checkpoint file:  "JID_5996.chk"
 ------------------------------
 CID_70542579_JID_5996_neutraal
 ------------------------------
 Charge =  0 Multiplicity = 1

 SCF Done:  E(RB3LYP) =  -722.340575439     A.U. after    1 cycles

  Exact polarizability: 206.213  -0.471 121.738  -0.002  -0.001  55.780
 Approx polarizability: 280.228   1.195 219.855   0.002  -0.002  86.411

                      1                      2                      3
                      A                      A                      A
 Frequencies --     39.1151                60.0392               128.9927
 Red. masses --      7.3088                 7.3764                 4.7207
 Frc consts  --      0.0066                 0.0157                 0.0463
 IR Inten    --      0.1052                 1.5108                 0.0035

                      4                      5                      6
                      A                      A                      A
 Frequencies --    130.0103               137.7842               153.1977
 Red. masses --      6.0208                 2.1492                 1.3122
 Frc consts  --      0.0600                 0.0240                 0.0181
 IR Inten    --      1.5498                 0.8683                 0.7873

                      7                      8                      9
                      A                      A                      A
 Frequencies --    190.0547               266.8383               268.3457
 Red. masses --      1.1360                 4.1943                 5.8161
 Frc consts  --      0.0242                 0.1760                 0.2468
 IR Inten    --      0.1811                 0.2579                 5.0371

                     10                     11                     12
                      A                      A                      A
 Frequencies --    310.9435               328.7713               346.9174
 Red. masses --      2.7049                 4.6588                 6.2338
 Frc consts  --      0.1541                 0.2967                 0.4420
 IR Inten    --      0.7665                 0.0281                 6.2807

                     13                     14                     15
                      A                      A                      A
 Frequencies --    395.6091               396.1209               442.0492
 Red. masses --      6.4609                 4.2557                 2.9085
 Frc consts  --      0.5958                 0.3934                 0.3349
 IR Inten    --      4.0840                 0.1979                 0.1310

                     16                     17                     18
                      A                      A                      A
 Frequencies --    482.9335               530.6454               544.2289
 Red. masses --      5.9622                 6.5233                 1.2779
 Frc consts  --      0.8193                 1.0822                 0.2230
 IR Inten    --      4.1437                22.2833                94.9312

                     19                     20                     21
                      A                      A                      A
 Frequencies --    569.9155               587.1613               653.9255
 Red. masses --      1.1056                 3.5426                 3.7186
 Frc consts  --      0.2116                 0.7196                 0.9369
 IR Inten    --    120.6336                 0.3358                 1.1363

                     22                     23                     24
                      A                      A                      A
 Frequencies --    673.1115               697.5079               752.2114
 Red. masses --      5.1259                 4.5993                 6.0608
 Frc consts  --      1.3683                 1.3184                 2.0205
 IR Inten    --     36.0025                 0.0837                 1.8624

                     25                     26                     27
                      A                      A                      A
 Frequencies --    756.9525               765.9616               773.4491
 Red. masses --      5.8029                 8.3208                 6.7455
 Frc consts  --      1.9590                 2.8763                 2.3775
 IR Inten    --      7.7917                46.4551                 0.1054

                     28                     29                     30
                      A                      A                      A
 Frequencies --    800.5951               853.7510               891.6498
 Red. masses --      6.4636                 1.3422                 3.0886
 Frc consts  --      2.4409                 0.5764                 1.4468
 IR Inten    --      5.1238                16.2714                 5.3778

                     31                     32                     33
                      A                      A                      A
 Frequencies --    894.7375               990.9566              1031.7698
 Red. masses --      1.3530                 8.0275                 1.4018
 Frc consts  --      0.6382                 4.6445                 0.8792
 IR Inten    --      6.1882                15.1420                25.8506

                     34                     35                     36
                      A                      A                      A
 Frequencies --   1040.9385              1061.3651              1084.4163
 Red. masses --      1.5372                 1.4156                 1.5638
 Frc consts  --      0.9814                 0.9395                 1.0835
 IR Inten    --      0.7721                 5.7509                 0.0042

                     37                     38                     39
                      A                      A                      A
 Frequencies --   1088.2210              1136.9643              1191.0724
 Red. masses --      5.2194                 4.3584                 1.6075
 Frc consts  --      3.6417                 3.3195                 1.3436
 IR Inten    --     23.0370                 6.3229                 4.1663

                     40                     41                     42
                      A                      A                      A
 Frequencies --   1213.4041              1239.3741              1265.9285
 Red. masses --      2.2778                 2.1670                 3.6945
 Frc consts  --      1.9759                 1.9612                 3.4884
 IR Inten    --    276.2281               552.6752                 3.2393

                     43                     44                     45
                      A                      A                      A
 Frequencies --   1289.4079              1342.9134              1384.2344
 Red. masses --      1.4430                 8.3514                 5.7751
 Frc consts  --      1.4135                 8.8737                 6.5197
 IR Inten    --     11.2586                22.7222                 1.6132

                     46                     47                     48
                      A                      A                      A
 Frequencies --   1437.8570              1439.6089              1452.9444
 Red. masses --      2.2141                 1.4762                 1.2542
 Frc consts  --      2.6970                 1.8026                 1.5599
 IR Inten    --    475.8364               108.7862                 1.0430

                     49                     50                     51
                      A                      A                      A
 Frequencies --   1464.1314              1501.6866              1506.3967
 Red. masses --      4.6249                 1.8414                 1.0453
 Frc consts  --      5.8414                 2.4465                 1.3976
 IR Inten    --    247.3309               126.8718                 0.0109

                     52                     53                     54
                      A                      A                      A
 Frequencies --   1513.8948              1523.3971              1529.7445
 Red. masses --      3.1376                 1.0441                 1.1002
 Frc consts  --      4.2368                 1.4276                 1.5169
 IR Inten    --     12.3066                14.1463                 0.5945

                     55                     56                     57
                      A                      A                      A
 Frequencies --   1541.0350              1603.8373              1627.3603
 Red. masses --      1.8765                 7.2126                 7.6476
 Frc consts  --      2.6256                10.9311                11.9328
 IR Inten    --     11.6733               196.0917                 4.7077

                     58                     59                     60
                      A                      A                      A
 Frequencies --   1698.4100              1835.3645              3036.0936
 Red. masses --      7.2687                 9.8611                 1.0392
 Frc consts  --     12.3535                19.5714                 5.6438
 IR Inten    --     27.8534               325.7503                11.7965

                     61                     62                     63
                      A                      A                      A
 Frequencies --   3038.0590              3082.4389              3084.3333
 Red. masses --      1.0379                 1.1003                 1.1003
 Frc consts  --      5.6444                 6.1596                 6.1669
 IR Inten    --     72.6534                30.3724                15.4375

                     64                     65                     66
                      A                      A                      A
 Frequencies --   3125.2183              3129.0250              3192.5092
 Red. masses --      1.0999                 1.0993                 1.0910
 Frc consts  --      6.3296                 6.3413                 6.5512
 IR Inten    --     28.4950                12.2208                14.8207

                     67                     68                     69
                      A                      A                      A
 Frequencies --   3205.9377              3644.2025              3738.1434
 Red. masses --      1.0911                 1.0808                 1.0649
 Frc consts  --      6.6073                 8.4563                 8.7673
 IR Inten    --      8.7185               180.9085               139.3856

 - Thermochemistry -
 -------------------
 Temperature   298.150 Kelvin.  Pressure   1.00000 Atm.
 Atom     1 has atomic number  6 and mass  12.00000

 Molecular mass:   206.06914 amu.
 Principal axes and moments of inertia in atomic units:
                           1         2         3
     Eigenvalues --   893.797406430.952917302.44527
           X            1.00000   0.00011  -0.00000
           Y           -0.00011   1.00000  -0.00001
           Z            0.00000   0.00001   1.00000
 This molecule is an asymmetric top.
 Rotational symmetry number  1.
 Warning -- assumption of classical behavior for rotation
           may cause significant error
 Rotational temperatures (Kelvin)      0.09691     0.01347     0.01186
 Rotational constants (GHZ):           2.01918     0.28063     0.24714
 Zero-point vibrational energy     509227.1 (Joules/Mol)
                                  121.70820 (Kcal/Mol)
 Warning -- explicit consideration of  20 degrees of freedom as
           vibrations may cause significant error
 Vibrational temperatures:     56.28    86.38   185.59   187.06   198.24
          (Kelvin)            220.42   273.45   383.92   386.09   447.38
                              473.03   499.14   569.19   569.93   636.01
                              694.83   763.48   783.02   819.98   844.79
                              940.85   968.46  1003.56  1082.26  1089.09
                             1102.05  1112.82  1151.88  1228.36  1282.89
                             1287.33  1425.77  1484.49  1497.68  1527.07
                             1560.23  1565.71  1635.84  1713.69  1745.82
                             1783.18  1821.39  1855.17  1932.15  1991.60
                             2068.76  2071.28  2090.46  2106.56  2160.59
                             2167.37  2178.16  2191.83  2200.96  2217.21
                             2307.56  2341.41  2443.63  2640.68  4368.26
                             4371.09  4434.94  4437.67  4496.49  4501.97
                             4593.31  4612.63  5243.19  5378.35

 Zero-point correction=                           0.193954 (Hartree/Particle)
 Thermal correction to Energy=                    0.206993
 Thermal correction to Enthalpy=                  0.207937
 Thermal correction to Gibbs Free Energy=         0.154017
 Sum of electronic and zero-point Energies=           -722.146621
 Sum of electronic and thermal Energies=              -722.133583
 Sum of electronic and thermal Enthalpies=            -722.132638
 Sum of electronic and thermal Free Energies=         -722.186558

                     E (Thermal)             CV                S
                      KCal/Mol        Cal/Mol-Kelvin    Cal/Mol-Kelvin
 Total                  129.890             49.894            113.484
 Electronic               0.000              0.000              0.000
 Translational            0.889              2.981             41.873
 Rotational               0.889              2.981             32.107
 Vibrational            128.113             43.932             39.504
 Vibration     1          0.594              1.981              5.303
 Vibration     2          0.597              1.973              4.456
 Vibration     3          0.611              1.924              2.961
 Vibration     4          0.612              1.923              2.946
 Vibration     5          0.614              1.916              2.834
 Vibration     6          0.619              1.899              2.632
 Vibration     7          0.633              1.854              2.227
 Vibration     8          0.672              1.734              1.617
 Vibration     9          0.673              1.731              1.607
 Vibration    10          0.700              1.653              1.357
 Vibration    11          0.712              1.618              1.266
 Vibration    12          0.725              1.582              1.180
 Vibration    13          0.762              1.480              0.979
 Vibration    14          0.763              1.478              0.977
 Vibration    15          0.802              1.378              0.820
 Vibration    16          0.839              1.288              0.702
 Vibration    17          0.886              1.182              0.586
 Vibration    18          0.899              1.152              0.556
 Vibration    19          0.926              1.096              0.504
 Vibration    20          0.944              1.059              0.472

                           ! Non-Optimized Parameters !
 Normal termination of Gaussian 16 at Thu Dec 10 17:46:52 2020.

 ----------------------------------------------------------------------
 # B3LYP/6-311++G(d,p) empiricaldispersion=gd3bj scf=xqc pop=npa geom=c
 heck
 ----------------------------------------------------------------------

 --------------------------------------
 CID_70542579_JID_5996_Energie_neutraal
 --------------------------------------
 Structure from the checkpoint file:  "JID_5996.chk"
 Charge =  0 Multiplicity = 1

 SCF Done:  E(RB3LYP) =  -722.546512080     A.U. after   15 cycles
 Normal termination of Gaussian 16 at Thu Dec 10 17:49:59 2020.

 ----------------------------------------------------------------------
 # B3LYP/6-311++G(d,p) empiricaldispersion=gd3bj scf=xqc pop=npa geom=c
 heck
 ----------------------------------------------------------------------

 ------------------------------------
 CID_70542579_JID_5996_Energie_kation
 ------------------------------------
 Structure from the checkpoint file:  "JID_5996.chk"
 Charge =  1 Multiplicity = 2

 SCF Done:  E(UB3LYP) =  -722.257637663     A.U. after   22 cycles
 Normal termination of Gaussian 16 at Thu Dec 10 17:57:11 2020.
 Gaussian 16:  ES64L-G16RevA.03 25-Dec-2016

 ----------------------------------------------------------------------
 # B3LYP/6-311++G(d,p) empiricaldispersion=gd3bj scf=xqc pop=npa geom=c
 heck
 ----------------------------------------------------------------------

 -----------------------------------
 CID_70542579_JID_5996_Energie_anion
 -----------------------------------
 Structure from the checkpoint file:  "JID_5996.chk"
 Charge = -1 Multiplicity = 2

                         Standard orientation:
 ---------------------------------------------------------------------
 Center     Atomic      Atomic             Coordinates (Angstroms)
 Number     Number       Type             X           Y           Z
 ---------------------------------------------------------------------
      1          6           0        3.993217    1.716500   -0.000077
      2          6           0        2.787627    0.808597    0.000059
      3          6           0        1.508331    1.366397   -0.000015
      4          6           0        0.418401    0.500314   -0.000081
      5          6           0        0.571596   -0.903897   -0.000004
      6          6           0        1.856010   -1.453580    0.000080
      7          6           0        2.961400   -0.604781    0.000133
      8          6           0        4.353309   -1.189966    0.000058
      9          7           0       -0.673412   -1.532803    0.000029
     10          6           0       -1.516058   -0.544354   -0.000077
     11          7           0       -0.956376    0.707855   -0.000197
     12          8           0       -2.868119   -0.780368   -0.000187
     13          6           0       -3.760656    0.225863    0.000051
     14          8           0       -3.528986    1.416617    0.000317
     15          8           0       -4.980172   -0.322124   -0.000051
     16          1           0        4.628164    1.548580    0.879271
     17          1           0        4.626832    1.549999   -0.880691
     18          1           0        3.694237    2.768883    0.000960
     19          1           0        1.378202    2.444950   -0.000035
     20          1           0        1.983603   -2.531802    0.000122
     21          1           0        4.928341   -0.874315    0.880174
     22          1           0        4.317379   -2.283098    0.000464
     23          1           0        4.927943   -0.874899   -0.880529
     24          1           0       -1.486711    1.567488   -0.000071
     25          1           0       -5.610320    0.419297    0.000125
 ---------------------------------------------------------------------

 SCF Done:  E(UB3LYP) =  -722.539091391     A.U. after   33 cycles
 SCF Done:  E(UB3LYP) =  -722.539091391     a.u. after    3 cycles

 The electronic state is 2-A.
 Alpha  occ. eigenvalues --  -19.12355 -19.08880 -19.04410 -14.28380 -14.21634
 Alpha  occ. eigenvalues --  -10.28405 -10.21972 -10.12550 -10.11104 -10.09530
 Alpha  occ. eigenvalues --  -10.09295 -10.09074 -10.08463 -10.08207 -10.07920
 Alpha  occ. eigenvalues --   -1.08793  -1.00497  -0.95601  -0.93282  -0.80671
 Alpha  occ. eigenvalues --   -0.77037  -0.69262  -0.67946  -0.64052  -0.61311
 Alpha  occ. eigenvalues --   -0.57423  -0.53917  -0.51462  -0.50743  -0.47885
 Alpha  occ. eigenvalues --   -0.44103  -0.43060  -0.42957  -0.40020  -0.38375
 Alpha  occ. eigenvalues --   -0.36854  -0.36341  -0.35608  -0.34669  -0.33755
 Alpha  occ. eigenvalues --   -0.32672  -0.31334  -0.30285  -0.30204  -0.29761
 Alpha  occ. eigenvalues --   -0.26926  -0.26641  -0.25206  -0.23908  -0.22744
 Alpha  occ. eigenvalues --   -0.22172  -0.20411  -0.14499  -0.13359   0.03905
 Alpha virt. eigenvalues --    0.05025   0.06080   0.06637   0.07873   0.08637
 Alpha virt. eigenvalues --    0.09334   0.09401   0.09897   0.10052   0.11246
 Alpha virt. eigenvalues --    0.11835   0.12090   0.12831   0.13367   0.13710

  Beta  occ. eigenvalues --  -19.12326 -19.08774 -19.04388 -14.28367 -14.21630
  Beta  occ. eigenvalues --  -10.28397 -10.21965 -10.12549 -10.11103 -10.09529
  Beta  occ. eigenvalues --  -10.09294 -10.09063 -10.08462 -10.08184 -10.07883
  Beta  occ. eigenvalues --   -1.08715  -1.00371  -0.95512  -0.93257  -0.80656
  Beta  occ. eigenvalues --   -0.77027  -0.69230  -0.67927  -0.63980  -0.61277
  Beta  occ. eigenvalues --   -0.57365  -0.53893  -0.51427  -0.50663  -0.47798
  Beta  occ. eigenvalues --   -0.44078  -0.43001  -0.42923  -0.39989  -0.38356
  Beta  occ. eigenvalues --   -0.36820  -0.36266  -0.35579  -0.34636  -0.33724
  Beta  occ. eigenvalues --   -0.32622  -0.31304  -0.30262  -0.30169  -0.29721
  Beta  occ. eigenvalues --   -0.26903  -0.26618  -0.25142  -0.23891  -0.22685
  Beta  occ. eigenvalues --   -0.22163  -0.20399  -0.14491  -0.13344
  Beta virt. eigenvalues --    0.05767   0.06109   0.06972   0.07498   0.08402
  Beta virt. eigenvalues --    0.08840   0.09648   0.09687   0.10107   0.10119
  Beta virt. eigenvalues --    0.11659   0.11965   0.12376   0.12817   0.13398

 Mulliken charges and spin densities:
               1          2
     1  C    1.948889  -2.289131
     2  C   -1.336236   1.519097
     3  C    0.010877  -0.448976
     4  C    0.719724  -0.790420
     5  C   -0.229852  -0.287392
     6  C   -0.401876   0.024602
     7  C   -0.914512   1.325136
     8  C    0.604144  -1.044414
     9  N   -0.152445  -0.095400
    10  C    1.124742  -0.537774
    11  N   -0.217932  -0.033028
    12  O   -0.110362  -0.060615
    13  C    0.129676   0.125891
    14  O   -0.249328  -0.035942
    15  O   -0.151319  -0.029280
    16  H   -0.109737   0.262893
    17  H   -0.109142   0.262510
    18  H   -0.412700   0.568416
    19  H   -0.260281   0.386202
    20  H    0.115405   0.032530
    21  H   -0.063971   0.215251
    22  H   -0.042759   0.187146
    23  H   -0.064045   0.215388
    24  H    0.265522   0.091014
    25  H   -1.092482   1.436296
 Sum of Mulliken charges =  -1.00000   1.00000

 Dipole moment (field-independent basis, Debye):
    X=              6.2646    Y=             -1.6236    Z=             -0.0006  Tot=              6.4716
 Quadrupole moment (field-independent basis, Debye-Ang):
   XX=           -227.1605   YY=           -120.7607   ZZ=           -106.9262
   XY=             -3.7622   XZ=              0.0002   YZ=             -0.0028

 Summary of Natural Population Analysis:

                                       Natural Population
                Natural  -----------------------------------------------
    Atom  No    Charge         Core      Valence    Rydberg      Total
 -----------------------------------------------------------------------
      C    1   -0.29391      0.99964     2.28869    0.00558     3.29391
      C    2   -0.01560      0.99950     2.00611    0.00999     3.01560
      C    3   -0.12675      0.99950     2.11347    0.01378     3.12675
      C    4    0.10241      0.99946     1.89122    0.00691     2.89759
      C    5    0.04661      0.99948     1.93908    0.01483     2.95339
      C    6   -0.09904      0.99948     2.09134    0.00822     3.09904
      C    7   -0.02264      0.99950     2.01337    0.00977     3.02264
      C    8   -0.29335      0.99964     2.28836    0.00534     3.29335
      N    9   -0.25985      0.99966     2.75088    0.00931     3.75985
      C   10    0.34609      0.99950     1.63305    0.02136     2.65391
      N   11   -0.30141      0.99964     2.79123    0.01053     3.80141
      O   12   -0.25285      0.99981     3.24473    0.00830     4.25285
      C   13    0.51482      0.99976     1.45774    0.02769     2.48518
      O   14   -0.32706      0.99986     3.32019    0.00701     4.32706
      O   15   -0.32511      0.99987     3.31884    0.00641     4.32511
      H   16    0.10428      0.00000     0.39431    0.00142     0.39572
      H   17    0.10428      0.00000     0.39430    0.00142     0.39572
      H   18    0.10306      0.00000     0.39586    0.00108     0.39694
      H   19    0.10321      0.00000     0.39555    0.00124     0.39679
      H   20    0.10201      0.00000     0.39656    0.00143     0.39799
      H   21    0.10376      0.00000     0.39511    0.00113     0.39624
      H   22    0.10071      0.00000     0.39854    0.00075     0.39929
      H   23    0.10377      0.00000     0.39511    0.00113     0.39623
      H   24    0.22392      0.00000     0.27395    0.00213     0.27608
      H   25    0.25882      0.00000     0.16516    0.07602     0.24118
 =======================================================================
   * Total *    0.00016     14.99429    38.75277    0.25278    53.99984

 Normal termination of Gaussian 16 at Thu Dec 10 18:37:24 2020.
