 Gaussian 16, Revision A.03,

 -----------------------------------------------------------
 # opt freq B3LYP/6-31G(d) empiricaldispersion=gd3bj scf=xqc
 -----------------------------------------------------------

 -------------------------------
 CID_117580299_JID_4313_neutraal
 -------------------------------
 Symbolic Z-matrix:
 Charge =  0 Multiplicity = 1

 SCF Done:  E(RB3LYP) =  -994.700179033     A.U. after   15 cycles
 SCF Done:  E(RB3LYP) =  -994.704576944     A.U. after   12 cycles
 SCF Done:  E(RB3LYP) =  -994.705582520     A.U. after   12 cycles
 SCF Done:  E(RB3LYP) =  -994.706261339     A.U. after   12 cycles
 SCF Done:  E(RB3LYP) =  -994.706561395     A.U. after   13 cycles
 SCF Done:  E(RB3LYP) =  -994.706990283     A.U. after   12 cycles
 SCF Done:  E(RB3LYP) =  -994.707458749     A.U. after   12 cycles
 SCF Done:  E(RB3LYP) =  -994.707732356     A.U. after   12 cycles
 SCF Done:  E(RB3LYP) =  -994.707764601     A.U. after   12 cycles
 SCF Done:  E(RB3LYP) =  -994.707852468     A.U. after   10 cycles
 SCF Done:  E(RB3LYP) =  -994.708836669     A.U. after    8 cycles
 SCF Done:  E(RB3LYP) =  -994.708841414     A.U. after    8 cycles
 SCF Done:  E(RB3LYP) =  -994.708837096     A.U. after    8 cycles
 SCF Done:  E(RB3LYP) =  -994.708841717     A.U. after    8 cycles
 SCF Done:  E(RB3LYP) =  -994.708841378     A.U. after    7 cycles
 Optimization completed.
    -- Stationary point found.
 Normal termination of Gaussian 16 at Thu Dec 10 10:01:49 2020.

 --------------------------------------------------------------------
 #N Geom=AllCheck Guess=TCheck SCRF=Check GenChk RB3LYP/6-31G(d) Freq
 --------------------------------------------------------------------

 Structure from the checkpoint file:  "JID_4313.chk"
 -------------------------------
 CID_117580299_JID_4313_neutraal
 -------------------------------
 Charge =  0 Multiplicity = 1

 SCF Done:  E(RB3LYP) =  -994.708841378     A.U. after    1 cycles

  Exact polarizability: 131.775   1.612 131.445 -13.351   0.764 123.069
 Approx polarizability: 175.490   0.421 219.486 -31.303   5.514 198.325

                      1                      2                      3
                      A                      A                      A
 Frequencies --     23.6034                53.3314                63.4670
 Red. masses --      5.7727                 5.2586                 4.6128
 Frc consts  --      0.0019                 0.0088                 0.0109
 IR Inten    --      1.7834                 0.6797                 0.9721

                      4                      5                      6
                      A                      A                      A
 Frequencies --     88.8177               106.8339               129.2670
 Red. masses --      3.8401                 1.2398                 3.2623
 Frc consts  --      0.0178                 0.0083                 0.0321
 IR Inten    --      0.4334                 0.4704                 5.8667

                      7                      8                      9
                      A                      A                      A
 Frequencies --    137.4155               158.6543               168.0831
 Red. masses --      3.6469                 3.0053                 4.3357
 Frc consts  --      0.0406                 0.0446                 0.0722
 IR Inten    --      6.9051                 2.9005                 0.4464

                     10                     11                     12
                      A                      A                      A
 Frequencies --    231.6631               260.4093               269.8745
 Red. masses --      3.3528                 2.3955                 2.3519
 Frc consts  --      0.1060                 0.0957                 0.1009
 IR Inten    --      5.4905                18.7219                 5.6087

                     13                     14                     15
                      A                      A                      A
 Frequencies --    283.3307               324.9507               359.6952
 Red. masses --      2.3401                 2.9152                 2.8866
 Frc consts  --      0.1107                 0.1814                 0.2200
 IR Inten    --      1.2496                 1.6314                 4.8630

                     16                     17                     18
                      A                      A                      A
 Frequencies --    368.9961               396.6652               446.9139
 Red. masses --      1.6581                 1.8133                 3.4164
 Frc consts  --      0.1330                 0.1681                 0.4020
 IR Inten    --     13.5848                28.2247                 1.2565

                     19                     20                     21
                      A                      A                      A
 Frequencies --    499.4606               512.0771               543.4370
 Red. masses --      3.2026                 3.7715                 4.5583
 Frc consts  --      0.4707                 0.5827                 0.7931
 IR Inten    --      0.7438                 3.9673                 2.2408

                     22                     23                     24
                      A                      A                      A
 Frequencies --    585.4959               615.7093               649.2024
 Red. masses --      1.2138                 3.5407                 3.1174
 Frc consts  --      0.2452                 0.7909                 0.7741
 IR Inten    --     74.5746                 6.3168                 3.1623

                     25                     26                     27
                      A                      A                      A
 Frequencies --    672.5440               709.4043               727.1887
 Red. masses --      3.0669                 3.1466                 1.5509
 Frc consts  --      0.8173                 0.9330                 0.4832
 IR Inten    --     12.9327                14.0408                32.9205

                     28                     29                     30
                      A                      A                      A
 Frequencies --    784.2729               835.0721               854.1129
 Red. masses --      2.2383                 3.6841                 2.0210
 Frc consts  --      0.8111                 1.5137                 0.8687
 IR Inten    --     45.2151                13.0351                 2.0398

                     31                     32                     33
                      A                      A                      A
 Frequencies --    892.3583               900.6671               932.8538
 Red. masses --      1.2717                 2.0845                 2.0495
 Frc consts  --      0.5966                 0.9963                 1.0508
 IR Inten    --      1.6192                 6.2157                19.7310

                     34                     35                     36
                      A                      A                      A
 Frequencies --    934.2407               952.7987               979.5380
 Red. masses --      2.0067                 1.8347                 2.0074
 Frc consts  --      1.0319                 0.9813                 1.1348
 IR Inten    --     17.0300                 7.1144                12.3641

                     37                     38                     39
                      A                      A                      A
 Frequencies --   1014.9722              1071.2130              1085.8166
 Red. masses --      1.4689                 1.4679                 3.4770
 Frc consts  --      0.8916                 0.9924                 2.4153
 IR Inten    --      5.2789                 2.0248                39.5961

                     40                     41                     42
                      A                      A                      A
 Frequencies --   1095.8151              1103.2048              1109.7310
 Red. masses --      1.6876                 2.8894                 1.9113
 Frc consts  --      1.1940                 2.0719                 1.3868
 IR Inten    --     35.6957                85.6287                 9.6968

                     43                     44                     45
                      A                      A                      A
 Frequencies --   1124.1982              1154.2634              1163.0806
 Red. masses --      1.9624                 3.0511                 2.0129
 Frc consts  --      1.4613                 2.3950                 1.6043
 IR Inten    --      5.5669                22.4337                34.0727

                     46                     47                     48
                      A                      A                      A
 Frequencies --   1192.7048              1234.2790              1242.6736
 Red. masses --      2.6476                 1.2301                 1.2366
 Frc consts  --      2.2191                 1.1041                 1.1251
 IR Inten    --      1.8473                 5.6385                21.0070

                     49                     50                     51
                      A                      A                      A
 Frequencies --   1251.8083              1267.8762              1289.6298
 Red. masses --      1.3092                 1.4633                 1.4560
 Frc consts  --      1.2087                 1.3859                 1.4267
 IR Inten    --      3.4172                 6.2199                 4.7279

                     52                     53                     54
                      A                      A                      A
 Frequencies --   1323.4288              1360.8688              1377.9333
 Red. masses --      1.4153                 1.3472                 1.3952
 Frc consts  --      1.4605                 1.4700                 1.5607
 IR Inten    --      1.2158                 2.5065                 1.4728

                     55                     56                     57
                      A                      A                      A
 Frequencies --   1389.4476              1401.5744              1415.7706
 Red. masses --      1.2472                 1.2150                 2.4045
 Frc consts  --      1.4186                 1.4062                 2.8396
 IR Inten    --     38.8468                13.2183                 4.2414

                     58                     59                     60
                      A                      A                      A
 Frequencies --   1421.0398              1428.9643              1447.0267
 Red. masses --      1.3070                 1.3383                 1.3169
 Frc consts  --      1.5550                 1.6100                 1.6246
 IR Inten    --     16.8672                 6.9295                 1.0531

                     61                     62                     63
                      A                      A                      A
 Frequencies --   1476.7046              1489.6229              1507.6838
 Red. masses --      1.2835                 3.8153                 1.1623
 Frc consts  --      1.6491                 4.9880                 1.5567
 IR Inten    --     96.6337                 5.6923                 5.2688

                     64                     65                     66
                      A                      A                      A
 Frequencies --   1517.0285              1521.1591              1528.2343
 Red. masses --      1.0515                 1.1055                 1.1498
 Frc consts  --      1.4258                 1.5072                 1.5822
 IR Inten    --      8.8816                11.2734                14.0768

                     67                     68                     69
                      A                      A                      A
 Frequencies --   1530.6288              1553.4833              1557.4184
 Red. masses --      1.1721                 1.1098                 1.0811
 Frc consts  --      1.6180                 1.5781                 1.5450
 IR Inten    --     29.9557                 9.9147                 7.8277

                     70                     71                     72
                      A                      A                      A
 Frequencies --   1614.5225              2996.1995              3001.5039
 Red. masses --      5.3265                 1.0699                 1.0681
 Frc consts  --      8.1805                 5.6591                 5.6693
 IR Inten    --      0.7398                45.1729                13.8190

                     73                     74                     75
                      A                      A                      A
 Frequencies --   3024.8528              3044.7707              3050.1602
 Red. masses --      1.0634                 1.0417                 1.0763
 Frc consts  --      5.7329                 5.6900                 5.8999
 IR Inten    --     40.7649                24.7527                12.9137

                     76                     77                     78
                      A                      A                      A
 Frequencies --   3052.6376              3061.2942              3076.9261
 Red. masses --      1.0824                 1.0785                 1.1022
 Frc consts  --      5.9428                 5.9547                 6.1483
 IR Inten    --     44.3358                70.3711                28.5373

                     79                     80                     81
                      A                      A                      A
 Frequencies --   3088.0834              3098.2574              3098.9493
 Red. masses --      1.0946                 1.1018                 1.0982
 Frc consts  --      6.1503                 6.2313                 6.2140
 IR Inten    --     88.4359                24.0856                10.9240

                     82                     83                     84
                      A                      A                      A
 Frequencies --   3135.2890              3215.3254              3276.1172
 Red. masses --      1.1002                 1.0913                 1.0965
 Frc consts  --      6.3720                 6.6476                 6.9340
 IR Inten    --     14.1473                 5.8786                 0.4637

                     85                     86                     87
                      A                      A                      A
 Frequencies --   3482.0155              3611.6411              3745.4100
 Red. masses --      1.0724                 1.0642                 1.0668
 Frc consts  --      7.6605                 8.1789                 8.8169
 IR Inten    --     15.4116                84.2070               125.9590

 - Thermochemistry -
 -------------------
 Temperature   298.150 Kelvin.  Pressure   1.00000 Atm.
 Atom     1 has atomic number  6 and mass  12.00000

 Molecular mass:   215.09800 amu.
 Principal axes and moments of inertia in atomic units:
                           1         2         3
     Eigenvalues --  1954.000794639.731354666.12586
           X            0.99991  -0.01191   0.00574
           Y            0.01293   0.79039  -0.61247
           Z            0.00276   0.61249   0.79048
 This molecule is an asymmetric top.
 Rotational symmetry number  1.
 Warning -- assumption of classical behavior for rotation
           may cause significant error
 Rotational temperatures (Kelvin)      0.04433     0.01867     0.01856
 Rotational constants (GHZ):           0.92361     0.38898     0.38678
 Zero-point vibrational energy     698473.5 (Joules/Mol)
                                  166.93917 (Kcal/Mol)
 Warning -- explicit consideration of  23 degrees of freedom as
           vibrations may cause significant error
 Vibrational temperatures:     33.96    76.73    91.31   127.79   153.71
          (Kelvin)            185.99   197.71   228.27   241.83   333.31
                              374.67   388.29   407.65   467.53   517.52
                              530.90   570.71   643.01   718.61   736.76
                              781.88   842.40   885.87   934.06   967.64
                             1020.67  1046.26  1128.39  1201.48  1228.88
                             1283.90  1295.86  1342.17  1344.16  1370.86
                             1409.34  1460.32  1541.24  1562.25  1576.63
                             1587.27  1596.66  1617.47  1660.73  1673.41
                             1716.04  1775.85  1787.93  1801.07  1824.19
                             1855.49  1904.12  1957.99  1982.54  1999.11
                             2016.55  2036.98  2044.56  2055.96  2081.95
                             2124.65  2143.24  2169.22  2182.67  2188.61
                             2198.79  2202.23  2235.12  2240.78  2322.94
                             4310.86  4318.49  4352.09  4380.75  4388.50
                             4392.06  4404.52  4427.01  4443.06  4457.70
                             4458.70  4510.98  4626.14  4713.60  5009.84
                             5196.35  5388.81

 Zero-point correction=                           0.266034 (Hartree/Particle)
 Thermal correction to Energy=                    0.281354
 Thermal correction to Enthalpy=                  0.282298
 Thermal correction to Gibbs Free Energy=         0.222633
 Sum of electronic and zero-point Energies=           -994.442807
 Sum of electronic and thermal Energies=              -994.427488
 Sum of electronic and thermal Enthalpies=            -994.426544
 Sum of electronic and thermal Free Energies=         -994.486209

                     E (Thermal)             CV                S
                      KCal/Mol        Cal/Mol-Kelvin    Cal/Mol-Kelvin
 Total                  176.552             56.860            125.576
 Electronic               0.000              0.000              0.000
 Translational            0.889              2.981             42.001
 Rotational               0.889              2.981             32.114
 Vibrational            174.775             50.899             51.460
 Vibration     1          0.593              1.985              6.305
 Vibration     2          0.596              1.976              4.690
 Vibration     3          0.597              1.972              4.346
 Vibration     4          0.602              1.957              3.686
 Vibration     5          0.606              1.944              3.326
 Vibration     6          0.612              1.924              2.957
 Vibration     7          0.614              1.916              2.840
 Vibration     8          0.621              1.893              2.566
 Vibration     9          0.625              1.882              2.457
 Vibration    10          0.653              1.793              1.866
 Vibration    11          0.668              1.745              1.659
 Vibration    12          0.674              1.729              1.597
 Vibration    13          0.682              1.705              1.513
 Vibration    14          0.709              1.626              1.285
 Vibration    15          0.734              1.555              1.123
 Vibration    16          0.741              1.536              1.084
 Vibration    17          0.763              1.477              0.975
 Vibration    18          0.806              1.368              0.805
 Vibration    19          0.855              1.251              0.659
 Vibration    20          0.867              1.223              0.629
 Vibration    21          0.899              1.154              0.558
 Vibration    22          0.943              1.063              0.475
 Vibration    23          0.975              0.999              0.423

                           ! Non-Optimized Parameters !
 Normal termination of Gaussian 16 at Thu Dec 10 10:12:47 2020.

 ----------------------------------------------------------------------
 # B3LYP/6-311++G(d,p) empiricaldispersion=gd3bj scf=xqc pop=npa geom=c
 heck
 ----------------------------------------------------------------------

 ---------------------------------------
 CID_117580299_JID_4313_Energie_neutraal
 ---------------------------------------
 Structure from the checkpoint file:  "JID_4313.chk"
 Charge =  0 Multiplicity = 1

 SCF Done:  E(RB3LYP) =  -994.925832262     A.U. after   15 cycles
 Normal termination of Gaussian 16 at Thu Dec 10 10:18:07 2020.

 ----------------------------------------------------------------------
 # B3LYP/6-311++G(d,p) empiricaldispersion=gd3bj scf=xqc pop=npa geom=c
 heck
 ----------------------------------------------------------------------

 -------------------------------------
 CID_117580299_JID_4313_Energie_kation
 -------------------------------------
 Structure from the checkpoint file:  "JID_4313.chk"
 Charge =  1 Multiplicity = 2

 SCF Done:  E(UB3LYP) =  -994.622651062     A.U. after   28 cycles
 Normal termination of Gaussian 16 at Thu Dec 10 10:32:19 2020.
 Gaussian 16:  ES64L-G16RevA.03 25-Dec-2016

 ----------------------------------------------------------------------
 # B3LYP/6-311++G(d,p) empiricaldispersion=gd3bj scf=xqc pop=npa geom=c
 heck
 ----------------------------------------------------------------------

 ------------------------------------
 CID_117580299_JID_4313_Energie_anion
 ------------------------------------
 Structure from the checkpoint file:  "JID_4313.chk"
 Charge = -1 Multiplicity = 2

                         Standard orientation:
 ---------------------------------------------------------------------
 Center     Atomic      Atomic             Coordinates (Angstroms)
 Number     Number       Type             X           Y           Z
 ---------------------------------------------------------------------
      1          6           0       -2.183447    2.233462    0.303365
      2          6           0       -2.141399    0.734378    0.164977
      3          6           0       -1.514310    0.053624   -0.855975
      4         16           0       -1.702641   -1.674201   -0.667136
      5          6           0       -2.615394   -1.475512    0.791647
      6          6           0       -2.770803   -0.153866    1.102748
      7          6           0       -0.658103    0.607368   -1.963338
      8          6           0        0.678927    1.152045   -1.432434
      9          7           0        1.467077    0.095108   -0.796684
     10          6           0        2.299793    0.534068    0.332889
     11          6           0        1.478435    0.819459    1.601797
     12          8           0        0.655919   -0.287554    1.961423
     13          6           0        3.358518   -0.553290    0.557270
     14          8           0        4.028137   -0.847147   -0.652816
     15          1           0       -1.915959    2.734695   -0.630808
     16          1           0       -3.187266    2.568484    0.587242
     17          1           0       -1.493646    2.590280    1.078895
     18          1           0       -2.992672   -2.338208    1.322922
     19          1           0       -3.320471    0.193603    1.971444
     20          1           0       -0.460166   -0.169062   -2.710703
     21          1           0       -1.189401    1.415064   -2.481391
     22          1           0        1.253085    1.583612   -2.262457
     23          1           0        0.458754    1.976937   -0.737253
     24          1           0        0.844438   -0.624679   -0.430776
     25          1           0        2.816735    1.453623    0.027464
     26          1           0        2.157051    1.005201    2.443370
     27          1           0        0.874150    1.727619    1.467495
     28          1           0       -0.223113   -0.154935    1.573755
     29          1           0        4.106417   -0.209612    1.280874
     30          1           0        2.868002   -1.445245    0.981130
     31          1           0        3.311034   -0.818738   -1.316778
 ---------------------------------------------------------------------

 SCF Done:  E(UB3LYP) =  -994.916672640     A.U. after   33 cycles
 SCF Done:  E(UB3LYP) =  -994.916672640     a.u. after    1 cycles

 The electronic state is 2-A.
 Alpha  occ. eigenvalues --  -88.77198 -19.02486 -19.01459 -14.20435 -10.11967
 Alpha  occ. eigenvalues --  -10.11434 -10.10204 -10.09531 -10.09413 -10.09370
 Alpha  occ. eigenvalues --  -10.08123 -10.07906 -10.07476 -10.06337  -7.85842
 Alpha  occ. eigenvalues --   -5.82121  -5.81761  -5.81456  -0.92783  -0.92046
 Alpha  occ. eigenvalues --   -0.81441  -0.78231  -0.68836  -0.66442  -0.64624
 Alpha  occ. eigenvalues --   -0.60421  -0.57461  -0.56821  -0.52301  -0.49758
 Alpha  occ. eigenvalues --   -0.46557  -0.43104  -0.41301  -0.40023  -0.39052
 Alpha  occ. eigenvalues --   -0.38777  -0.37242  -0.35350  -0.34087  -0.33325
 Alpha  occ. eigenvalues --   -0.32388  -0.31522  -0.31344  -0.29205  -0.28445
 Alpha  occ. eigenvalues --   -0.27756  -0.27520  -0.26290  -0.25661  -0.25231
 Alpha  occ. eigenvalues --   -0.24162  -0.23721  -0.22696  -0.19301  -0.17156
 Alpha  occ. eigenvalues --   -0.15289  -0.13940  -0.13159   0.04467
 Alpha virt. eigenvalues --    0.07008   0.07349   0.07842   0.07970   0.08847
 Alpha virt. eigenvalues --    0.09548   0.09898   0.10296   0.10850   0.11849
 Alpha virt. eigenvalues --    0.12073   0.12467   0.12619   0.12938   0.13490

  Beta  occ. eigenvalues --  -88.77185 -19.02484 -19.01456 -14.20434 -10.11947
  Beta  occ. eigenvalues --  -10.11433 -10.10198 -10.09426 -10.09373 -10.09253
  Beta  occ. eigenvalues --  -10.08109 -10.07886 -10.07465 -10.06279  -7.85829
  Beta  occ. eigenvalues --   -5.82116  -5.81757  -5.81409  -0.92778  -0.92042
  Beta  occ. eigenvalues --   -0.81424  -0.78111  -0.68748  -0.66346  -0.64548
  Beta  occ. eigenvalues --   -0.60331  -0.57404  -0.56711  -0.52214  -0.49736
  Beta  occ. eigenvalues --   -0.46414  -0.43060  -0.41205  -0.39981  -0.38965
  Beta  occ. eigenvalues --   -0.38741  -0.37205  -0.35313  -0.34023  -0.33248
  Beta  occ. eigenvalues --   -0.32372  -0.31422  -0.31285  -0.29131  -0.28396
  Beta  occ. eigenvalues --   -0.27655  -0.27440  -0.26129  -0.25575  -0.25158
  Beta  occ. eigenvalues --   -0.24128  -0.23637  -0.22667  -0.19286  -0.17148
  Beta  occ. eigenvalues --   -0.15043  -0.13892  -0.12635
  Beta virt. eigenvalues --    0.07067   0.07541   0.07880   0.08264   0.08592
  Beta virt. eigenvalues --    0.09367   0.09993   0.10216   0.10741   0.11075
  Beta virt. eigenvalues --    0.12178   0.12291   0.12650   0.12829   0.13295

 Mulliken charges and spin densities:
               1          2
     1  C    2.674202  -3.246322
     2  C   -1.797958   1.709702
     3  C   -1.195465   1.697484
     4  S    0.089885   0.081476
     5  C   -0.449905   0.171103
     6  C    0.356773  -0.718013
     7  C    1.242249  -2.164000
     8  C    0.319433  -0.334430
     9  N   -0.050488   0.003473
    10  C   -0.721993   0.588713
    11  C    0.541923  -0.946663
    12  O   -0.296176   0.023284
    13  C   -0.296954  -0.150178
    14  O   -0.265263   0.005573
    15  H   -0.405922   0.561150
    16  H   -0.331257   0.479664
    17  H   -0.405788   0.600652
    18  H    0.166691   0.055508
    19  H   -0.249284   0.407051
    20  H    0.041030   0.132903
    21  H   -0.428922   0.645812
    22  H   -0.493576   0.686928
    23  H    0.150956  -0.017671
    24  H    0.229738  -0.078796
    25  H   -0.207085   0.389957
    26  H    0.064045   0.089833
    27  H   -0.161018   0.302105
    28  H    0.350260  -0.009528
    29  H    0.132935   0.010911
    30  H    0.137600   0.013344
    31  H    0.259334   0.008973
 Sum of Mulliken charges =  -1.00000   1.00000

 Dipole moment (field-independent basis, Debye):
    X=              0.6687    Y=             -6.3172    Z=              2.1240  Tot=              6.6982
 Quadrupole moment (field-independent basis, Debye-Ang):
   XX=           -151.7865   YY=           -141.2591   ZZ=           -133.2703
   XY=             13.3119   XZ=              3.8876   YZ=              4.2074

 Summary of Natural Population Analysis:

                                       Natural Population
                Natural  -----------------------------------------------
    Atom  No    Charge         Core      Valence    Rydberg      Total
 -----------------------------------------------------------------------
      C    1   -0.29263      0.99962     2.28635    0.00665     3.29263
      C    2   -0.05389      0.99941     2.04168    0.01280     3.05389
      C    3   -0.09082      0.99942     2.07604    0.01537     3.09082
      S    4    0.20285      4.99940     2.77812    0.01964     7.79715
      C    5   -0.18083      0.99953     2.17020    0.01110     3.18083
      C    6   -0.12964      0.99949     2.11916    0.01099     3.12964
      C    7   -0.21275      0.99957     2.20079    0.01239     3.21275
      C    8   -0.08177      0.99961     2.06940    0.01276     3.08177
      N    9   -0.36511      0.99973     2.85227    0.01310     3.86511
      C   10   -0.03383      0.99960     2.02151    0.01272     3.03383
      C   11   -0.02101      0.99956     2.00780    0.01365     3.02101
      O   12   -0.37841      0.99990     3.37188    0.00663     4.37841
      C   13   -0.01062      0.99957     1.99913    0.01192     3.01062
      O   14   -0.37826      0.99990     3.37163    0.00672     4.37826
      H   15    0.10778      0.00000     0.39042    0.00180     0.39222
      H   16    0.10595      0.00000     0.39280    0.00125     0.39405
      H   17    0.10658      0.00000     0.39066    0.00276     0.39342
      H   18    0.10622      0.00000     0.39310    0.00068     0.39378
      H   19    0.10715      0.00000     0.39194    0.00091     0.39285
      H   20    0.10434      0.00000     0.39454    0.00112     0.39566
      H   21    0.11669      0.00000     0.38082    0.00249     0.38331
      H   22    0.09455      0.00000     0.40335    0.00210     0.40545
      H   23    0.08766      0.00000     0.40972    0.00262     0.41234
      H   24    0.18222      0.00000     0.31417    0.00361     0.31778
      H   25    0.09770      0.00000     0.40104    0.00126     0.40230
      H   26    0.08361      0.00000     0.41537    0.00102     0.41639
      H   27    0.08724      0.00000     0.41137    0.00139     0.41276
      H   28    0.24009      0.00000     0.25657    0.00334     0.25991
      H   29    0.08252      0.00000     0.41643    0.00106     0.41748
      H   30    0.07907      0.00000     0.41944    0.00148     0.42093
      H   31    0.23732      0.00000     0.25937    0.00331     0.26268
 =======================================================================
   * Total *    0.00000     17.99432    39.80704    0.19864    58.00000

 Normal termination of Gaussian 16 at Thu Dec 10 10:49:50 2020.
