 Gaussian 16, Revision A.03,

 -----------------------------------------------------------
 # opt freq B3LYP/6-31G(d) empiricaldispersion=gd3bj scf=xqc
 -----------------------------------------------------------

 -------------------------------
 CID_137214096_JID_3942_neutraal
 -------------------------------
 Symbolic Z-matrix:
 Charge =  0 Multiplicity = 1

 SCF Done:  E(RB3LYP) =  -621.138266515     A.U. after   15 cycles
 SCF Done:  E(RB3LYP) =  -621.142488304     A.U. after   12 cycles
 SCF Done:  E(RB3LYP) =  -621.143025022     A.U. after   11 cycles
 SCF Done:  E(RB3LYP) =  -621.143180838     A.U. after   11 cycles
 SCF Done:  E(RB3LYP) =  -621.143217449     A.U. after   10 cycles
 SCF Done:  E(RB3LYP) =  -621.143241445     A.U. after   10 cycles
 SCF Done:  E(RB3LYP) =  -621.143270025     A.U. after   10 cycles
 SCF Done:  E(RB3LYP) =  -621.143301975     A.U. after   11 cycles
 SCF Done:  E(RB3LYP) =  -621.143328082     A.U. after   11 cycles
 SCF Done:  E(RB3LYP) =  -621.143399508     A.U. after   12 cycles
 SCF Done:  E(RB3LYP) =  -621.143742820     A.U. after    9 cycles
 SCF Done:  E(RB3LYP) =  -621.143743166     A.U. after    8 cycles
 SCF Done:  E(RB3LYP) =  -621.143744071     A.U. after    8 cycles
 SCF Done:  E(RB3LYP) =  -621.143744208     A.U. after    7 cycles
 SCF Done:  E(RB3LYP) =  -621.143744232     A.U. after    7 cycles
 Optimization completed.
    -- Stationary point found.
 Normal termination of Gaussian 16 at Mon Dec 14 13:11:54 2020.

 --------------------------------------------------------------------
 #N Geom=AllCheck Guess=TCheck SCRF=Check GenChk RB3LYP/6-31G(d) Freq
 --------------------------------------------------------------------

 Structure from the checkpoint file:  "JID_3942.chk"
 -------------------------------
 CID_137214096_JID_3942_neutraal
 -------------------------------
 Charge =  0 Multiplicity = 1

 SCF Done:  E(RB3LYP) =  -621.143744232     A.U. after    1 cycles

  Exact polarizability: 170.647  -4.468 101.143   2.424   1.884  53.799
 Approx polarizability: 218.923 -23.033 190.824   2.039   5.965  82.366

                      1                      2                      3
                      A                      A                      A
 Frequencies --     36.5839                62.2514                70.3559
 Red. masses --      3.4455                 3.5134                 1.1112
 Frc consts  --      0.0027                 0.0080                 0.0032
 IR Inten    --      4.0108                 1.5445                 0.0042

                      4                      5                      6
                      A                      A                      A
 Frequencies --     85.9752               103.8642               163.2474
 Red. masses --      3.8113                 6.1951                 4.0180
 Frc consts  --      0.0166                 0.0394                 0.0631
 IR Inten    --      6.2744                 2.0942                 0.1769

                      7                      8                      9
                      A                      A                      A
 Frequencies --    195.9688               247.9180               279.7646
 Red. masses --      1.9212                 1.7807                 2.9891
 Frc consts  --      0.0435                 0.0645                 0.1378
 IR Inten    --     21.2407                45.3714                 9.0199

                     10                     11                     12
                      A                      A                      A
 Frequencies --    335.8050               368.4093               384.2177
 Red. masses --      3.2987                 5.9179                 6.0257
 Frc consts  --      0.2192                 0.4732                 0.5241
 IR Inten    --      9.9685                 0.1337                 3.8580

                     13                     14                     15
                      A                      A                      A
 Frequencies --    439.5684               510.3407               555.2780
 Red. masses --      5.5970                 5.6354                 1.3778
 Frc consts  --      0.6372                 0.8648                 0.2503
 IR Inten    --      4.7935                 3.5703                80.0970

                     16                     17                     18
                      A                      A                      A
 Frequencies --    643.5341               662.7741               694.3101
 Red. masses --      4.7426                 3.7912                 3.5534
 Frc consts  --      1.1572                 0.9812                 1.0092
 IR Inten    --      5.8169                 6.6115                 0.0841

                     19                     20                     21
                      A                      A                      A
 Frequencies --    698.5531               734.9561               770.3657
 Red. masses --      4.2890                 4.8674                 6.4328
 Frc consts  --      1.2331                 1.5491                 2.2493
 IR Inten    --      0.0471                 6.5498                24.2363

                     22                     23                     24
                      A                      A                      A
 Frequencies --    863.6353               871.8298               920.3517
 Red. masses --      1.3999                 1.2935                11.4610
 Frc consts  --      0.6152                 0.5793                 5.7198
 IR Inten    --      7.6344               156.6625                70.2065

                     25                     26                     27
                      A                      A                      A
 Frequencies --    960.2747              1004.6202              1013.7931
 Red. masses --      9.3952                 1.4992                 4.2589
 Frc consts  --      5.1044                 0.8915                 2.5789
 IR Inten    --      5.0156                 2.0950                18.6137

                     28                     29                     30
                      A                      A                      A
 Frequencies --   1026.3491              1042.5488              1063.3238
 Red. masses --      3.3373                 3.3559                 5.7302
 Frc consts  --      2.0713                 2.1491                 3.8172
 IR Inten    --     14.5356                 7.0161                 3.2456

                     31                     32                     33
                      A                      A                      A
 Frequencies --   1075.9750              1105.4690              1164.4595
 Red. masses --      1.4821                 2.4606                 1.9199
 Frc consts  --      1.0110                 1.7717                 1.5338
 IR Inten    --      2.4152                 6.3279                13.4951

                     34                     35                     36
                      A                      A                      A
 Frequencies --   1189.1831              1208.8662              1284.8243
 Red. masses --      1.3930                 2.4316                 2.3286
 Frc consts  --      1.1607                 2.0937                 2.2648
 IR Inten    --      5.4391                36.6497                93.0582

                     37                     38                     39
                      A                      A                      A
 Frequencies --   1295.3344              1306.0034              1360.0775
 Red. masses --      1.3871                 2.4752                 3.8720
 Frc consts  --      1.3712                 2.4874                 4.2200
 IR Inten    --     22.9919                11.9301                62.9265

                     40                     41                     42
                      A                      A                      A
 Frequencies --   1427.7248              1440.1415              1450.2038
 Red. masses --      2.0744                 1.9792                 2.2859
 Frc consts  --      2.4913                 2.4185                 2.8325
 IR Inten    --     48.8818                38.1752                40.5747

                     43                     44                     45
                      A                      A                      A
 Frequencies --   1470.0749              1495.3016              1512.6294
 Red. masses --      3.3045                 3.5053                 1.0430
 Frc consts  --      4.2076                 4.6178                 1.4061
 IR Inten    --      7.7468                11.9040                 8.1084

                     46                     47                     48
                      A                      A                      A
 Frequencies --   1525.3423              1532.0516              1575.8929
 Red. masses --      1.2770                 1.0951                 5.4293
 Frc consts  --      1.7506                 1.5144                 7.9442
 IR Inten    --      2.7128                 4.0224               158.3985

                     49                     50                     51
                      A                      A                      A
 Frequencies --   1634.5910              1671.6207              1692.1954
 Red. masses --      7.9457                 6.1989                 1.1365
 Frc consts  --     12.5083                10.2057                 1.9174
 IR Inten    --    111.4287                97.7991                43.3656

                     52                     53                     54
                      A                      A                      A
 Frequencies --   2945.3495              3049.0771              3092.5986
 Red. masses --      1.0740                 1.0400                 1.0863
 Frc consts  --      5.4896                 5.6965                 6.1215
 IR Inten    --     55.3127                30.0724                14.9052

                     55                     56                     57
                      A                      A                      A
 Frequencies --   3098.9414              3167.2140              3279.0787
 Red. masses --      1.1015                 1.0979                 1.0973
 Frc consts  --      6.2326                 6.4888                 6.9513
 IR Inten    --     15.9859                 3.2743                 2.4677

                     58                     59                     60
                      A                      A                      A
 Frequencies --   3484.4160              3574.2794              3641.4822
 Red. masses --      1.0496                 1.0935                 1.0809
 Frc consts  --      7.5080                 8.2306                 8.4452
 IR Inten    --      2.4589                 1.3079                55.6044

 - Thermochemistry -
 -------------------
 Temperature   298.150 Kelvin.  Pressure   1.00000 Atm.
 Atom     1 has atomic number  6 and mass  12.00000

 Molecular mass:   179.08071 amu.
 Principal axes and moments of inertia in atomic units:
                           1         2         3
     Eigenvalues --   684.312374882.160755511.90207
           X            0.99985   0.01690   0.00343
           Y           -0.01691   0.99985   0.00365
           Z           -0.00337  -0.00370   0.99999
 This molecule is an asymmetric top.
 Rotational symmetry number  1.
 Warning -- assumption of classical behavior for rotation
           may cause significant error
 Rotational temperatures (Kelvin)      0.12657     0.01774     0.01571
 Rotational constants (GHZ):           2.63731     0.36966     0.32743
 Zero-point vibrational energy     451956.2 (Joules/Mol)
                                  108.02011 (Kcal/Mol)
 Warning -- explicit consideration of  15 degrees of freedom as
           vibrations may cause significant error
 Vibrational temperatures:     52.64    89.57   101.23   123.70   149.44
          (Kelvin)            234.88   281.96   356.70   402.52   483.15
                              530.06   552.80   632.44   734.27   798.92
                              925.90   953.58   998.96  1005.06  1057.44
                             1108.38  1242.58  1254.37  1324.18  1381.62
                             1445.42  1458.62  1476.69  1500.00  1529.89
                             1548.09  1590.52  1675.40  1710.97  1739.29
                             1848.58  1863.70  1879.05  1956.85  2054.18
                             2072.04  2086.52  2115.11  2151.41  2176.34
                             2194.63  2204.28  2267.36  2351.81  2405.09
                             2434.69  4237.70  4386.94  4449.56  4458.69
                             4556.91  4717.86  5013.30  5142.59  5239.28

 Zero-point correction=                           0.172141 (Hartree/Particle)
 Thermal correction to Energy=                    0.184033
 Thermal correction to Enthalpy=                  0.184977
 Thermal correction to Gibbs Free Energy=         0.132496
 Sum of electronic and zero-point Energies=           -620.971603
 Sum of electronic and thermal Energies=              -620.959711
 Sum of electronic and thermal Enthalpies=            -620.958767
 Sum of electronic and thermal Free Energies=         -621.011248

                     E (Thermal)             CV                S
                      KCal/Mol        Cal/Mol-Kelvin    Cal/Mol-Kelvin
 Total                  115.482             42.696            110.456
 Electronic               0.000              0.000              0.000
 Translational            0.889              2.981             41.455
 Rotational               0.889              2.981             31.288
 Vibrational            113.705             36.735             37.713
 Vibration     1          0.594              1.982              5.436
 Vibration     2          0.597              1.972              4.385
 Vibration     3          0.598              1.968              4.143
 Vibration     4          0.601              1.959              3.750
 Vibration     5          0.605              1.946              3.380
 Vibration     6          0.623              1.888              2.512
 Vibration     7          0.636              1.845              2.171
 Vibration     8          0.662              1.766              1.745
 Vibration     9          0.680              1.711              1.535
 Vibration    10          0.717              1.604              1.232
 Vibration    11          0.741              1.537              1.086
 Vibration    12          0.753              1.504              1.023
 Vibration    13          0.800              1.384              0.828
 Vibration    14          0.865              1.227              0.633
 Vibration    15          0.911              1.128              0.533

 Optimization completed.
    -- Stationary point found.
 Normal termination of Gaussian 16 at Mon Dec 14 13:16:07 2020.

 ----------------------------------------------------------------------
 # B3LYP/6-311++G(d,p) empiricaldispersion=gd3bj scf=xqc pop=npa geom=c
 heck
 ----------------------------------------------------------------------

 ---------------------------------------
 CID_137214096_JID_3942_Energie_neutraal
 ---------------------------------------
 Structure from the checkpoint file:  "JID_3942.chk"
 Charge =  0 Multiplicity = 1

 SCF Done:  E(RB3LYP) =  -621.320851910     A.U. after   15 cycles
 Normal termination of Gaussian 16 at Mon Dec 14 13:17:41 2020.

 ----------------------------------------------------------------------
 # B3LYP/6-311++G(d,p) empiricaldispersion=gd3bj scf=xqc pop=npa geom=c
 heck
 ----------------------------------------------------------------------

 -------------------------------------
 CID_137214096_JID_3942_Energie_kation
 -------------------------------------
 Structure from the checkpoint file:  "JID_3942.chk"
 Charge =  1 Multiplicity = 2

 SCF Done:  E(UB3LYP) =  -621.018796474     A.U. after   23 cycles
 Normal termination of Gaussian 16 at Mon Dec 14 13:20:48 2020.
 Gaussian 16:  ES64L-G16RevA.03 25-Dec-2016

 ----------------------------------------------------------------------
 # B3LYP/6-311++G(d,p) empiricaldispersion=gd3bj scf=xqc pop=npa geom=c
 heck
 ----------------------------------------------------------------------

 ------------------------------------
 CID_137214096_JID_3942_Energie_anion
 ------------------------------------
 Structure from the checkpoint file:  "JID_3942.chk"
 Charge = -1 Multiplicity = 2

                         Standard orientation:
 ---------------------------------------------------------------------
 Center     Atomic      Atomic             Coordinates (Angstroms)
 Number     Number       Type             X           Y           Z
 ---------------------------------------------------------------------
      1          6           0        4.632524    0.431225    0.111102
      2          6           0        3.249782   -0.121964    0.028313
      3          7           0        2.934561   -1.405367   -0.080464
      4          6           0        1.565290   -1.456234   -0.122356
      5          6           0        1.030658   -0.187038   -0.038584
      6          7           0        2.126626    0.654894    0.057010
      7          6           0       -0.323445    0.299767   -0.039367
      8          7           0       -0.612130    1.582997    0.047342
      9          8           0       -2.024859    1.593396    0.015402
     10          6           0       -2.412849    0.312958   -0.091321
     11          7           0       -1.426076   -0.531502   -0.133018
     12          6           0       -3.871846    0.008983   -0.202305
     13          7           0       -4.157071   -1.267622    0.447493
     14          1           0        4.844877    1.119444   -0.716162
     15          1           0        4.796364    0.975763    1.049057
     16          1           0        5.340799   -0.397627    0.063310
     17          1           0        1.026532   -2.388889   -0.208706
     18          1           0        2.072330    1.660918    0.136769
     19          1           0       -4.432809    0.810868    0.289530
     20          1           0       -4.130788    0.055681   -1.277174
     21          1           0       -5.094619   -1.573646    0.197868
     22          1           0       -3.505870   -1.969664    0.100865
 ---------------------------------------------------------------------

 SCF Done:  E(UB3LYP) =  -621.318577069     A.U. after   33 cycles
 SCF Done:  E(UB3LYP) =  -621.318577069     a.u. after    1 cycles

 The electronic state is 2-A.
 Alpha  occ. eigenvalues --  -19.07403 -14.25000 -14.21446 -14.18787 -14.18486
 Alpha  occ. eigenvalues --  -14.18172 -10.13535 -10.11828 -10.10398 -10.09839
 Alpha  occ. eigenvalues --  -10.08843 -10.08307 -10.06516  -1.02478  -0.90459
 Alpha  occ. eigenvalues --   -0.80826  -0.78213  -0.76103  -0.72982  -0.67335
 Alpha  occ. eigenvalues --   -0.60365  -0.58702  -0.51831  -0.49848  -0.47841
 Alpha  occ. eigenvalues --   -0.46324  -0.42343  -0.38175  -0.37689  -0.35237
 Alpha  occ. eigenvalues --   -0.35047  -0.33390  -0.32556  -0.32153  -0.30388
 Alpha  occ. eigenvalues --   -0.29796  -0.28801  -0.28563  -0.27384  -0.21496
 Alpha  occ. eigenvalues --   -0.21119  -0.17919  -0.17062  -0.16517  -0.16472
 Alpha  occ. eigenvalues --   -0.13721  -0.10694   0.04590
 Alpha virt. eigenvalues --    0.06330   0.07021   0.09718   0.09815   0.10017
 Alpha virt. eigenvalues --    0.10659   0.11058   0.12132   0.12608   0.13461
 Alpha virt. eigenvalues --    0.14146   0.14503   0.15629   0.16348   0.16866

  Beta  occ. eigenvalues --  -19.07151 -14.24932 -14.21032 -14.18866 -14.18438
  Beta  occ. eigenvalues --  -14.18227 -10.13343 -10.11706 -10.10292 -10.09839
  Beta  occ. eigenvalues --  -10.08826 -10.08308 -10.06419  -1.02044  -0.90351
  Beta  occ. eigenvalues --   -0.80679  -0.78047  -0.76030  -0.72533  -0.67171
  Beta  occ. eigenvalues --   -0.60224  -0.58470  -0.51532  -0.49753  -0.47652
  Beta  occ. eigenvalues --   -0.46173  -0.42190  -0.38053  -0.37026  -0.34974
  Beta  occ. eigenvalues --   -0.34939  -0.32925  -0.32481  -0.31934  -0.30301
  Beta  occ. eigenvalues --   -0.29520  -0.28689  -0.28387  -0.27248  -0.20774
  Beta  occ. eigenvalues --   -0.20655  -0.17567  -0.16867  -0.16542  -0.15429
  Beta  occ. eigenvalues --   -0.13623  -0.09631
  Beta virt. eigenvalues --    0.06554   0.07878   0.09028   0.09799   0.10270
  Beta virt. eigenvalues --    0.10589   0.10744   0.11308   0.12103   0.13487
  Beta virt. eigenvalues --    0.13639   0.14087   0.14621   0.15626   0.16628

 Mulliken charges and spin densities:
               1          2
     1  C   -0.122481  -0.402195
     2  C   -0.015985   0.209259
     3  N   -0.167206  -0.026879
     4  C   -0.313748   0.132337
     5  C   -0.031793  -0.073262
     6  N   -0.203650   0.051966
     7  C    0.367720  -0.048183
     8  N   -0.542420   0.204547
     9  O    0.157795   0.056973
    10  C   -0.160092   0.369905
    11  N   -0.111140  -0.036783
    12  C    0.481270  -1.100778
    13  N   -0.444737   0.056554
    14  H    0.137183   0.001167
    15  H   -0.115452   0.267428
    16  H    0.125901   0.029043
    17  H    0.130107   0.025764
    18  H    0.283315   0.019481
    19  H    0.074529   0.089656
    20  H   -0.471467   0.645283
    21  H   -0.270313   0.509527
    22  H    0.212665   0.019192
 Sum of Mulliken charges =  -1.00000   1.00000

 Dipole moment (field-independent basis, Debye):
    X=              5.8277    Y=              2.5510    Z=             -0.3281  Tot=              6.3700
 Quadrupole moment (field-independent basis, Debye-Ang):
   XX=           -151.1784   YY=            -99.0576   ZZ=            -93.3736
   XY=             -0.7651   XZ=             -5.7444   YZ=             -0.5885

 Summary of Natural Population Analysis:

                                       Natural Population
                Natural  -----------------------------------------------
    Atom  No    Charge         Core      Valence    Rydberg      Total
 -----------------------------------------------------------------------
      C    1   -0.30629      0.99963     2.30233    0.00432     3.30629
      C    2    0.20386      0.99966     1.78065    0.01582     2.79614
      N    3   -0.27733      0.99970     2.76648    0.01115     3.77733
      C    4   -0.00020      0.99955     1.98695    0.01370     3.00020
      C    5    0.03319      0.99950     1.95604    0.01127     2.96681
      N    6   -0.26052      0.99963     2.75355    0.00734     3.76052
      C    7    0.16004      0.99961     1.82399    0.01636     2.83996
      N    8   -0.05528      0.99967     2.54345    0.01217     3.55528
      O    9   -0.15481      0.99985     3.14697    0.00799     4.15481
      C   10    0.30934      0.99963     1.67034    0.02068     2.69066
      N   11   -0.28668      0.99967     2.77880    0.00821     3.78668
      C   12   -0.11742      0.99960     2.10558    0.01225     3.11742
      N   13   -0.41818      0.99977     2.90697    0.01143     3.91818
      H   14    0.10022      0.00000     0.39861    0.00117     0.39978
      H   15    0.10349      0.00000     0.39458    0.00193     0.39651
      H   16    0.11147      0.00000     0.38698    0.00155     0.38853
      H   17    0.09836      0.00000     0.40054    0.00109     0.40164
      H   18    0.20581      0.00000     0.29178    0.00241     0.29419
      H   19    0.09833      0.00000     0.40015    0.00152     0.40167
      H   20    0.09566      0.00000     0.40061    0.00373     0.40434
      H   21    0.17664      0.00000     0.31820    0.00516     0.32336
      H   22    0.18030      0.00000     0.31733    0.00237     0.31970
 =======================================================================
   * Total *    0.00000     12.99548    33.83089    0.17363    47.00000

 Normal termination of Gaussian 16 at Mon Dec 14 13:25:09 2020.
