 Gaussian 16, Revision A.03,

 -----------------------------------------------------------
 # opt freq B3LYP/6-31G(d) empiricaldispersion=gd3bj scf=xqc
 -----------------------------------------------------------

 ------------------------------
 CID_79848075_JID_7431_neutraal
 ------------------------------
 Symbolic Z-matrix:
 Charge =  0 Multiplicity = 1

 SCF Done:  E(RB3LYP) =  -753.801441151     A.U. after   13 cycles
 SCF Done:  E(RB3LYP) =  -753.806819504     A.U. after   11 cycles
 SCF Done:  E(RB3LYP) =  -753.806744315     A.U. after   11 cycles
 SCF Done:  E(RB3LYP) =  -753.808123963     A.U. after   11 cycles
 SCF Done:  E(RB3LYP) =  -753.808474605     A.U. after   10 cycles
 SCF Done:  E(RB3LYP) =  -753.808580061     A.U. after   10 cycles
 SCF Done:  E(RB3LYP) =  -753.808590701     A.U. after   10 cycles
 SCF Done:  E(RB3LYP) =  -753.808628482     A.U. after    9 cycles
 SCF Done:  E(RB3LYP) =  -753.808632501     A.U. after    8 cycles
 SCF Done:  E(RB3LYP) =  -753.808634864     A.U. after    7 cycles
 SCF Done:  E(RB3LYP) =  -753.808634856     A.U. after    6 cycles
 SCF Done:  E(RB3LYP) =  -753.808634919     A.U. after    6 cycles
 Optimization completed.
    -- Stationary point found.
 Normal termination of Gaussian 16 at Sun Dec 13 20:13:09 2020.

 --------------------------------------------------------------------
 #N Geom=AllCheck Guess=TCheck SCRF=Check GenChk RB3LYP/6-31G(d) Freq
 --------------------------------------------------------------------

 Structure from the checkpoint file:  "JID_7431.chk"
 ------------------------------
 CID_79848075_JID_7431_neutraal
 ------------------------------
 Charge =  0 Multiplicity = 1

 SCF Done:  E(RB3LYP) =  -753.808634919     A.U. after    1 cycles

  Exact polarizability: 169.557  -2.785 142.558  -0.585  -0.473 138.515
 Approx polarizability: 218.295  -0.479 209.860   0.918   3.334 212.149

                      1                      2                      3
                      A                      A                      A
 Frequencies --     45.3151                76.7020                99.2802
 Red. masses --      3.6379                 3.6591                 4.0255
 Frc consts  --      0.0044                 0.0127                 0.0234
 IR Inten    --      1.3732                 0.4106                 0.5574

                      4                      5                      6
                      A                      A                      A
 Frequencies --    133.0535               181.6613               207.8287
 Red. masses --      3.3664                 1.9619                 2.6940
 Frc consts  --      0.0351                 0.0381                 0.0686
 IR Inten    --      0.8952                 0.4081                 0.0909

                      7                      8                      9
                      A                      A                      A
 Frequencies --    212.0983               238.7155               253.4846
 Red. masses --      1.5316                 2.0271                 1.6580
 Frc consts  --      0.0406                 0.0681                 0.0628
 IR Inten    --      0.3607                 0.2070                 0.8725

                     10                     11                     12
                      A                      A                      A
 Frequencies --    268.1440               283.2047               296.7777
 Red. masses --      3.1026                 1.5762                 2.8813
 Frc consts  --      0.1314                 0.0745                 0.1495
 IR Inten    --      3.5050                 0.8732                 1.7639

                     13                     14                     15
                      A                      A                      A
 Frequencies --    318.9792               341.9127               354.9309
 Red. masses --      2.1111                 2.8707                 1.9363
 Frc consts  --      0.1266                 0.1977                 0.1437
 IR Inten    --      0.3117                 2.2458                 1.2203

                     16                     17                     18
                      A                      A                      A
 Frequencies --    373.3753               391.1857               415.5939
 Red. masses --      3.2689                 2.2449                 2.2445
 Frc consts  --      0.2685                 0.2024                 0.2284
 IR Inten    --      6.5753                 3.7379                 1.1007

                     19                     20                     21
                      A                      A                      A
 Frequencies --    434.5576               465.3487               482.3936
 Red. masses --      2.7475                 3.0038                 2.8235
 Frc consts  --      0.3057                 0.3832                 0.3871
 IR Inten    --      0.4135                 3.8160                 1.5409

                     22                     23                     24
                      A                      A                      A
 Frequencies --    510.3157               532.4019               575.1885
 Red. masses --      3.6376                 2.9511                 2.7460
 Frc consts  --      0.5581                 0.4928                 0.5353
 IR Inten    --      0.9588                 1.1838                 5.7783

                     25                     26                     27
                      A                      A                      A
 Frequencies --    604.0198               649.9904               689.9103
 Red. masses --      2.3591                 1.2546                 3.1019
 Frc consts  --      0.5071                 0.3123                 0.8699
 IR Inten    --      5.9693               117.2777                20.3249

                     28                     29                     30
                      A                      A                      A
 Frequencies --    720.8565               783.4192               789.9769
 Red. masses --      4.1103                 2.8063                 3.7638
 Frc consts  --      1.2584                 1.0148                 1.3839
 IR Inten    --      2.7903                 0.9831                 1.0243

                     31                     32                     33
                      A                      A                      A
 Frequencies --    808.4671               834.7293               841.3775
 Red. masses --      1.5732                 2.4938                 3.3262
 Frc consts  --      0.6058                 1.0238                 1.3873
 IR Inten    --      4.2147                 1.3748                 1.2730

                     34                     35                     36
                      A                      A                      A
 Frequencies --    847.7207               876.3217               879.6877
 Red. masses --      2.2058                 2.7944                 1.9468
 Frc consts  --      0.9339                 1.2643                 0.8876
 IR Inten    --      6.8021                 2.3522                 4.4025

                     37                     38                     39
                      A                      A                      A
 Frequencies --    904.2595               930.5528               943.8614
 Red. masses --      2.5790                 2.0730                 2.5033
 Frc consts  --      1.2425                 1.0576                 1.3140
 IR Inten    --     16.2381                 7.3262                 6.2581

                     40                     41                     42
                      A                      A                      A
 Frequencies --    950.4750               957.8854               969.8174
 Red. masses --      1.9841                 1.5892                 2.0705
 Frc consts  --      1.0561                 0.8591                 1.1474
 IR Inten    --      5.9217                 0.7260                 2.9931

                     43                     44                     45
                      A                      A                      A
 Frequencies --    986.3126              1013.5347              1024.6010
 Red. masses --      1.9046                 1.8201                 1.8070
 Frc consts  --      1.0917                 1.1016                 1.1177
 IR Inten    --     43.7067                 8.6831                 5.1306

                     46                     47                     48
                      A                      A                      A
 Frequencies --   1026.9440              1046.4506              1047.8806
 Red. masses --      2.2525                 2.0042                 2.0690
 Frc consts  --      1.3996                 1.2931                 1.3385
 IR Inten    --     19.8416                 5.7793                15.3145

                     49                     50                     51
                      A                      A                      A
 Frequencies --   1055.1217              1083.1395              1087.7511
 Red. masses --      1.6686                 1.8460                 2.0910
 Frc consts  --      1.0945                 1.2760                 1.4576
 IR Inten    --      6.9028                14.3072                24.0062

                     52                     53                     54
                      A                      A                      A
 Frequencies --   1097.2183              1104.6525              1123.2135
 Red. masses --      2.5628                 2.6197                 2.0747
 Frc consts  --      1.8178                 1.8834                 1.5421
 IR Inten    --     44.5952                34.1385                 3.1933

                     55                     56                     57
                      A                      A                      A
 Frequencies --   1139.3671              1172.7279              1190.6850
 Red. masses --      1.9175                 2.0952                 1.3050
 Frc consts  --      1.4666                 1.6977                 1.0900
 IR Inten    --     21.8822                17.7002                 7.8920

                     58                     59                     60
                      A                      A                      A
 Frequencies --   1194.5665              1215.9595              1227.2072
 Red. masses --      1.7664                 2.2356                 1.6425
 Frc consts  --      1.4851                 1.9475                 1.4575
 IR Inten    --      3.0304                16.8063                 1.8709

                     61                     62                     63
                      A                      A                      A
 Frequencies --   1242.7514              1252.7789              1267.5112
 Red. masses --      1.2152                 1.7857                 1.4972
 Frc consts  --      1.1058                 1.6513                 1.4172
 IR Inten    --     11.0307                 0.7442                10.4960

                     64                     65                     66
                      A                      A                      A
 Frequencies --   1273.4041              1288.5418              1311.1940
 Red. masses --      1.2873                 1.5326                 1.4636
 Frc consts  --      1.2299                 1.4993                 1.4825
 IR Inten    --      9.9234                 2.7288                10.6405

                     67                     68                     69
                      A                      A                      A
 Frequencies --   1313.5552              1323.4318              1325.6816
 Red. masses --      1.3496                 1.4880                 1.5777
 Frc consts  --      1.3720                 1.5355                 1.6336
 IR Inten    --      4.7734                 1.4090                 8.2438

                     70                     71                     72
                      A                      A                      A
 Frequencies --   1338.9573              1358.6902              1368.1409
 Red. masses --      1.4936                 1.3757                 1.4717
 Frc consts  --      1.5777                 1.4963                 1.6230
 IR Inten    --      0.3228                 1.0805                 7.3445

                     73                     74                     75
                      A                      A                      A
 Frequencies --   1377.2622              1381.6337              1386.1864
 Red. masses --      1.4840                 1.4375                 1.3791
 Frc consts  --      1.6585                 1.6168                 1.5613
 IR Inten    --      5.1013                 4.3024                 0.2394

                     76                     77                     78
                      A                      A                      A
 Frequencies --   1395.1839              1401.6580              1405.1376
 Red. masses --      1.4055                 1.5176                 1.4133
 Frc consts  --      1.6119                 1.7566                 1.6441
 IR Inten    --     12.9589                 8.3954                 1.8836

                     79                     80                     81
                      A                      A                      A
 Frequencies --   1407.5070              1421.0780              1423.4008
 Red. masses --      1.3981                 1.3742                 1.3087
 Frc consts  --      1.6319                 1.6351                 1.5623
 IR Inten    --      0.9003                11.1166                 1.2600

                     82                     83                     84
                      A                      A                      A
 Frequencies --   1446.1373              1456.3962              1469.3440
 Red. masses --      1.2469                 1.2239                 1.2494
 Frc consts  --      1.5364                 1.5295                 1.5893
 IR Inten    --     21.1501                33.6134                12.4686

                     85                     86                     87
                      A                      A                      A
 Frequencies --   1508.2310              1508.8203              1515.7652
 Red. masses --      1.0756                 1.0811                 1.0685
 Frc consts  --      1.4416                 1.4500                 1.4465
 IR Inten    --      3.2612                 1.4392                 0.2817

                     88                     89                     90
                      A                      A                      A
 Frequencies --   1516.4089              1523.1949              1529.2150
 Red. masses --      1.0755                 1.0767                 1.0693
 Frc consts  --      1.4571                 1.4718                 1.4734
 IR Inten    --      5.5693                 1.7619                15.5763

                     91                     92                     93
                      A                      A                      A
 Frequencies --   1534.0329              1534.5395              1536.1640
 Red. masses --      1.1031                 1.0844                 1.0714
 Frc consts  --      1.5294                 1.5046                 1.4897
 IR Inten    --      5.0899                 4.9602                 7.2919

                     94                     95                     96
                      A                      A                      A
 Frequencies --   1539.3198              1551.5513              2963.7718
 Red. masses --      1.0867                 1.0652                 1.0720
 Frc consts  --      1.5171                 1.5108                 5.5480
 IR Inten    --      5.4247                 8.7776                50.6647

                     97                     98                     99
                      A                      A                      A
 Frequencies --   2980.0361              3016.5982              3021.5113
 Red. masses --      1.0724                 1.0652                 1.0818
 Frc consts  --      5.6112                 5.7108                 5.8191
 IR Inten    --     60.6791                18.0351                16.2909

                    100                    101                    102
                      A                      A                      A
 Frequencies --   3036.1848              3041.3937              3048.8799
 Red. masses --      1.0725                 1.0437                 1.0764
 Frc consts  --      5.8254                 5.6879                 5.8950
 IR Inten    --      0.8071                36.9813                83.4283

                    103                    104                    105
                      A                      A                      A
 Frequencies --   3052.0831              3058.6606              3064.9259
 Red. masses --      1.0695                 1.0505                 1.0856
 Frc consts  --      5.8700                 5.7904                 6.0086
 IR Inten    --     29.1732                 4.4666                54.1130

                    106                    107                    108
                      A                      A                      A
 Frequencies --   3078.4332              3087.9752              3089.0598
 Red. masses --      1.0607                 1.0946                 1.0650
 Frc consts  --      5.9224                 6.1497                 5.9877
 IR Inten    --     14.8919                39.3934                34.4248

                    109                    110                    111
                      A                      A                      A
 Frequencies --   3096.7686              3101.5305              3102.0387
 Red. masses --      1.0983                 1.1008                 1.0917
 Frc consts  --      6.2057                 6.2389                 6.1897
 IR Inten    --     43.0350                46.7360                10.8670

                    112                    113                    114
                      A                      A                      A
 Frequencies --   3108.7606              3113.3150              3117.8052
 Red. masses --      1.0864                 1.0911                 1.0985
 Frc consts  --      6.1860                 6.2309                 6.2915
 IR Inten    --     52.1354                29.4179                29.1114

                    115                    116                    117
                      A                      A                      A
 Frequencies --   3120.1619              3122.9023              3133.9092
 Red. masses --      1.1012                 1.0891                 1.1000
 Frc consts  --      6.3164                 6.2582                 6.3654
 IR Inten    --     32.9504                32.3788                24.0476

                    118                    119                    120
                      A                      A                      A
 Frequencies --   3143.3933              3159.1501              3620.8854
 Red. masses --      1.1049                 1.0955                 1.0639
 Frc consts  --      6.4322                 6.4416                 8.2181
 IR Inten    --     50.8475                27.5520               103.3548

 - Thermochemistry -
 -------------------
 Temperature   298.150 Kelvin.  Pressure   1.00000 Atm.
 Atom     1 has atomic number  6 and mass  12.00000

 Molecular mass:   239.18853 amu.
 Principal axes and moments of inertia in atomic units:
                           1         2         3
     Eigenvalues --  2059.744505297.985135717.98510
           X            0.99996  -0.00796  -0.00438
           Y            0.00776   0.99905  -0.04297
           Z            0.00471   0.04293   0.99907
 This molecule is an asymmetric top.
 Rotational symmetry number  1.
 Warning -- assumption of classical behavior for rotation
           may cause significant error
 Rotational temperatures (Kelvin)      0.04205     0.01635     0.01515
 Rotational constants (GHZ):           0.87620     0.34065     0.31563
 Zero-point vibrational energy    1012196.6 (Joules/Mol)
                                  241.92079 (Kcal/Mol)
 Warning -- explicit consideration of  25 degrees of freedom as
           vibrations may cause significant error
 Vibrational temperatures:     65.20   110.36   142.84   191.43   261.37
          (Kelvin)            299.02   305.16   343.46   364.71   385.80
                              407.47   427.00   458.94   491.94   510.67
                              537.20   562.83   597.95   625.23   669.53
                              694.06   734.23   766.01   827.57   869.05
                              935.19   992.63  1037.15  1127.17  1136.60
                             1163.20  1200.99  1210.55  1219.68  1260.83
                             1265.67  1301.03  1338.86  1358.01  1367.52
                             1378.18  1395.35  1419.08  1458.25  1474.17
                             1477.54  1505.61  1507.67  1518.08  1558.40
                             1565.03  1578.65  1589.35  1616.05  1639.30
                             1687.29  1713.13  1718.71  1749.49  1765.68
                             1788.04  1802.47  1823.67  1832.14  1853.92
                             1886.52  1889.91  1904.12  1907.36  1926.46
                             1954.85  1968.45  1981.57  1987.86  1994.41
                             2007.36  2016.67  2021.68  2025.09  2044.61
                             2047.96  2080.67  2095.43  2114.06  2170.01
                             2170.86  2180.85  2181.77  2191.54  2200.20
                             2207.13  2207.86  2210.20  2214.74  2232.34
                             4264.21  4287.61  4340.21  4347.28  4368.39
                             4375.89  4386.66  4391.27  4400.73  4409.74
                             4429.18  4442.91  4444.47  4455.56  4462.41
                             4463.14  4472.81  4479.37  4485.83  4489.22
                             4493.16  4509.00  4522.64  4545.31  5209.65

 Zero-point correction=                           0.385525 (Hartree/Particle)
 Thermal correction to Energy=                    0.400892
 Thermal correction to Enthalpy=                  0.401836
 Thermal correction to Gibbs Free Energy=         0.344494
 Sum of electronic and zero-point Energies=           -753.423110
 Sum of electronic and thermal Energies=              -753.407743
 Sum of electronic and thermal Enthalpies=            -753.406799
 Sum of electronic and thermal Free Energies=         -753.464141

                     E (Thermal)             CV                S
                      KCal/Mol        Cal/Mol-Kelvin    Cal/Mol-Kelvin
 Total                  251.563             64.588            120.686
 Electronic               0.000              0.000              0.000
 Translational            0.889              2.981             42.318
 Rotational               0.889              2.981             32.501
 Vibrational            249.786             58.626             45.867
 Vibration     1          0.595              1.979              5.012
 Vibration     2          0.599              1.965              3.974
 Vibration     3          0.604              1.950              3.468
 Vibration     4          0.613              1.920              2.901
 Vibration     5          0.630              1.865              2.311
 Vibration     6          0.641              1.829              2.063
 Vibration     7          0.643              1.822              2.026
 Vibration     8          0.657              1.781              1.812
 Vibration     9          0.665              1.757              1.706
 Vibration    10          0.673              1.732              1.608
 Vibration    11          0.682              1.705              1.514
 Vibration    12          0.690              1.680              1.435
 Vibration    13          0.705              1.637              1.315
 Vibration    14          0.721              1.592              1.203
 Vibration    15          0.731              1.565              1.144
 Vibration    16          0.745              1.527              1.066
 Vibration    17          0.759              1.489              0.996
 Vibration    18          0.779              1.436              0.907
 Vibration    19          0.795              1.395              0.844
 Vibration    20          0.823              1.327              0.751
 Vibration    21          0.839              1.289              0.704
 Vibration    22          0.865              1.227              0.633
 Vibration    23          0.887              1.178              0.582
 Vibration    24          0.932              1.085              0.494
 Vibration    25          0.962              1.023              0.443

 Optimization completed.
    -- Stationary point found.
 Normal termination of Gaussian 16 at Sun Dec 13 20:36:49 2020.

 ----------------------------------------------------------------------
 # B3LYP/6-311++G(d,p) empiricaldispersion=gd3bj scf=xqc pop=npa geom=c
 heck
 ----------------------------------------------------------------------

 --------------------------------------
 CID_79848075_JID_7431_Energie_neutraal
 --------------------------------------
 Structure from the checkpoint file:  "JID_7431.chk"
 Charge =  0 Multiplicity = 1

 SCF Done:  E(RB3LYP) =  -754.020789229     A.U. after   15 cycles
 Normal termination of Gaussian 16 at Sun Dec 13 20:47:40 2020.

 ----------------------------------------------------------------------
 # B3LYP/6-311++G(d,p) empiricaldispersion=gd3bj scf=xqc pop=npa geom=c
 heck
 ----------------------------------------------------------------------

 ------------------------------------
 CID_79848075_JID_7431_Energie_kation
 ------------------------------------
 Structure from the checkpoint file:  "JID_7431.chk"
 Charge =  1 Multiplicity = 2

 SCF Done:  E(UB3LYP) =  -753.727301173     A.U. after   22 cycles
 Normal termination of Gaussian 16 at Sun Dec 13 21:10:46 2020.
 Gaussian 16:  ES64L-G16RevA.03 25-Dec-2016

 ----------------------------------------------------------------------
 # B3LYP/6-311++G(d,p) empiricaldispersion=gd3bj scf=xqc pop=npa geom=c
 heck
 ----------------------------------------------------------------------

 -----------------------------------
 CID_79848075_JID_7431_Energie_anion
 -----------------------------------
 Structure from the checkpoint file:  "JID_7431.chk"
 Charge = -1 Multiplicity = 2

                         Standard orientation:
 ---------------------------------------------------------------------
 Center     Atomic      Atomic             Coordinates (Angstroms)
 Number     Number       Type             X           Y           Z
 ---------------------------------------------------------------------
      1          6           0       -1.615505   -0.992896    1.517349
      2          6           0       -2.445383   -0.576115    0.290921
      3          6           0       -3.120670    0.790910    0.526472
      4          6           0       -2.123616    1.948999    0.612474
      5          6           0       -1.281434    2.033083   -0.666741
      6          6           0       -0.606134    0.717263   -1.099381
      7          6           0       -1.580694   -0.492976   -0.997829
      8          8           0       -0.849611   -1.692469   -1.215054
      9          7           0        0.694288    0.368649   -0.464899
     10          6           0        1.209891    1.225886    0.603323
     11          6           0        2.526396    0.646183    1.132593
     12          6           0        2.414417   -0.852712    1.491467
     13          6           0        2.783681   -1.551498    0.156863
     14          6           0        3.023930   -0.359991   -0.795388
     15          6           0        1.738974    0.119453   -1.472129
     16          8           0        3.493937    0.679511    0.074713
     17          6           0       -3.527948   -1.644587    0.064557
     18          1           0       -2.264633   -1.079788    2.396689
     19          1           0       -0.823262   -0.281881    1.758672
     20          1           0       -1.149990   -1.969088    1.350138
     21          1           0       -3.817300    0.986445   -0.302510
     22          1           0       -3.731746    0.741218    1.437186
     23          1           0       -1.487811    1.831421    1.496689
     24          1           0       -2.660629    2.895527    0.750619
     25          1           0       -0.541808    2.838305   -0.604460
     26          1           0       -1.957895    2.310821   -1.486429
     27          1           0       -0.391323    0.827771   -2.169754
     28          1           0       -2.280378   -0.407336   -1.839578
     29          1           0       -0.061068   -1.567883   -0.651602
     30          1           0        1.414290    2.254835    0.262110
     31          1           0        0.482501    1.281085    1.416663
     32          1           0        2.908405    1.268361    1.946089
     33          1           0        1.412770   -1.116389    1.838427
     34          1           0        3.128473   -1.106457    2.279805
     35          1           0        3.700354   -2.138813    0.260023
     36          1           0        1.998371   -2.221175   -0.205871
     37          1           0        3.800585   -0.540945   -1.542855
     38          1           0        1.369575   -0.639445   -2.168550
     39          1           0        1.969312    1.032358   -2.050775
     40          1           0       -3.069726   -2.609303   -0.172254
     41          1           0       -4.150681   -1.764380    0.959365
     42          1           0       -4.186431   -1.368161   -0.768120
 ---------------------------------------------------------------------

 SCF Done:  E(UB3LYP) =  -754.007721841     A.U. after   30 cycles

 The electronic state is 2-A.
 Alpha  occ. eigenvalues --  -19.02843 -19.01811 -14.21947 -10.12881 -10.12602
 Alpha  occ. eigenvalues --  -10.11879 -10.10760 -10.10137 -10.09971 -10.08481
 Alpha  occ. eigenvalues --  -10.07871 -10.07454 -10.07369 -10.06824 -10.06801
 Alpha  occ. eigenvalues --  -10.06179 -10.06126  -0.95517  -0.92761  -0.83028
 Alpha  occ. eigenvalues --   -0.74036  -0.69298  -0.68651  -0.67884  -0.64206
 Alpha  occ. eigenvalues --   -0.59425  -0.58454  -0.57388  -0.57090  -0.51298
 Alpha  occ. eigenvalues --   -0.49912  -0.48921  -0.45438  -0.44844  -0.42465
 Alpha  occ. eigenvalues --   -0.40266  -0.38276  -0.37814  -0.37551  -0.36674
 Alpha  occ. eigenvalues --   -0.35652  -0.35066  -0.34714  -0.33847  -0.33218
 Alpha  occ. eigenvalues --   -0.32041  -0.31013  -0.30740  -0.29609  -0.28537
 Alpha  occ. eigenvalues --   -0.27898  -0.27288  -0.27055  -0.26552  -0.26235
 Alpha  occ. eigenvalues --   -0.25223  -0.24847  -0.23765  -0.23402  -0.22714
 Alpha  occ. eigenvalues --   -0.22436  -0.21954  -0.20413  -0.17655  -0.16366
 Alpha  occ. eigenvalues --   -0.13176   0.04142
 Alpha virt. eigenvalues --    0.05948   0.06640   0.07064   0.07947   0.08119
 Alpha virt. eigenvalues --    0.08857   0.09217   0.09497   0.10319   0.10581
 Alpha virt. eigenvalues --    0.10817   0.11113   0.11904   0.12126   0.12879

  Beta  occ. eigenvalues --  -19.02842 -19.01807 -14.21940 -10.12874 -10.12591
  Beta  occ. eigenvalues --  -10.11873 -10.10752 -10.10127 -10.09955 -10.08481
  Beta  occ. eigenvalues --  -10.07858 -10.07438 -10.07348 -10.06805 -10.06780
  Beta  occ. eigenvalues --  -10.06169 -10.06107  -0.95506  -0.92756  -0.83013
  Beta  occ. eigenvalues --   -0.74014  -0.69273  -0.68624  -0.67855  -0.64176
  Beta  occ. eigenvalues --   -0.59393  -0.58418  -0.57363  -0.57057  -0.51257
  Beta  occ. eigenvalues --   -0.49875  -0.48881  -0.45405  -0.44800  -0.42436
  Beta  occ. eigenvalues --   -0.40234  -0.38249  -0.37788  -0.37531  -0.36651
  Beta  occ. eigenvalues --   -0.35632  -0.35036  -0.34692  -0.33817  -0.33184
  Beta  occ. eigenvalues --   -0.32014  -0.30985  -0.30714  -0.29589  -0.28518
  Beta  occ. eigenvalues --   -0.27876  -0.27264  -0.27032  -0.26525  -0.26207
  Beta  occ. eigenvalues --   -0.25201  -0.24822  -0.23737  -0.23373  -0.22693
  Beta  occ. eigenvalues --   -0.22411  -0.21930  -0.20390  -0.17642  -0.16354
  Beta  occ. eigenvalues --   -0.13138
  Beta virt. eigenvalues --    0.06175   0.06826   0.07298   0.07561   0.08526
  Beta virt. eigenvalues --    0.08704   0.09072   0.09538   0.09800   0.10720
  Beta virt. eigenvalues --    0.10955   0.11173   0.11363   0.12007   0.12498

 Mulliken charges and spin densities:
               1          2
     1  C    0.015297  -0.726114
     2  C   -0.151425   1.063273
     3  C    0.174385  -0.698428
     4  C   -0.059756  -0.189919
     5  C    0.293794  -0.910345
     6  C   -0.093881  -0.238019
     7  C   -0.519142  -0.258255
     8  O   -0.070553   0.002711
     9  N    0.093521   0.108468
    10  C    0.514561  -0.571019
    11  C   -0.480058   0.072864
    12  C    0.922453  -1.186834
    13  C   -0.361293  -0.352420
    14  C    0.491267   0.058720
    15  C   -0.121579  -0.483297
    16  O   -0.092250  -0.029639
    17  C    0.113736  -0.524323
    18  H   -0.124376   0.288141
    19  H    0.073595   0.036579
    20  H    0.151172   0.038917
    21  H   -0.059602   0.208766
    22  H   -0.030583   0.192041
    23  H   -0.168340   0.308252
    24  H   -0.717982   0.930198
    25  H   -0.154454   0.297700
    26  H   -0.384670   0.560656
    27  H    0.086939   0.117991
    28  H    0.012864   0.193381
    29  H    0.401645  -0.116416
    30  H    0.088327   0.101709
    31  H    0.125299  -0.086249
    32  H   -0.567486   0.816047
    33  H    0.100379  -0.015406
    34  H   -0.322224   0.518933
    35  H   -0.135998   0.316373
    36  H   -0.048360   0.158245
    37  H   -0.200908   0.447537
    38  H    0.047024   0.130270
    39  H    0.041649   0.109455
    40  H    0.093753   0.066641
    41  H    0.035197   0.102796
    42  H   -0.011937   0.140020
 Sum of Mulliken charges =  -1.00000   1.00000

 Dipole moment (field-independent basis, Debye):
    X=             -0.2030    Y=             -3.0749    Z=             -1.4502  Tot=              3.4057
 Quadrupole moment (field-independent basis, Debye-Ang):
   XX=           -184.9169   YY=           -159.0290   ZZ=           -151.0922
   XY=              9.2656   XZ=             -6.3494   YZ=             -1.5746

 Summary of Natural Population Analysis:

                                       Natural Population
                Natural  -----------------------------------------------
    Atom  No    Charge         Core      Valence    Rydberg      Total
 -----------------------------------------------------------------------
      C    1   -0.29072      0.99961     2.28292    0.00819     3.29072
      C    2   -0.05315      0.99955     2.04147    0.01213     3.05315
      C    3   -0.18796      0.99959     2.17768    0.01069     3.18796
      C    4   -0.19021      0.99962     2.18165    0.00894     3.19021
      C    5   -0.19753      0.99960     2.18883    0.00909     3.19753
      C    6   -0.00484      0.99955     1.99120    0.01409     3.00484
      C    7    0.06904      0.99946     1.91528    0.01622     2.93096
      O    8   -0.38109      0.99990     3.37514    0.00605     4.38109
      N    9   -0.30849      0.99970     2.79485    0.01394     3.80849
      C   10   -0.09301      0.99958     2.08185    0.01158     3.09301
      C   11    0.05804      0.99956     1.92593    0.01647     2.94196
      C   12   -0.20359      0.99962     2.19544    0.00854     3.20359
      C   13   -0.20117      0.99962     2.19287    0.00868     3.20117
      C   14    0.05553      0.99955     1.92909    0.01583     2.94447
      C   15   -0.09365      0.99959     2.08350    0.01057     3.09365
      O   16   -0.30347      0.99990     3.29551    0.00806     4.30347
      C   17   -0.28236      0.99963     2.27680    0.00593     3.28236
      H   18    0.09933      0.00000     0.39981    0.00086     0.40067
      H   19    0.09994      0.00000     0.39852    0.00154     0.40006
      H   20    0.10203      0.00000     0.39688    0.00109     0.39797
      H   21    0.09695      0.00000     0.40163    0.00142     0.40305
      H   22    0.10047      0.00000     0.39846    0.00107     0.39953
      H   23    0.09349      0.00000     0.40468    0.00184     0.40651
      H   24    0.10268      0.00000     0.39570    0.00162     0.39732
      H   25    0.10536      0.00000     0.39328    0.00135     0.39464
      H   26    0.10316      0.00000     0.39537    0.00147     0.39684
      H   27    0.09584      0.00000     0.40252    0.00164     0.40416
      H   28    0.08785      0.00000     0.41058    0.00157     0.41215
      H   29    0.23432      0.00000     0.26179    0.00389     0.26568
      H   30    0.09126      0.00000     0.40718    0.00156     0.40874
      H   31    0.10011      0.00000     0.39805    0.00185     0.39989
      H   32    0.09793      0.00000     0.40057    0.00150     0.40207
      H   33    0.10453      0.00000     0.39398    0.00149     0.39547
      H   34    0.10234      0.00000     0.39625    0.00141     0.39766
      H   35    0.10240      0.00000     0.39644    0.00117     0.39760
      H   36    0.09832      0.00000     0.40041    0.00128     0.40168
      H   37    0.09647      0.00000     0.40238    0.00116     0.40353
      H   38    0.10414      0.00000     0.39467    0.00119     0.39586
      H   39    0.08974      0.00000     0.40887    0.00139     0.41026
      H   40    0.10586      0.00000     0.39319    0.00096     0.39414
      H   41    0.09654      0.00000     0.40262    0.00084     0.40346
      H   42    0.09758      0.00000     0.40158    0.00083     0.40242
 =======================================================================
   * Total *    0.00000     16.99361    48.78541    0.22098    66.00000

 Normal termination of Gaussian 16 at Sun Dec 13 21:40:16 2020.
