 Gaussian 16, Revision A.03,

 -----------------------------------------------------------
 # opt freq B3LYP/6-31G(d) empiricaldispersion=gd3bj scf=xqc
 -----------------------------------------------------------

 --------------------------------
 CID_115619560_JID_10794_neutraal
 --------------------------------
 Symbolic Z-matrix:
 Charge =  0 Multiplicity = 1

 SCF Done:  E(RB3LYP) =  -947.220781140     A.U. after   16 cycles
 SCF Done:  E(RB3LYP) =  -947.226312944     A.U. after   14 cycles
 SCF Done:  E(RB3LYP) =  -947.226638586     A.U. after   13 cycles
 SCF Done:  E(RB3LYP) =  -947.219526820     A.U. after   15 cycles
 SCF Done:  E(RB3LYP) =  -947.227083680     A.U. after   12 cycles
 SCF Done:  E(RB3LYP) =  -947.227159112     A.U. after   11 cycles
 SCF Done:  E(RB3LYP) =  -947.227315569     A.U. after   13 cycles
 SCF Done:  E(RB3LYP) =  -947.227536579     A.U. after   15 cycles
 SCF Done:  E(RB3LYP) =  -947.227635449     A.U. after   15 cycles
 SCF Done:  E(RB3LYP) =  -947.227944824     A.U. after   11 cycles
 SCF Done:  E(RB3LYP) =  -947.228989007     A.U. after   10 cycles
 SCF Done:  E(RB3LYP) =  -947.228989606     A.U. after   10 cycles
 SCF Done:  E(RB3LYP) =  -947.228990399     A.U. after   10 cycles
 SCF Done:  E(RB3LYP) =  -947.228990879     A.U. after   10 cycles
 SCF Done:  E(RB3LYP) =  -947.228991089     A.U. after    9 cycles
 SCF Done:  E(RB3LYP) =  -947.228991171     A.U. after    8 cycles
 Optimization completed.
    -- Stationary point found.
 Normal termination of Gaussian 16 at Sun Dec 13 13:26:29 2020.

 --------------------------------------------------------------------
 #N Geom=AllCheck Guess=TCheck SCRF=Check GenChk RB3LYP/6-31G(d) Freq
 --------------------------------------------------------------------

 Structure from the checkpoint file:  "JID_10794.chk"
 --------------------------------
 CID_115619560_JID_10794_neutraal
 --------------------------------
 Charge =  0 Multiplicity = 1

 SCF Done:  E(RB3LYP) =  -947.228991172     A.U. after    1 cycles

  Exact polarizability: 227.797  27.478 164.786  12.053 -20.693 117.864
 Approx polarizability: 317.572  57.501 304.123  31.457 -59.965 209.823

                      1                      2                      3
                      A                      A                      A
 Frequencies --      9.2051                26.6342                31.4849
 Red. masses --      5.1933                 4.9732                 5.9893
 Frc consts  --      0.0003                 0.0021                 0.0035
 IR Inten    --      0.2541                 0.1955                 0.3630

                      4                      5                      6
                      A                      A                      A
 Frequencies --     61.2911                63.7294                87.5464
 Red. masses --      9.4261                 3.2810                 7.7842
 Frc consts  --      0.0209                 0.0079                 0.0352
 IR Inten    --      0.0062                 0.1162                 0.5159

                      7                      8                      9
                      A                      A                      A
 Frequencies --    115.0160               151.0441               176.3265
 Red. masses --      4.7441                 4.1750                 5.3461
 Frc consts  --      0.0370                 0.0561                 0.0979
 IR Inten    --      0.2464                 1.3820                 0.6028

                     10                     11                     12
                      A                      A                      A
 Frequencies --    209.9348               235.8094               245.5171
 Red. masses --      1.5217                 4.5010                 3.4276
 Frc consts  --      0.0395                 0.1475                 0.1217
 IR Inten    --      0.2341                 3.0074                 0.4874

                     13                     14                     15
                      A                      A                      A
 Frequencies --    284.4840               317.5180               350.9801
 Red. masses --      3.1935                 3.1951                 4.7302
 Frc consts  --      0.1523                 0.1898                 0.3433
 IR Inten    --      4.6268                 2.0942                 0.8910

                     16                     17                     18
                      A                      A                      A
 Frequencies --    367.8811               392.5075               434.0954
 Red. masses --      6.3658                 3.7229                 3.1451
 Frc consts  --      0.5076                 0.3379                 0.3492
 IR Inten    --      3.3535                 0.0562                 3.4184

                     19                     20                     21
                      A                      A                      A
 Frequencies --    435.2228               455.1305               550.1287
 Red. masses --      4.0083                 3.9230                 6.1816
 Frc consts  --      0.4473                 0.4788                 1.1023
 IR Inten    --      3.7051                 1.7963                 2.1634

                     22                     23                     24
                      A                      A                      A
 Frequencies --    576.0918               604.2286               606.9519
 Red. masses --      4.1213                 5.3592                 4.8282
 Frc consts  --      0.8059                 1.1528                 1.0480
 IR Inten    --      0.4343                 4.0407                 3.3784

                     25                     26                     27
                      A                      A                      A
 Frequencies --    621.1247               642.7096               715.9548
 Red. masses --      5.1277                 5.1229                 5.4293
 Frc consts  --      1.1656                 1.2468                 1.6397
 IR Inten    --      2.9980                 7.3163                 8.9949

                     28                     29                     30
                      A                      A                      A
 Frequencies --    724.3674               735.3568               750.8004
 Red. masses --      1.5902                 4.2009                 3.3186
 Frc consts  --      0.4916                 1.3384                 1.1022
 IR Inten    --     12.7008                 5.4876                62.2539

                     31                     32                     33
                      A                      A                      A
 Frequencies --    772.1111               778.2963               799.4447
 Red. masses --      4.6540                 3.2567                 4.3378
 Frc consts  --      1.6347                 1.1623                 1.6334
 IR Inten    --     33.2892                22.3555                 8.8584

                     34                     35                     36
                      A                      A                      A
 Frequencies --    809.5132               824.6658               831.5600
 Red. masses --      1.4095                 3.2756                 2.3901
 Frc consts  --      0.5442                 1.3125                 0.9738
 IR Inten    --      4.4154                 3.9596                19.3422

                     37                     38                     39
                      A                      A                      A
 Frequencies --    851.6799               857.0424               900.6402
 Red. masses --      5.9133                 1.3954                 8.4953
 Frc consts  --      2.5272                 0.6039                 4.0600
 IR Inten    --      7.3377                 1.1679                28.6836

                     40                     41                     42
                      A                      A                      A
 Frequencies --    926.8755               955.5803               959.6632
 Red. masses --      1.4539                 2.3323                 3.7892
 Frc consts  --      0.7359                 1.2548                 2.0561
 IR Inten    --     13.1785                 4.6331                 4.9571

                     43                     44                     45
                      A                      A                      A
 Frequencies --    961.1810               982.3879              1023.2657
 Red. masses --      1.3148                 2.7717                 4.7144
 Frc consts  --      0.7157                 1.5760                 2.9084
 IR Inten    --      1.8928                 3.4925                 5.8845

                     46                     47                     48
                      A                      A                      A
 Frequencies --   1053.1525              1081.8157              1095.3197
 Red. masses --      4.0304                 2.3807                 1.9570
 Frc consts  --      2.6338                 1.6416                 1.3833
 IR Inten    --      4.2733                 7.1055                21.1470

                     49                     50                     51
                      A                      A                      A
 Frequencies --   1098.9358              1116.2389              1126.1347
 Red. masses --      2.1195                 1.6151                 1.6604
 Frc consts  --      1.5081                 1.1857                 1.2406
 IR Inten    --     66.2197                 1.7767                 8.0148

                     52                     53                     54
                      A                      A                      A
 Frequencies --   1169.9076              1198.5664              1236.6626
 Red. masses --      1.3778                 1.7876                 2.6065
 Frc consts  --      1.1111                 1.5131                 2.3486
 IR Inten    --      6.2584                40.8217                 2.2653

                     55                     56                     57
                      A                      A                      A
 Frequencies --   1280.8262              1289.8402              1315.9339
 Red. masses --      1.7000                 1.3407                 2.1351
 Frc consts  --      1.6431                 1.3142                 2.1784
 IR Inten    --     21.6709                 5.2357                13.9981

                     58                     59                     60
                      A                      A                      A
 Frequencies --   1339.1150              1359.1068              1387.7670
 Red. masses --      2.2444                 1.6391                 4.4622
 Frc consts  --      2.3713                 1.7839                 5.0632
 IR Inten    --     50.9986                98.9521               420.1007

                     61                     62                     63
                      A                      A                      A
 Frequencies --   1393.1215              1398.7358              1407.6307
 Red. masses --      2.3261                 5.9272                 3.1338
 Frc consts  --      2.6599                 6.8324                 3.6585
 IR Inten    --     40.3394               113.4362                 7.3243

                     64                     65                     66
                      A                      A                      A
 Frequencies --   1419.1767              1439.3743              1449.9901
 Red. masses --      2.1135                 1.2931                 3.6042
 Frc consts  --      2.5080                 1.5784                 4.4646
 IR Inten    --      9.7437                 2.1994                26.6901

                     67                     68                     69
                      A                      A                      A
 Frequencies --   1494.7956              1499.1561              1505.4745
 Red. masses --      1.2047                 3.8405                 1.0935
 Frc consts  --      1.5860                 5.0855                 1.4601
 IR Inten    --      7.9535                34.3855                 3.7526

                     70                     71                     72
                      A                      A                      A
 Frequencies --   1521.8843              1527.0480              1535.1128
 Red. masses --      3.0624                 1.0434                 1.1422
 Frc consts  --      4.1790                 1.4335                 1.5859
 IR Inten    --     36.8858                 7.9272                 4.0883

                     73                     74                     75
                      A                      A                      A
 Frequencies --   1567.0347              1574.0858              1615.1599
 Red. masses --      5.2641                 4.6094                 9.0654
 Frc consts  --      7.6161                 6.7290                13.9337
 IR Inten    --      7.4970                10.4012               112.0606

                     76                     77                     78
                      A                      A                      A
 Frequencies --   1643.1989              1646.8122              1673.0926
 Red. masses --      9.2973                 8.5005                 7.7728
 Frc consts  --     14.7907                13.5826                12.8194
 IR Inten    --     81.8104                85.3336                46.9154

                     79                     80                     81
                      A                      A                      A
 Frequencies --   3061.5343              3064.4622              3094.9696
 Red. masses --      1.0480                 1.0510                 1.0616
 Frc consts  --      5.7878                 5.8150                 5.9913
 IR Inten    --     11.9439                22.4783                13.9284

                     82                     83                     84
                      A                      A                      A
 Frequencies --   3115.6628              3134.4399              3143.9084
 Red. masses --      1.0992                 1.1037                 1.1031
 Frc consts  --      6.2866                 6.3888                 6.4237
 IR Inten    --      1.6677                26.2684                25.6457

                     85                     86                     87
                      A                      A                      A
 Frequencies --   3154.0828              3222.5949              3251.9339
 Red. masses --      1.1049                 1.0905                 1.0914
 Frc consts  --      6.4760                 6.6726                 6.8000
 IR Inten    --      0.8575                 3.5577                 1.2813

                     88                     89                     90
                      A                      A                      A
 Frequencies --   3260.7641              3266.4374              3284.4371
 Red. masses --      1.0924                 1.0899                 1.1046
 Frc consts  --      6.8432                 6.8512                 7.0204
 IR Inten    --      2.9553                 0.6928                 1.4038

 - Thermochemistry -
 -------------------
 Temperature   298.150 Kelvin.  Pressure   1.00000 Atm.
 Atom     1 has atomic number  6 and mass  12.00000

 Molecular mass:   272.09094 amu.
 Principal axes and moments of inertia in atomic units:
                           1         2         3
     Eigenvalues --  2444.23597********************
           X            0.99994  -0.00568  -0.00910
           Y            0.00567   0.99998  -0.00167
           Z            0.00911   0.00161   0.99996
 This molecule is an asymmetric top.
 Rotational symmetry number  1.
 Warning -- assumption of classical behavior for rotation
           may cause significant error
 Rotational temperatures (Kelvin)      0.03544     0.00757     0.00693
 Rotational constants (GHZ):           0.73837     0.15766     0.14444
 Zero-point vibrational energy     644359.0 (Joules/Mol)
                                  154.00550 (Kcal/Mol)
 Warning -- explicit consideration of  24 degrees of freedom as
           vibrations may cause significant error
 Vibrational temperatures:     13.24    38.32    45.30    88.18    91.69
          (Kelvin)            125.96   165.48   217.32   253.69   302.05
                              339.28   353.24   409.31   456.84   504.98
                              529.30   564.73   624.57   626.19   654.83
                              791.51   828.87   869.35   873.27   893.66
                              924.72  1030.10  1042.20  1058.01  1080.23
                             1110.90  1119.79  1150.22  1164.71  1186.51
                             1196.43  1225.38  1233.09  1295.82  1333.57
                             1374.87  1380.74  1382.93  1413.44  1472.25
                             1515.25  1556.49  1575.92  1581.12  1606.02
                             1620.26  1683.24  1724.47  1779.28  1842.82
                             1855.79  1893.34  1926.69  1955.45  1996.69
                             2004.39  2012.47  2025.27  2041.88  2070.94
                             2086.21  2150.68  2156.95  2166.04  2189.65
                             2197.08  2208.68  2254.61  2264.76  2323.85
                             2364.20  2369.40  2407.21  4404.86  4409.08
                             4452.97  4482.74  4509.76  4523.38  4538.02
                             4636.60  4678.81  4691.51  4699.67  4725.57

 Zero-point correction=                           0.245423 (Hartree/Particle)
 Thermal correction to Energy=                    0.262096
 Thermal correction to Enthalpy=                  0.263040
 Thermal correction to Gibbs Free Energy=         0.197112
 Sum of electronic and zero-point Energies=           -946.983568
 Sum of electronic and thermal Energies=              -946.966895
 Sum of electronic and thermal Enthalpies=            -946.965951
 Sum of electronic and thermal Free Energies=         -947.031879

                     E (Thermal)             CV                S
                      KCal/Mol        Cal/Mol-Kelvin    Cal/Mol-Kelvin
 Total                  164.468             62.722            138.758
 Electronic               0.000              0.000              0.000
 Translational            0.889              2.981             42.702
 Rotational               0.889              2.981             34.213
 Vibrational            162.690             56.760             61.843
 Vibration     1          0.593              1.987              8.176
 Vibration     2          0.593              1.984              6.066
 Vibration     3          0.594              1.983              5.734
 Vibration     4          0.597              1.973              4.415
 Vibration     5          0.597              1.972              4.338
 Vibration     6          0.601              1.958              3.714
 Vibration     7          0.608              1.937              3.182
 Vibration     8          0.618              1.902              2.659
 Vibration     9          0.628              1.872              2.367
 Vibration    10          0.642              1.826              2.044
 Vibration    11          0.655              1.786              1.834
 Vibration    12          0.660              1.770              1.763
 Vibration    13          0.683              1.702              1.507
 Vibration    14          0.704              1.640              1.323
 Vibration    15          0.728              1.573              1.162
 Vibration    16          0.740              1.538              1.089
 Vibration    17          0.760              1.486              0.991
 Vibration    18          0.795              1.396              0.845
 Vibration    19          0.796              1.393              0.842
 Vibration    20          0.813              1.350              0.780
 Vibration    21          0.905              1.139              0.544
 Vibration    22          0.933              1.083              0.493
 Vibration    23          0.963              1.023              0.442
 Vibration    24          0.966              1.017              0.438

 Optimization completed.
    -- Stationary point found.
 Normal termination of Gaussian 16 at Sun Dec 13 13:39:28 2020.

 ----------------------------------------------------------------------
 # B3LYP/6-311++G(d,p) empiricaldispersion=gd3bj scf=xqc pop=npa geom=c
 heck
 ----------------------------------------------------------------------

 ----------------------------------------
 CID_115619560_JID_10794_Energie_neutraal
 ----------------------------------------
 Structure from the checkpoint file:  "JID_10794.chk"
 Charge =  0 Multiplicity = 1

 SCF Done:  E(RB3LYP) =  -947.482144552     A.U. after   16 cycles
 Normal termination of Gaussian 16 at Sun Dec 13 13:44:20 2020.

 ----------------------------------------------------------------------
 # B3LYP/6-311++G(d,p) empiricaldispersion=gd3bj scf=xqc pop=npa geom=c
 heck
 ----------------------------------------------------------------------

 --------------------------------------
 CID_115619560_JID_10794_Energie_kation
 --------------------------------------
 Structure from the checkpoint file:  "JID_10794.chk"
 Charge =  1 Multiplicity = 2

 SCF Done:  E(UB3LYP) =  -947.177127671     A.U. after   26 cycles
 Normal termination of Gaussian 16 at Sun Dec 13 13:55:06 2020.
 Gaussian 16:  ES64L-G16RevA.03 25-Dec-2016

 ----------------------------------------------------------------------
 # B3LYP/6-311++G(d,p) empiricaldispersion=gd3bj scf=xqc pop=npa geom=c
 heck
 ----------------------------------------------------------------------

 -------------------------------------
 CID_115619560_JID_10794_Energie_anion
 -------------------------------------
 Structure from the checkpoint file:  "JID_10794.chk"
 Charge = -1 Multiplicity = 2

                         Standard orientation:
 ---------------------------------------------------------------------
 Center     Atomic      Atomic             Coordinates (Angstroms)
 Number     Number       Type             X           Y           Z
 ---------------------------------------------------------------------
      1          6           0        6.069626   -0.448018   -0.949047
      2          6           0        4.739794   -1.071115   -1.399564
      3          6           0        3.645302   -0.827210   -0.412859
      4          7           0        3.021276   -1.799282    0.207181
      5          8           0        2.101336   -1.119504    1.036092
      6          6           0        2.288246    0.190637    0.812164
      7          7           0        3.218292    0.442846   -0.058296
      8          6           0        1.391565    1.163613    1.517458
      9          7           0        0.227960    1.507138    0.722089
     10          6           0        0.119397    2.625147   -0.099386
     11          6           0       -1.070817    2.595721   -0.769255
     12          6           0       -1.747541    1.391410   -0.370321
     13          6           0       -0.894934    0.722312    0.557585
     14          6           0       -1.230951   -0.507955    1.136366
     15          6           0       -2.452664   -1.065528    0.795937
     16          6           0       -3.301220   -0.397918   -0.106904
     17          6           0       -2.977107    0.815194   -0.700767
     18          7           0       -4.585547   -1.017409   -0.442017
     19          8           0       -5.319893   -0.428812   -1.238015
     20          8           0       -4.862529   -2.093388    0.091515
     21          1           0        5.957517    0.629021   -0.792694
     22          1           0        6.841452   -0.609493   -1.707907
     23          1           0        6.412792   -0.896298   -0.010849
     24          1           0        4.435875   -0.638656   -2.360655
     25          1           0        4.840775   -2.151083   -1.541779
     26          1           0        1.066857    0.742372    2.473061
     27          1           0        1.955275    2.077058    1.715819
     28          1           0        0.920376    3.350434   -0.122109
     29          1           0       -1.432797    3.342759   -1.460887
     30          1           0       -0.556659   -1.026219    1.809012
     31          1           0       -2.771123   -2.014751    1.205643
     32          1           0       -3.667702    1.277685   -1.394521
 ---------------------------------------------------------------------

 SCF Done:  E(UB3LYP) =  -947.512505325     A.U. after   27 cycles

 The electronic state is 2-A.
 Alpha  occ. eigenvalues --  -19.12102 -18.95579 -18.95569 -14.33374 -14.26969
 Alpha  occ. eigenvalues --  -14.26446 -14.22869 -10.17841 -10.15100 -10.15027
 Alpha  occ. eigenvalues --  -10.11178 -10.10592 -10.09972 -10.08959 -10.07202
 Alpha  occ. eigenvalues --  -10.06391 -10.06252 -10.06134 -10.05112 -10.04784
 Alpha  occ. eigenvalues --   -1.07022  -1.03491  -0.89469  -0.86288  -0.84960
 Alpha  occ. eigenvalues --   -0.78997  -0.74207  -0.71034  -0.70063  -0.65616
 Alpha  occ. eigenvalues --   -0.63140  -0.60956  -0.58542  -0.55421  -0.52569
 Alpha  occ. eigenvalues --   -0.51059  -0.49930  -0.47463  -0.44864  -0.43201
 Alpha  occ. eigenvalues --   -0.42357  -0.40431  -0.38461  -0.38092  -0.37775
 Alpha  occ. eigenvalues --   -0.36105  -0.35785  -0.35664  -0.34860  -0.33770
 Alpha  occ. eigenvalues --   -0.32364  -0.32112  -0.31582  -0.30619  -0.30297
 Alpha  occ. eigenvalues --   -0.29406  -0.29063  -0.28579  -0.27221  -0.25316
 Alpha  occ. eigenvalues --   -0.23754  -0.22940  -0.22222  -0.21114  -0.20197
 Alpha  occ. eigenvalues --   -0.17621  -0.14416  -0.13316  -0.11968  -0.11156
 Alpha  occ. eigenvalues --   -0.10714   0.02599
 Alpha virt. eigenvalues --    0.04565   0.05438   0.06709   0.07848   0.08206
 Alpha virt. eigenvalues --    0.08902   0.09055   0.09595   0.09841   0.11029
 Alpha virt. eigenvalues --    0.11298   0.12142   0.12272   0.12696   0.13738

  Beta  occ. eigenvalues --  -19.11966 -18.95175 -18.95152 -14.32787 -14.26825
  Beta  occ. eigenvalues --  -14.26422 -14.22870 -10.17656 -10.15113 -10.15006
  Beta  occ. eigenvalues --  -10.11181 -10.10614 -10.09967 -10.08790 -10.07167
  Beta  occ. eigenvalues --  -10.06372 -10.06304 -10.06185 -10.05022 -10.04608
  Beta  occ. eigenvalues --   -1.06793  -1.02551  -0.89383  -0.85507  -0.84841
  Beta  occ. eigenvalues --   -0.78765  -0.74041  -0.70963  -0.69994  -0.65339
  Beta  occ. eigenvalues --   -0.62894  -0.60793  -0.58485  -0.54855  -0.52371
  Beta  occ. eigenvalues --   -0.50940  -0.49761  -0.47327  -0.44526  -0.43072
  Beta  occ. eigenvalues --   -0.42170  -0.40156  -0.38337  -0.37884  -0.37300
  Beta  occ. eigenvalues --   -0.35956  -0.35625  -0.34759  -0.33458  -0.33064
  Beta  occ. eigenvalues --   -0.32158  -0.32018  -0.31490  -0.30337  -0.30067
  Beta  occ. eigenvalues --   -0.29361  -0.29002  -0.28539  -0.27069  -0.25143
  Beta  occ. eigenvalues --   -0.23331  -0.22856  -0.21746  -0.21022  -0.19436
  Beta  occ. eigenvalues --   -0.17288  -0.12923  -0.11741  -0.11236  -0.10747
  Beta  occ. eigenvalues --   -0.10174
  Beta virt. eigenvalues --    0.05137   0.06259   0.06799   0.07813   0.08173
  Beta virt. eigenvalues --    0.08565   0.08997   0.09517   0.09608   0.09946
  Beta virt. eigenvalues --    0.10991   0.11385   0.12176   0.12400   0.12733

 Mulliken charges and spin densities:
               1          2
     1  C   -0.455637  -0.027626
     2  C   -0.014989   0.029860
     3  C    0.799694  -0.030301
     4  N   -0.372620   0.067161
     5  O    0.260130   0.027376
     6  C   -0.179304   0.066332
     7  N    0.012431  -0.000853
     8  C   -1.398146   0.040427
     9  N    0.472870  -0.003707
    10  C   -0.120060  -0.018138
    11  C   -0.006640   0.022178
    12  C    0.297696  -0.047334
    13  C   -0.228084   0.107769
    14  C   -0.095108  -0.040300
    15  C   -0.433033   0.091418
    16  C   -0.365844  -0.055135
    17  C   -0.450838   0.177586
    18  N   -0.267351   0.190914
    19  O   -0.169294   0.155069
    20  O   -0.164113   0.164776
    21  H    0.144946   0.005964
    22  H    0.102021   0.037686
    23  H    0.141442  -0.001261
    24  H    0.166979   0.003619
    25  H    0.146234   0.003801
    26  H    0.166243   0.020275
    27  H    0.159988   0.015133
    28  H    0.124664   0.009577
    29  H    0.140141   0.000946
    30  H    0.143189   0.003631
    31  H    0.228773  -0.005930
    32  H    0.213619  -0.010913
 Sum of Mulliken charges =  -1.00000   1.00000

 Dipole moment (field-independent basis, Debye):
    X=             14.6672    Y=              5.2297    Z=              2.0930  Tot=             15.7117
 Quadrupole moment (field-independent basis, Debye-Ang):
   XX=           -220.5971   YY=           -135.7158   ZZ=           -121.0846
   XY=            -16.4635   XZ=            -10.2915   YZ=              1.3211

 Summary of Natural Population Analysis:

                                       Natural Population
                Natural  -----------------------------------------------
    Atom  No    Charge         Core      Valence    Rydberg      Total
 -----------------------------------------------------------------------
      C    1   -0.28177      0.99967     2.27813    0.00397     3.28177
      C    2   -0.20868      0.99960     2.20215    0.00693     3.20868
      C    3    0.17242      0.99965     1.80897    0.01895     2.82758
      N    4   -0.07337      0.99966     2.56212    0.01158     3.57337
      O    5   -0.15967      0.99985     3.14900    0.01082     4.15967
      C    6    0.30556      0.99963     1.67617    0.01864     2.69444
      N    7   -0.27485      0.99966     2.76613    0.00906     3.77485
      C    8   -0.10731      0.99958     2.09783    0.00990     3.10731
      N    9   -0.21002      0.99961     2.70003    0.01038     3.71002
      C   10   -0.01214      0.99957     2.00176    0.01081     3.01214
      C   11   -0.13340      0.99953     2.12511    0.00875     3.13340
      C   12   -0.05975      0.99951     2.05161    0.00863     3.05975
      C   13    0.11255      0.99949     1.87867    0.00929     2.88745
      C   14   -0.13997      0.99954     2.13275    0.00769     3.13997
      C   15   -0.07747      0.99955     2.06785    0.01007     3.07747
      C   16    0.03800      0.99942     1.95097    0.01161     2.96200
      C   17   -0.05395      0.99950     2.04463    0.00982     3.05395
      N   18    0.30080      0.99972     2.17228    0.02720     3.19920
      O   19   -0.20223      0.99990     3.19439    0.00794     4.20223
      O   20   -0.19641      0.99990     3.18873    0.00778     4.19641
      H   21    0.10372      0.00000     0.39534    0.00094     0.39628
      H   22    0.09471      0.00000     0.40383    0.00147     0.40529
      H   23    0.09734      0.00000     0.40180    0.00086     0.40266
      H   24    0.10577      0.00000     0.39302    0.00120     0.39423
      H   25    0.10666      0.00000     0.39219    0.00115     0.39334
      H   26    0.11011      0.00000     0.38873    0.00116     0.38989
      H   27    0.11048      0.00000     0.38858    0.00094     0.38952
      H   28    0.09638      0.00000     0.40273    0.00089     0.40362
      H   29    0.10314      0.00000     0.39597    0.00089     0.39686
      H   30    0.10241      0.00000     0.39615    0.00144     0.39759
      H   31    0.11497      0.00000     0.38377    0.00126     0.38503
      H   32    0.11598      0.00000     0.38322    0.00079     0.38402
 =======================================================================
   * Total *    0.00001     19.99254    50.77464    0.23281    70.99999

 Normal termination of Gaussian 16 at Sun Dec 13 14:06:27 2020.
