 Gaussian 16, Revision A.03,

 -----------------------------------------------------------
 # opt freq B3LYP/6-31G(d) empiricaldispersion=gd3bj scf=xqc
 -----------------------------------------------------------

 --------------------------------
 CID_151761805_JID_10131_neutraal
 --------------------------------
 Symbolic Z-matrix:
 Charge =  0 Multiplicity = 1

 SCF Done:  E(RB3LYP) =  -925.907154002     A.U. after   18 cycles
 SCF Done:  E(RB3LYP) =  -925.916505470     A.U. after   15 cycles
 SCF Done:  E(RB3LYP) =  -925.918435085     A.U. after   14 cycles
 SCF Done:  E(RB3LYP) =  -925.919243908     A.U. after   15 cycles
 SCF Done:  E(RB3LYP) =  -925.919781127     A.U. after   14 cycles
 SCF Done:  E(RB3LYP) =  -925.920009107     A.U. after   13 cycles
 SCF Done:  E(RB3LYP) =  -925.920214603     A.U. after   14 cycles
 SCF Done:  E(RB3LYP) =  -925.920322110     A.U. after   13 cycles
 SCF Done:  E(RB3LYP) =  -925.920390686     A.U. after   13 cycles
 SCF Done:  E(RB3LYP) =  -925.920438925     A.U. after   13 cycles
 SCF Done:  E(RB3LYP) =  -925.920505324     A.U. after   11 cycles
 SCF Done:  E(RB3LYP) =  -925.920505807     A.U. after    9 cycles
 SCF Done:  E(RB3LYP) =  -925.920506235     A.U. after   10 cycles
 SCF Done:  E(RB3LYP) =  -925.920506387     A.U. after    8 cycles
 SCF Done:  E(RB3LYP) =  -925.920506481     A.U. after    8 cycles
 Optimization completed.
    -- Stationary point found.
 Normal termination of Gaussian 16 at Mon Dec 14 13:37:13 2020.

 --------------------------------------------------------------------
 #N Geom=AllCheck Guess=TCheck SCRF=Check GenChk RB3LYP/6-31G(d) Freq
 --------------------------------------------------------------------

 Structure from the checkpoint file:  "JID_10131.chk"
 --------------------------------
 CID_151761805_JID_10131_neutraal
 --------------------------------
 Charge =  0 Multiplicity = 1

 SCF Done:  E(RB3LYP) =  -925.920506481     A.U. after    1 cycles

  Exact polarizability: 237.250 -14.803 164.496   4.111  10.615 134.960
 Approx polarizability: 331.427 -19.711 243.697   5.448  23.227 236.135

                      1                      2                      3
                      A                      A                      A
 Frequencies --     15.1161                23.7396                28.1381
 Red. masses --      6.5042                 9.5237                 7.6057
 Frc consts  --      0.0009                 0.0032                 0.0035
 IR Inten    --      0.0183                 0.0876                 0.0650

                      4                      5                      6
                      A                      A                      A
 Frequencies --     36.4394                51.9662                71.7936
 Red. masses --      3.4702                 3.9360                 5.2057
 Frc consts  --      0.0027                 0.0063                 0.0158
 IR Inten    --      0.7714                 0.9426                 0.5662

                      7                      8                      9
                      A                      A                      A
 Frequencies --     97.3117               122.6907               150.7844
 Red. masses --      4.5787                 2.8699                 7.0746
 Frc consts  --      0.0255                 0.0255                 0.0948
 IR Inten    --      4.4639                 1.3734                 2.1486

                     10                     11                     12
                      A                      A                      A
 Frequencies --    156.3626               192.6334               221.9126
 Red. masses --      3.3941                 5.4620                 4.5179
 Frc consts  --      0.0489                 0.1194                 0.1311
 IR Inten    --      5.1899                 5.9929                 3.2503

                     13                     14                     15
                      A                      A                      A
 Frequencies --    235.9536               255.9680               272.5094
 Red. masses --      5.1328                 3.7935                 1.7022
 Frc consts  --      0.1684                 0.1464                 0.0745
 IR Inten    --      6.0018                 3.0076                50.6059

                     16                     17                     18
                      A                      A                      A
 Frequencies --    324.7239               329.4727               349.4796
 Red. masses --      2.6477                 1.9999                 3.0254
 Frc consts  --      0.1645                 0.1279                 0.2177
 IR Inten    --      4.8031                26.5469                16.1340

                     19                     20                     21
                      A                      A                      A
 Frequencies --    385.1036               406.2606               422.5294
 Red. masses --      3.8983                 4.1901                 3.2371
 Frc consts  --      0.3406                 0.4075                 0.3405
 IR Inten    --      1.3241                 4.8602                 0.2091

                     22                     23                     24
                      A                      A                      A
 Frequencies --    449.7367               473.9595               507.4327
 Red. masses --      2.2290                 1.6135                 3.5810
 Frc consts  --      0.2656                 0.2136                 0.5433
 IR Inten    --     18.9038               101.1439                 2.0465

                     25                     26                     27
                      A                      A                      A
 Frequencies --    514.0321               538.1453               543.7928
 Red. masses --     11.1855                 4.0527                 2.4318
 Frc consts  --      1.7413                 0.6915                 0.4237
 IR Inten    --      7.5560                 4.0831                29.7860

                     28                     29                     30
                      A                      A                      A
 Frequencies --    589.2493               606.4379               633.3052
 Red. masses --      3.0636                 2.8725                 6.3047
 Frc consts  --      0.6267                 0.6224                 1.4899
 IR Inten    --      3.3735                50.6086                 6.1875

                     31                     32                     33
                      A                      A                      A
 Frequencies --    661.1357               690.9194               721.3531
 Red. masses --      7.3041                 1.7935                 4.1247
 Frc consts  --      1.8810                 0.5044                 1.2646
 IR Inten    --      2.4134                50.6838                31.8125

                     34                     35                     36
                      A                      A                      A
 Frequencies --    729.8087               751.9705               813.4803
 Red. masses --      5.1154                 5.4169                 2.5552
 Frc consts  --      1.6053                 1.8047                 0.9962
 IR Inten    --      1.7966                14.2984                11.9758

                     37                     38                     39
                      A                      A                      A
 Frequencies --    837.2963               847.2976               860.8097
 Red. masses --      1.4303                 1.7641                 4.2670
 Frc consts  --      0.5908                 0.7462                 1.8629
 IR Inten    --      8.9075                15.2971                 6.8354

                     40                     41                     42
                      A                      A                      A
 Frequencies --    872.8088               887.3177               907.7112
 Red. masses --      2.5049                 1.9132                 2.3041
 Frc consts  --      1.1243                 0.8875                 1.1186
 IR Inten    --      5.0311                84.4375                 8.5937

                     43                     44                     45
                      A                      A                      A
 Frequencies --    915.1161               917.1941               922.0441
 Red. masses --      1.7192                 8.0345                 1.9802
 Frc consts  --      0.8483                 3.9823                 0.9919
 IR Inten    --     66.9157                56.4158                14.7077

                     46                     47                     48
                      A                      A                      A
 Frequencies --    955.1109               966.7360               982.9373
 Red. masses --      1.3498                 2.5647                 1.7356
 Frc consts  --      0.7255                 1.4122                 0.9880
 IR Inten    --      1.1328                 5.9533                 6.9272

                     49                     50                     51
                      A                      A                      A
 Frequencies --    993.7725              1038.1343              1053.9240
 Red. masses --      1.5344                 2.7598                 2.0267
 Frc consts  --      0.8928                 1.7524                 1.3264
 IR Inten    --      6.6672                11.2663                 1.2766

                     52                     53                     54
                      A                      A                      A
 Frequencies --   1088.6595              1100.5691              1132.0134
 Red. masses --      1.9209                 2.2186                 2.4475
 Frc consts  --      1.3414                 1.5833                 1.8479
 IR Inten    --     18.2591                23.8733                11.2574

                     55                     56                     57
                      A                      A                      A
 Frequencies --   1148.3048              1160.2975              1190.5987
 Red. masses --      1.3232                 2.7646                 2.0910
 Frc consts  --      1.0280                 2.1929                 1.7463
 IR Inten    --     14.4648                42.7057                18.8251

                     58                     59                     60
                      A                      A                      A
 Frequencies --   1195.9069              1202.8331              1211.1229
 Red. masses --      1.5385                 1.5934                 6.0617
 Frc consts  --      1.2964                 1.3583                 5.2387
 IR Inten    --      6.1228                97.1948                12.4581

                     61                     62                     63
                      A                      A                      A
 Frequencies --   1221.5443              1244.2472              1254.1736
 Red. masses --      1.8746                 1.3765                 2.8447
 Frc consts  --      1.6481                 1.2555                 2.6364
 IR Inten    --      7.2260                 5.2430               108.6173

                     64                     65                     66
                      A                      A                      A
 Frequencies --   1272.4319              1280.1529              1303.8628
 Red. masses --      1.2900                 1.4234                 1.3310
 Frc consts  --      1.2306                 1.3744                 1.3332
 IR Inten    --     24.0881                14.1340                 3.9412

                     67                     68                     69
                      A                      A                      A
 Frequencies --   1347.6962              1354.5892              1357.2130
 Red. masses --      1.5795                 1.3912                 3.0739
 Frc consts  --      1.6903                 1.5040                 3.3361
 IR Inten    --     34.5007                31.5227                 9.3049

                     70                     71                     72
                      A                      A                      A
 Frequencies --   1370.4725              1380.4744              1389.6204
 Red. masses --      1.2378                 1.4466                 1.8020
 Frc consts  --      1.3697                 1.6243                 2.0502
 IR Inten    --      7.0004               135.3399                10.2285

                     73                     74                     75
                      A                      A                      A
 Frequencies --   1419.7242              1422.3154              1444.4573
 Red. masses --      1.3336                 1.3757                 1.4932
 Frc consts  --      1.5838                 1.6397                 1.8356
 IR Inten    --      4.0520                22.6345                10.0725

                     76                     77                     78
                      A                      A                      A
 Frequencies --   1467.7488              1473.6823              1494.6514
 Red. masses --      2.5041                 1.6052                 1.1468
 Frc consts  --      3.1783                 2.0540                 1.5094
 IR Inten    --      7.4605                 6.4488                20.1070

                     79                     80                     81
                      A                      A                      A
 Frequencies --   1514.2969              1528.8550              1537.0498
 Red. masses --      1.1929                 1.2893                 1.1901
 Frc consts  --      1.6117                 1.7756                 1.6565
 IR Inten    --     18.5270               102.0682                39.0762

                     82                     83                     84
                      A                      A                      A
 Frequencies --   1539.4393              1555.4251              1644.0450
 Red. masses --      1.2294                 2.3885                 7.0050
 Frc consts  --      1.7166                 3.4046                11.1554
 IR Inten    --     49.9870               145.3446                 5.5000

                     85                     86                     87
                      A                      A                      A
 Frequencies --   1669.0350              1686.3807              1738.6714
 Red. masses --      5.7462                 1.1022                 5.3518
 Frc consts  --      9.4311                 1.8468                 9.5320
 IR Inten    --     43.1218                34.6193               391.7249

                     88                     89                     90
                      A                      A                      A
 Frequencies --   2201.4649              2920.2400              3015.6615
 Red. masses --     13.9947                 1.0741                 1.0685
 Frc consts  --     39.9611                 5.3970                 5.7254
 IR Inten    --    510.4124               121.0759                59.6582

                     91                     92                     93
                      A                      A                      A
 Frequencies --   3043.4066              3054.5565              3057.2945
 Red. masses --      1.0770                 1.0875                 1.0829
 Frc consts  --      5.8775                 5.9783                 5.9637
 IR Inten    --     13.4818                45.8101                95.6287

                     94                     95                     96
                      A                      A                      A
 Frequencies --   3062.6025              3074.8003              3119.7923
 Red. masses --      1.0688                 1.0763                 1.1004
 Frc consts  --      5.9065                 5.9955                 6.3106
 IR Inten    --      9.7049                82.0544                33.9320

                     97                     98                     99
                      A                      A                      A
 Frequencies --   3120.1398              3175.1274              3208.9966
 Red. masses --      1.1065                 1.0893                 1.0881
 Frc consts  --      6.3468                 6.4701                 6.6015
 IR Inten    --     12.6663                16.9772                 1.5305

                    100                    101                    102
                      A                      A                      A
 Frequencies --   3222.7228              3240.2061              3466.3283
 Red. masses --      1.0943                 1.0916                 1.0499
 Frc consts  --      6.6962                 6.7526                 7.4327
 IR Inten    --      4.0703                 4.9944                 3.2067

                    103                    104                    105
                      A                      A                      A
 Frequencies --   3553.2934              3572.2827              3602.8814
 Red. masses --      1.0917                 1.0756                 1.0757
 Frc consts  --      8.1211                 8.0872                 8.2272
 IR Inten    --      0.1496                 4.7541                26.2386

 - Thermochemistry -
 -------------------
 Temperature   298.150 Kelvin.  Pressure   1.00000 Atm.
 Atom     1 has atomic number  6 and mass  12.00000

 Molecular mass:   275.14946 amu.
 Principal axes and moments of inertia in atomic units:
                           1         2         3
     Eigenvalues --  3271.24195********************
           X            0.99986   0.01640  -0.00255
           Y           -0.01639   0.99986   0.00378
           Z            0.00261  -0.00374   0.99999
 This molecule is an asymmetric top.
 Rotational symmetry number  1.
 Warning -- assumption of classical behavior for rotation
           may cause significant error
 Rotational temperatures (Kelvin)      0.02648     0.00766     0.00650
 Rotational constants (GHZ):           0.55170     0.15953     0.13539
 Zero-point vibrational energy     797838.7 (Joules/Mol)
                                  190.68803 (Kcal/Mol)
 Warning -- explicit consideration of  29 degrees of freedom as
           vibrations may cause significant error
 Vibrational temperatures:     21.75    34.16    40.48    52.43    74.77
          (Kelvin)            103.29   140.01   176.52   216.95   224.97
                              277.16   319.28   339.48   368.28   392.08
                              467.21   474.04   502.82   554.08   584.52
                              607.93   647.07   681.92   730.08   739.58
                              774.27   782.40   847.80   872.53   911.18
                              951.23   994.08  1037.87  1050.03  1081.92
                             1170.42  1204.68  1219.07  1238.51  1255.78
                             1276.65  1305.99  1316.65  1319.64  1326.62
                             1374.19  1390.92  1414.23  1429.82  1493.64
                             1516.36  1566.34  1583.47  1628.71  1652.15
                             1669.41  1713.01  1720.64  1730.61  1742.54
                             1757.53  1790.19  1804.48  1830.75  1841.85
                             1875.97  1939.03  1948.95  1952.73  1971.80
                             1986.19  1999.35  2042.67  2046.39  2078.25
                             2111.76  2120.30  2150.47  2178.74  2199.68
                             2211.47  2214.91  2237.91  2365.41  2401.37
                             2426.33  2501.56  3167.42  4201.57  4338.86
                             4378.78  4394.83  4398.76  4406.40  4423.95
                             4488.69  4489.19  4568.30  4617.03  4636.78
                             4661.93  4987.27  5112.40  5139.72  5183.74

 Zero-point correction=                           0.303881 (Hartree/Particle)
 Thermal correction to Energy=                    0.322713
 Thermal correction to Enthalpy=                  0.323657
 Thermal correction to Gibbs Free Energy=         0.253159
 Sum of electronic and zero-point Energies=           -925.616626
 Sum of electronic and thermal Energies=              -925.597794
 Sum of electronic and thermal Enthalpies=            -925.596850
 Sum of electronic and thermal Free Energies=         -925.667347

                     E (Thermal)             CV                S
                      KCal/Mol        Cal/Mol-Kelvin    Cal/Mol-Kelvin
 Total                  202.505             70.632            148.374
 Electronic               0.000              0.000              0.000
 Translational            0.889              2.981             42.735
 Rotational               0.889              2.981             34.555
 Vibrational            200.728             64.670             71.084
 Vibration     1          0.593              1.986              7.190
 Vibration     2          0.593              1.985              6.294
 Vibration     3          0.593              1.984              5.957
 Vibration     4          0.594              1.982              5.444
 Vibration     5          0.596              1.977              4.741
 Vibration     6          0.598              1.967              4.104
 Vibration     7          0.603              1.951              3.507
 Vibration     8          0.610              1.930              3.058
 Vibration     9          0.618              1.902              2.662
 Vibration    10          0.620              1.896              2.593
 Vibration    11          0.635              1.850              2.202
 Vibration    12          0.648              1.808              1.943
 Vibration    13          0.655              1.786              1.833
 Vibration    14          0.666              1.753              1.689
 Vibration    15          0.676              1.724              1.580
 Vibration    16          0.709              1.626              1.286
 Vibration    17          0.712              1.617              1.263
 Vibration    18          0.727              1.576              1.169
 Vibration    19          0.754              1.502              1.019
 Vibration    20          0.771              1.457              0.940
 Vibration    21          0.785              1.421              0.883
 Vibration    22          0.809              1.361              0.797
 Vibration    23          0.831              1.308              0.727
 Vibration    24          0.863              1.234              0.640
 Vibration    25          0.869              1.219              0.624
 Vibration    26          0.893              1.166              0.569
 Vibration    27          0.899              1.153              0.557
 Vibration    28          0.947              1.055              0.469
 Vibration    29          0.965              1.018              0.439

                           ! Non-Optimized Parameters !
 Normal termination of Gaussian 16 at Mon Dec 14 13:55:35 2020.

 ----------------------------------------------------------------------
 # B3LYP/6-311++G(d,p) empiricaldispersion=gd3bj scf=xqc pop=npa geom=c
 heck
 ----------------------------------------------------------------------

 ----------------------------------------
 CID_151761805_JID_10131_Energie_neutraal
 ----------------------------------------
 Structure from the checkpoint file:  "JID_10131.chk"
 Charge =  0 Multiplicity = 1

 SCF Done:  E(RB3LYP) =  -926.184711477     A.U. after   19 cycles
 Normal termination of Gaussian 16 at Mon Dec 14 14:04:26 2020.

 ----------------------------------------------------------------------
 # B3LYP/6-311++G(d,p) empiricaldispersion=gd3bj scf=xqc pop=npa geom=c
 heck
 ----------------------------------------------------------------------

 --------------------------------------
 CID_151761805_JID_10131_Energie_kation
 --------------------------------------
 Structure from the checkpoint file:  "JID_10131.chk"
 Charge =  1 Multiplicity = 2

 SCF Done:  E(UB3LYP) =  -925.907888742     A.U. after   29 cycles
 Normal termination of Gaussian 16 at Mon Dec 14 14:23:45 2020.
 Gaussian 16:  ES64L-G16RevA.03 25-Dec-2016

 ----------------------------------------------------------------------
 # B3LYP/6-311++G(d,p) empiricaldispersion=gd3bj scf=xqc pop=npa geom=c
 heck
 ----------------------------------------------------------------------

 -------------------------------------
 CID_151761805_JID_10131_Energie_anion
 -------------------------------------
 Structure from the checkpoint file:  "JID_10131.chk"
 Charge = -1 Multiplicity = 2

                         Standard orientation:
 ---------------------------------------------------------------------
 Center     Atomic      Atomic             Coordinates (Angstroms)
 Number     Number       Type             X           Y           Z
 ---------------------------------------------------------------------
      1          6           0        1.750838   -1.862832   -1.377428
      2          6           0        0.873592   -2.401628   -0.228826
      3          6           0        1.801769   -2.549736    0.992218
      4          7           0        2.669882   -1.409078    1.257433
      5          6           0        2.815863   -0.519272    0.340626
      6          7           0        2.411828   -0.620198   -0.989671
      7          7           0        3.417490    0.690745    0.661520
      8          6           0        4.269524    1.422781   -0.281512
      9          6           0        3.554277    2.640261   -0.869751
     10          7           0        3.153330    3.536712    0.211501
     11          6           0       -0.334316   -1.509390   -0.008450
     12          6           0       -0.378660   -0.515603    0.980208
     13          6           0       -1.485633    0.318340    1.114970
     14          6           0       -2.576790    0.155875    0.261554
     15          6           0       -2.569405   -0.825900   -0.725999
     16          6           0       -1.445199   -1.641406   -0.850149
     17          8           0       -3.639892    1.013545    0.506214
     18          7           0       -4.556846    1.059148   -0.605267
     19          7           0       -5.711101    0.954107   -0.126196
     20          7           0       -6.815975    0.916684    0.155504
     21          1           0        2.515046   -2.609343   -1.627550
     22          1           0        1.164255   -1.672716   -2.279784
     23          1           0        0.515226   -3.397957   -0.517469
     24          1           0        1.200590   -2.736093    1.891439
     25          1           0        2.422696   -3.446393    0.851056
     26          1           0        1.981627    0.224742   -1.346469
     27          1           0        3.739062    0.670200    1.620763
     28          1           0        5.152508    1.772376    0.262371
     29          1           0        4.597784    0.755477   -1.085623
     30          1           0        4.248910    3.170667   -1.533041
     31          1           0        2.715127    2.292731   -1.504488
     32          1           0        2.629461    4.326023   -0.161161
     33          1           0        2.515558    3.024298    0.820259
     34          1           0        0.465063   -0.384474    1.649119
     35          1           0       -1.516446    1.091903    1.875384
     36          1           0       -3.422764   -0.947078   -1.381427
     37          1           0       -1.439992   -2.408499   -1.621619
 ---------------------------------------------------------------------

 SCF Done:  E(UB3LYP) =  -926.204515491     A.U. after   33 cycles
 SCF Done:  E(UB3LYP) =  -926.204515492     a.u. after    2 cycles

 The electronic state is 2-A.
 Alpha  occ. eigenvalues --  -19.03584 -14.27261 -14.24682 -14.24349 -14.23086
 Alpha  occ. eigenvalues --  -14.21707 -14.19266 -14.18969 -10.18037 -10.12748
 Alpha  occ. eigenvalues --  -10.12576 -10.11943 -10.11849 -10.10800 -10.09539
 Alpha  occ. eigenvalues --  -10.07596 -10.07529 -10.07170 -10.06560 -10.06396
 Alpha  occ. eigenvalues --   -0.98877  -0.92378  -0.90827  -0.83190  -0.80344
 Alpha  occ. eigenvalues --   -0.78762  -0.78022  -0.74959  -0.70140  -0.65242
 Alpha  occ. eigenvalues --   -0.64669  -0.62421  -0.59365  -0.55670  -0.52782
 Alpha  occ. eigenvalues --   -0.51595  -0.50020  -0.46660  -0.45895  -0.44530
 Alpha  occ. eigenvalues --   -0.43062  -0.41178  -0.39580  -0.39120  -0.38741
 Alpha  occ. eigenvalues --   -0.37036  -0.36064  -0.35429  -0.35213  -0.34006
 Alpha  occ. eigenvalues --   -0.33832  -0.33146  -0.32487  -0.32026  -0.31032
 Alpha  occ. eigenvalues --   -0.30125  -0.29499  -0.29342  -0.28432  -0.27864
 Alpha  occ. eigenvalues --   -0.27336  -0.26890  -0.24565  -0.24048  -0.22402
 Alpha  occ. eigenvalues --   -0.18186  -0.17742  -0.16993  -0.16473  -0.15455
 Alpha  occ. eigenvalues --   -0.14192  -0.12388  -0.08163   0.03676
 Alpha virt. eigenvalues --    0.04814   0.05904   0.06864   0.06980   0.08044
 Alpha virt. eigenvalues --    0.08428   0.08626   0.08787   0.09736   0.10230
 Alpha virt. eigenvalues --    0.10289   0.10615   0.11086   0.11476   0.12039

  Beta  occ. eigenvalues --  -19.03210 -14.26784 -14.24674 -14.24348 -14.23068
  Beta  occ. eigenvalues --  -14.21696 -14.18963 -14.18380 -10.18037 -10.12742
  Beta  occ. eigenvalues --  -10.12571 -10.11936 -10.11829 -10.10800 -10.09538
  Beta  occ. eigenvalues --  -10.07598 -10.07524 -10.07163 -10.06549 -10.06397
  Beta  occ. eigenvalues --   -0.97988  -0.91384  -0.90819  -0.83179  -0.80326
  Beta  occ. eigenvalues --   -0.78745  -0.77486  -0.74754  -0.70081  -0.65201
  Beta  occ. eigenvalues --   -0.64652  -0.62308  -0.59353  -0.55597  -0.52693
  Beta  occ. eigenvalues --   -0.51500  -0.49880  -0.46564  -0.45882  -0.44047
  Beta  occ. eigenvalues --   -0.43038  -0.41143  -0.39493  -0.39056  -0.38633
  Beta  occ. eigenvalues --   -0.37002  -0.35580  -0.35209  -0.34824  -0.33944
  Beta  occ. eigenvalues --   -0.33556  -0.32932  -0.31997  -0.31926  -0.30932
  Beta  occ. eigenvalues --   -0.30081  -0.29471  -0.28351  -0.27778  -0.27367
  Beta  occ. eigenvalues --   -0.26876  -0.26157  -0.24339  -0.24003  -0.21837
  Beta  occ. eigenvalues --   -0.17956  -0.17032  -0.16737  -0.16426  -0.15422
  Beta  occ. eigenvalues --   -0.14153  -0.12219  -0.07828
  Beta virt. eigenvalues --    0.05139   0.05986   0.06880   0.07083   0.08092
  Beta virt. eigenvalues --    0.08342   0.08630   0.08753   0.09701   0.10230
  Beta virt. eigenvalues --    0.10272   0.10622   0.11006   0.11390   0.11858

 Mulliken charges and spin densities:
               1          2
     1  C   -0.419848  -0.170067
     2  C    0.468196   0.071333
     3  C   -0.629525  -0.065903
     4  N   -0.083531  -0.002380
     5  C   -0.478481  -0.030504
     6  N   -0.022663   0.006245
     7  N   -0.141160   0.020245
     8  C   -0.246156  -0.033468
     9  C    0.362016  -0.635115
    10  N   -0.418918   0.031280
    11  C    0.448434  -0.036585
    12  C    0.027016   0.168530
    13  C   -0.390570   0.088493
    14  C   -0.342781  -0.267679
    15  C   -0.041716   0.012411
    16  C   -0.562395  -0.021286
    17  O    0.005603   0.027601
    18  N   -0.642247   0.071776
    19  N    0.316421   0.113992
    20  N   -0.215657   0.490448
    21  H    0.076436   0.079224
    22  H    0.053883   0.115736
    23  H    0.193682   0.019618
    24  H    0.166045   0.000186
    25  H    0.126483   0.028616
    26  H    0.311423  -0.090343
    27  H    0.292009   0.009726
    28  H    0.096983   0.069046
    29  H    0.081746   0.101108
    30  H   -0.180652   0.347371
    31  H   -0.152754   0.256362
    32  H    0.115807   0.122700
    33  H    0.213400   0.010270
    34  H    0.196494   0.003567
    35  H    0.150888   0.030567
    36  H    0.154417   0.051180
    37  H    0.111672   0.005700
 Sum of Mulliken charges =  -1.00000   1.00000

 Dipole moment (field-independent basis, Debye):
    X=             12.0153    Y=             -4.7643    Z=             -0.8247  Tot=             12.9516
 Quadrupole moment (field-independent basis, Debye-Ang):
   XX=           -259.4133   YY=           -143.9306   ZZ=           -134.2594
   XY=              9.3022   XZ=              1.5615   YZ=              6.5017

 Summary of Natural Population Analysis:

                                       Natural Population
                Natural  -----------------------------------------------
    Atom  No    Charge         Core      Valence    Rydberg      Total
 -----------------------------------------------------------------------
      C    1   -0.08238      0.99961     2.07047    0.01230     3.08238
      C    2   -0.12811      0.99956     2.11892    0.00962     3.12811
      C    3   -0.09395      0.99960     2.08270    0.01164     3.09395
      N    4   -0.30546      0.99965     2.79620    0.00961     3.80546
      C    5    0.30768      0.99958     1.67282    0.01992     2.69232
      N    6   -0.33826      0.99968     2.82832    0.01026     3.83826
      N    7   -0.33190      0.99967     2.82273    0.00951     3.83190
      C    8   -0.09660      0.99962     2.08422    0.01276     3.09660
      C    9   -0.09176      0.99965     2.08089    0.01122     3.09176
      N   10   -0.42487      0.99977     2.91573    0.00937     3.92487
      C   11   -0.04687      0.99950     2.03619    0.01118     3.04687
      C   12   -0.10425      0.99952     2.09528    0.00945     3.10425
      C   13   -0.12154      0.99952     2.11226    0.00977     3.12154
      C   14    0.16443      0.99937     1.82244    0.01377     2.83557
      C   15   -0.13451      0.99951     2.12629    0.00871     3.13451
      C   16   -0.09416      0.99953     2.08695    0.00769     3.09416
      O   17   -0.17916      0.99986     3.16991    0.00939     4.17916
      N   18   -0.10394      0.99973     2.58756    0.01664     3.60394
      N   19    0.12571      0.99972     2.35802    0.01655     3.37429
      N   20    0.07607      0.99982     2.41066    0.01345     3.42393
      H   21    0.08977      0.00000     0.40917    0.00106     0.41023
      H   22    0.10113      0.00000     0.39789    0.00098     0.39887
      H   23    0.10296      0.00000     0.39543    0.00161     0.39704
      H   24    0.09713      0.00000     0.40159    0.00128     0.40287
      H   25    0.09044      0.00000     0.40841    0.00115     0.40956
      H   26    0.19239      0.00000     0.30436    0.00325     0.30761
      H   27    0.19461      0.00000     0.30280    0.00259     0.30539
      H   28    0.09650      0.00000     0.40236    0.00114     0.40350
      H   29    0.09968      0.00000     0.39907    0.00125     0.40032
      H   30    0.09104      0.00000     0.40740    0.00156     0.40896
      H   31    0.07505      0.00000     0.42290    0.00205     0.42495
      H   32    0.17588      0.00000     0.32250    0.00162     0.32412
      H   33    0.17804      0.00000     0.31968    0.00228     0.32196
      H   34    0.10520      0.00000     0.39292    0.00188     0.39480
      H   35    0.10517      0.00000     0.39348    0.00135     0.39483
      H   36    0.11604      0.00000     0.38270    0.00126     0.38396
      H   37    0.09279      0.00000     0.40582    0.00138     0.40721
 =======================================================================
   * Total *    0.00000     19.99246    52.74703    0.26050    73.00000

 Normal termination of Gaussian 16 at Mon Dec 14 15:04:07 2020.
