 Gaussian 16, Revision A.03,

 -----------------------------------------------------------
 # opt freq B3LYP/6-31G(d) empiricaldispersion=gd3bj scf=xqc
 -----------------------------------------------------------

 -------------------------------
 CID_149951799_JID_8285_neutraal
 -------------------------------
 Symbolic Z-matrix:
 Charge =  0 Multiplicity = 1

 SCF Done:  E(RB3LYP) =  -871.039980110     A.U. after   15 cycles
 SCF Done:  E(RB3LYP) =  -871.048301026     A.U. after   14 cycles
 SCF Done:  E(RB3LYP) =  -871.050207633     A.U. after   14 cycles
 SCF Done:  E(RB3LYP) =  -871.051453895     A.U. after   13 cycles
 SCF Done:  E(RB3LYP) =  -871.051646654     A.U. after   13 cycles
 SCF Done:  E(RB3LYP) =  -871.051964612     A.U. after   13 cycles
 SCF Done:  E(RB3LYP) =  -871.052079962     A.U. after   12 cycles
 SCF Done:  E(RB3LYP) =  -871.052060533     A.U. after   12 cycles
 SCF Done:  E(RB3LYP) =  -871.052049899     A.U. after   12 cycles
 SCF Done:  E(RB3LYP) =  -871.052115748     A.U. after   12 cycles
 SCF Done:  E(RB3LYP) =  -871.052263205     A.U. after   11 cycles
 SCF Done:  E(RB3LYP) =  -871.052263583     A.U. after    8 cycles
 SCF Done:  E(RB3LYP) =  -871.052263623     A.U. after    8 cycles
 SCF Done:  E(RB3LYP) =  -871.052263645     A.U. after    7 cycles
 SCF Done:  E(RB3LYP) =  -871.052263649     A.U. after    8 cycles
 Optimization completed.
    -- Stationary point found.
 Normal termination of Gaussian 16 at Fri Dec 11 20:06:21 2020.

 --------------------------------------------------------------------
 #N Geom=AllCheck Guess=TCheck SCRF=Check GenChk RB3LYP/6-31G(d) Freq
 --------------------------------------------------------------------

 Structure from the checkpoint file:  "JID_8285.chk"
 -------------------------------
 CID_149951799_JID_8285_neutraal
 -------------------------------
 Charge =  0 Multiplicity = 1

 SCF Done:  E(RB3LYP) =  -871.052263649     A.U. after    1 cycles

  Exact polarizability: 213.641  10.656  95.393  -6.113 -11.280 129.957
 Approx polarizability: 350.056  35.392 144.573 -17.743 -27.407 233.896

                      1                      2                      3
                      A                      A                      A
 Frequencies --     12.3541                43.7154                53.8248
 Red. masses --      5.4544                 6.7472                 7.3940
 Frc consts  --      0.0005                 0.0076                 0.0126
 IR Inten    --      0.2972                 0.4374                 0.4263

                      4                      5                      6
                      A                      A                      A
 Frequencies --     79.7335                95.8614               118.8420
 Red. masses --      6.5957                 6.5084                 6.3880
 Frc consts  --      0.0247                 0.0352                 0.0532
 IR Inten    --      2.1141                 1.0287                 0.3535

                      7                      8                      9
                      A                      A                      A
 Frequencies --    167.1189               183.4625               239.4772
 Red. masses --      7.4077                 8.2562                 5.0431
 Frc consts  --      0.1219                 0.1637                 0.1704
 IR Inten    --      0.3006                 1.6910                12.8428

                     10                     11                     12
                      A                      A                      A
 Frequencies --    249.5559               270.8729               285.4665
 Red. masses --      4.2520                 2.7716                 3.5471
 Frc consts  --      0.1560                 0.1198                 0.1703
 IR Inten    --      0.5848                12.7701                 9.5057

                     13                     14                     15
                      A                      A                      A
 Frequencies --    318.5460               335.6407               354.4747
 Red. masses --      4.1434                 2.1784                 2.6248
 Frc consts  --      0.2477                 0.1446                 0.1943
 IR Inten    --     26.2510                52.5524                19.6255

                     16                     17                     18
                      A                      A                      A
 Frequencies --    373.1477               425.8954               439.5717
 Red. masses --      4.2375                 5.1769                 2.6148
 Frc consts  --      0.3476                 0.5533                 0.2977
 IR Inten    --     14.7494                 2.8276                 2.0729

                     19                     20                     21
                      A                      A                      A
 Frequencies --    465.0636               469.0515               525.8824
 Red. masses --      1.3401                 1.2432                 2.6482
 Frc consts  --      0.1708                 0.1612                 0.4315
 IR Inten    --    106.3532                43.3606                24.2660

                     22                     23                     24
                      A                      A                      A
 Frequencies --    531.2552               560.1894               569.4933
 Red. masses --      2.8500                12.4677                 5.1270
 Frc consts  --      0.4739                 2.3052                 0.9797
 IR Inten    --     20.6761                25.1259                 8.5474

                     25                     26                     27
                      A                      A                      A
 Frequencies --    582.6461               612.8005               624.8209
 Red. masses --      3.5976                 3.0439                 2.0323
 Frc consts  --      0.7196                 0.6735                 0.4675
 IR Inten    --      1.8500                47.6144               160.5527

                     28                     29                     30
                      A                      A                      A
 Frequencies --    629.5649               678.1887               709.9926
 Red. masses --      4.3583                 5.8350                 3.4446
 Frc consts  --      1.0178                 1.5812                 1.0230
 IR Inten    --     12.7142                19.0166                21.4697

                     31                     32                     33
                      A                      A                      A
 Frequencies --    750.0691               751.2167               764.1511
 Red. masses --      1.3029                 3.7496                 2.8900
 Frc consts  --      0.4319                 1.2467                 0.9943
 IR Inten    --     21.8768                21.3068                15.6276

                     34                     35                     36
                      A                      A                      A
 Frequencies --    809.1066               812.9206               859.7394
 Red. masses --      1.5668                 3.9239                 1.5501
 Frc consts  --      0.6043                 1.5278                 0.6751
 IR Inten    --     26.8755                 9.4216                 1.7418

                     37                     38                     39
                      A                      A                      A
 Frequencies --    872.9411               906.6380               924.3488
 Red. masses --      2.7877                 5.2276                 1.3403
 Frc consts  --      1.2516                 2.5317                 0.6747
 IR Inten    --     29.0751                 1.7113                 1.2440

                     40                     41                     42
                      A                      A                      A
 Frequencies --    946.8888               968.1555               988.2568
 Red. masses --      5.5205                 1.2342                 4.0153
 Frc consts  --      2.9163                 0.6816                 2.3105
 IR Inten    --     17.5063                 0.0263                 3.8137

                     43                     44                     45
                      A                      A                      A
 Frequencies --   1037.1202              1045.4937              1078.1730
 Red. masses --      4.1059                 2.3366                 4.3117
 Frc consts  --      2.6021                 1.5048                 2.9531
 IR Inten    --    133.0465                29.4383               101.3986

                     46                     47                     48
                      A                      A                      A
 Frequencies --   1082.3059              1114.6674              1146.7090
 Red. masses --      3.0302                 3.2604                 1.7200
 Frc consts  --      2.0913                 2.3868                 1.3325
 IR Inten    --     29.8482                85.6906                 6.9484

                     49                     50                     51
                      A                      A                      A
 Frequencies --   1151.9154              1180.7498              1190.8005
 Red. masses --      2.6428                 1.3012                 1.2792
 Frc consts  --      2.0661                 1.0688                 1.0687
 IR Inten    --     38.5655                22.4646                43.3376

                     52                     53                     54
                      A                      A                      A
 Frequencies --   1227.2903              1235.9531              1265.3349
 Red. masses --      1.3929                 1.4601                 1.4754
 Frc consts  --      1.2361                 1.3141                 1.3917
 IR Inten    --     44.9315                48.7686                 7.9358

                     55                     56                     57
                      A                      A                      A
 Frequencies --   1267.5549              1319.6727              1330.4149
 Red. masses --      1.5967                 3.1395                 1.4711
 Frc consts  --      1.5115                 3.2214                 1.5342
 IR Inten    --      5.0811                40.8874                59.2481

                     58                     59                     60
                      A                      A                      A
 Frequencies --   1342.5654              1359.6270              1380.1444
 Red. masses --      3.1349                 1.8918                 1.6206
 Frc consts  --      3.3293                 2.0605                 1.8188
 IR Inten    --    100.6923                20.2608                 7.9436

                     61                     62                     63
                      A                      A                      A
 Frequencies --   1390.0315              1414.6134              1444.3943
 Red. masses --      2.7528                 1.2407                 1.9709
 Frc consts  --      3.1338                 1.4628                 2.4226
 IR Inten    --     56.0645                 4.3640                45.3561

                     64                     65                     66
                      A                      A                      A
 Frequencies --   1460.3031              1490.8672              1497.1741
 Red. masses --      2.5593                 1.7189                 2.8183
 Frc consts  --      3.2156                 2.2511                 3.7221
 IR Inten    --      1.9893                65.9085                14.0395

                     67                     68                     69
                      A                      A                      A
 Frequencies --   1512.3633              1543.9216              1613.9522
 Red. masses --      1.0927                 2.9969                 6.0370
 Frc consts  --      1.4725                 4.2089                 9.2652
 IR Inten    --     15.0659                 2.4888                 5.4248

                     70                     71                     72
                      A                      A                      A
 Frequencies --   1642.5433              1680.2186              2267.0909
 Red. masses --      5.5239                 6.6111                13.6968
 Frc consts  --      8.7807                10.9966                41.4771
 IR Inten    --      0.3390                 4.3560               387.1351

                     73                     74                     75
                      A                      A                      A
 Frequencies --   3069.4487              3112.5430              3153.1134
 Red. masses --      1.0648                 1.0869                 1.1014
 Frc consts  --      5.9105                 6.2041                 6.4517
 IR Inten    --     23.1147                26.5043                11.9632

                     76                     77                     78
                      A                      A                      A
 Frequencies --   3183.1430              3190.4676              3200.4218
 Red. masses --      1.0851                 1.0884                 1.0937
 Frc consts  --      6.4776                 6.5277                 6.6004
 IR Inten    --      0.6159                 3.6136                35.9712

                     79                     80                     81
                      A                      A                      A
 Frequencies --   3211.1475              3272.1715              3660.8813
 Red. masses --      1.0971                 1.0959                 1.0792
 Frc consts  --      6.6650                 6.9137                 8.5216
 IR Inten    --     29.8069                 3.4163                66.3174

                     82                     83                     84
                      A                      A                      A
 Frequencies --   3669.1208              3676.3919              3753.7570
 Red. masses --      1.0648                 1.0649                 1.0658
 Frc consts  --      8.4457                 8.4798                 8.8487
 IR Inten    --     44.8386                47.3876                54.5898

 - Thermochemistry -
 -------------------
 Temperature   298.150 Kelvin.  Pressure   1.00000 Atm.
 Atom     1 has atomic number  6 and mass  12.00000

 Molecular mass:   248.09094 amu.
 Principal axes and moments of inertia in atomic units:
                           1         2         3
     Eigenvalues --  2416.452906172.552067013.10294
           X            1.00000   0.00207  -0.00181
           Y           -0.00207   1.00000  -0.00105
           Z            0.00181   0.00105   1.00000
 This molecule is an asymmetric top.
 Rotational symmetry number  1.
 Warning -- assumption of classical behavior for rotation
           may cause significant error
 Rotational temperatures (Kelvin)      0.03584     0.01403     0.01235
 Rotational constants (GHZ):           0.74686     0.29238     0.25734
 Zero-point vibrational energy     611456.3 (Joules/Mol)
                                  146.14157 (Kcal/Mol)
 Warning -- explicit consideration of  26 degrees of freedom as
           vibrations may cause significant error
 Vibrational temperatures:     17.77    62.90    77.44   114.72   137.92
          (Kelvin)            170.99   240.45   263.96   344.55   359.06
                              389.73   410.72   458.32   482.91   510.01
                              536.88   612.77   632.45   669.12   674.86
                              756.63   764.36   805.99   819.37   838.30
                              881.68   898.98   905.80   975.76  1021.52
                             1079.18  1080.83  1099.44  1164.12  1169.61
                             1236.97  1255.97  1304.45  1329.93  1362.36
                             1392.96  1421.88  1492.18  1504.23  1551.25
                             1557.20  1603.76  1649.86  1657.35  1698.84
                             1713.30  1765.80  1778.26  1820.53  1823.73
                             1898.71  1914.17  1931.65  1956.20  1985.72
                             1999.95  2035.31  2078.16  2101.05  2145.03
                             2154.10  2175.95  2221.36  2322.12  2363.25
                             2417.46  3261.84  4416.25  4478.26  4536.63
                             4579.83  4590.37  4604.69  4620.12  4707.92
                             5267.19  5279.05  5289.51  5400.82

 Zero-point correction=                           0.232891 (Hartree/Particle)
 Thermal correction to Energy=                    0.248905
 Thermal correction to Enthalpy=                  0.249849
 Thermal correction to Gibbs Free Energy=         0.187985
 Sum of electronic and zero-point Energies=           -870.819372
 Sum of electronic and thermal Energies=              -870.803359
 Sum of electronic and thermal Enthalpies=            -870.802415
 Sum of electronic and thermal Free Energies=         -870.864278

                     E (Thermal)             CV                S
                      KCal/Mol        Cal/Mol-Kelvin    Cal/Mol-Kelvin
 Total                  156.190             61.879            130.203
 Electronic               0.000              0.000              0.000
 Translational            0.889              2.981             42.426
 Rotational               0.889              2.981             33.014
 Vibrational            154.413             55.917             54.763
 Vibration     1          0.593              1.987              7.591
 Vibration     2          0.595              1.980              5.083
 Vibration     3          0.596              1.976              4.672
 Vibration     4          0.600              1.963              3.897
 Vibration     5          0.603              1.952              3.537
 Vibration     6          0.609              1.934              3.119
 Vibration     7          0.624              1.883              2.468
 Vibration     8          0.631              1.862              2.293
 Vibration     9          0.657              1.780              1.807
 Vibration    10          0.662              1.763              1.734
 Vibration    11          0.675              1.727              1.591
 Vibration    12          0.683              1.701              1.501
 Vibration    13          0.705              1.638              1.318
 Vibration    14          0.717              1.604              1.233
 Vibration    15          0.730              1.566              1.146
 Vibration    16          0.745              1.527              1.067
 Vibration    17          0.788              1.414              0.872
 Vibration    18          0.800              1.384              0.828
 Vibration    19          0.823              1.328              0.752
 Vibration    20          0.826              1.319              0.740
 Vibration    21          0.881              1.193              0.596
 Vibration    22          0.886              1.181              0.584
 Vibration    23          0.916              1.117              0.523
 Vibration    24          0.926              1.097              0.505
 Vibration    25          0.939              1.069              0.480
 Vibration    26          0.972              1.005              0.428

 Optimization completed.
    -- Stationary point found.
 Normal termination of Gaussian 16 at Fri Dec 11 20:19:25 2020.

 ----------------------------------------------------------------------
 # B3LYP/6-311++G(d,p) empiricaldispersion=gd3bj scf=xqc pop=npa geom=c
 heck
 ----------------------------------------------------------------------

 ---------------------------------------
 CID_149951799_JID_8285_Energie_neutraal
 ---------------------------------------
 Structure from the checkpoint file:  "JID_8285.chk"
 Charge =  0 Multiplicity = 1

 SCF Done:  E(RB3LYP) =  -871.317650851     A.U. after   16 cycles
 Normal termination of Gaussian 16 at Fri Dec 11 20:25:35 2020.

 ----------------------------------------------------------------------
 # B3LYP/6-311++G(d,p) empiricaldispersion=gd3bj scf=xqc pop=npa geom=c
 heck
 ----------------------------------------------------------------------

 -------------------------------------
 CID_149951799_JID_8285_Energie_kation
 -------------------------------------
 Structure from the checkpoint file:  "JID_8285.chk"
 Charge =  1 Multiplicity = 2

 SCF Done:  E(UB3LYP) =  -871.036002258     A.U. after   30 cycles
 Normal termination of Gaussian 16 at Fri Dec 11 20:42:07 2020.
 Gaussian 16:  ES64L-G16RevA.03 25-Dec-2016

 ----------------------------------------------------------------------
 # B3LYP/6-311++G(d,p) empiricaldispersion=gd3bj scf=xqc pop=npa geom=c
 heck
 ----------------------------------------------------------------------

 ------------------------------------
 CID_149951799_JID_8285_Energie_anion
 ------------------------------------
 Structure from the checkpoint file:  "JID_8285.chk"
 Charge = -1 Multiplicity = 2

                         Standard orientation:
 ---------------------------------------------------------------------
 Center     Atomic      Atomic             Coordinates (Angstroms)
 Number     Number       Type             X           Y           Z
 ---------------------------------------------------------------------
      1          6           0        4.278393   -0.235234   -0.811765
      2          6           0        4.336106   -0.488364    0.574281
      3          6           0        3.179173   -0.613443    1.333978
      4          6           0        1.956443   -0.477891    0.670893
      5          6           0        1.873638   -0.235202   -0.729924
      6          6           0        3.061924   -0.107970   -1.468137
      7          6           0        0.477051   -0.184058   -1.062793
      8          6           0       -0.226707   -0.383228    0.097939
      9          7           0        0.663531   -0.532996    1.152537
     10          6           0       -1.689768   -0.317055    0.400833
     11          6           0       -2.071137    1.087240    0.938121
     12          7           0       -1.864526    2.146819   -0.062775
     13          7           0       -0.731805    2.647670   -0.089841
     14          7           0        0.251118    3.213720   -0.207470
     15          6           0       -2.561706   -0.705533   -0.808762
     16          8           0       -2.236011   -1.968411   -1.304153
     17          8           0       -3.894888   -0.681022   -0.299706
     18          8           0       -1.948656   -1.281144    1.434209
     19          1           0        5.204011   -0.138985   -1.371818
     20          1           0        5.303560   -0.584132    1.058667
     21          1           0        3.224152   -0.803838    2.402661
     22          1           0        3.025754    0.085055   -2.536665
     23          1           0        0.051476   -0.016019   -2.041365
     24          1           0        0.380703   -0.863066    2.063011
     25          1           0       -3.136025    1.100177    1.175678
     26          1           0       -1.496723    1.273151    1.852502
     27          1           0       -2.450402    0.002891   -1.634069
     28          1           0       -2.016166   -2.515938   -0.527770
     29          1           0       -4.441830   -1.148177   -0.950857
     30          1           0       -2.920756   -1.308557    1.512071
 ---------------------------------------------------------------------

 SCF Done:  E(UB3LYP) =  -871.313678566     A.U. after   33 cycles
 SCF Done:  E(UB3LYP) =  -871.313678566     a.u. after    1 cycles

 The electronic state is 2-A.
 Alpha  occ. eigenvalues --  -19.03421 -19.03267 -19.03134 -14.35164 -14.25627
 Alpha  occ. eigenvalues --  -14.25336 -14.24056 -10.17380 -10.14731 -10.11277
 Alpha  occ. eigenvalues --  -10.11273 -10.10919 -10.08379 -10.08096 -10.08053
 Alpha  occ. eigenvalues --  -10.07868 -10.07775 -10.06562  -1.01804  -0.98082
 Alpha  occ. eigenvalues --   -0.93380  -0.90270  -0.88364  -0.86108  -0.75193
 Alpha  occ. eigenvalues --   -0.70215  -0.68224  -0.64638  -0.62833  -0.59471
 Alpha  occ. eigenvalues --   -0.55361  -0.51731  -0.49721  -0.48434  -0.46591
 Alpha  occ. eigenvalues --   -0.44489  -0.43271  -0.41940  -0.40420  -0.39696
 Alpha  occ. eigenvalues --   -0.38138  -0.37901  -0.36740  -0.35199  -0.34548
 Alpha  occ. eigenvalues --   -0.34321  -0.33567  -0.32972  -0.32151  -0.31808
 Alpha  occ. eigenvalues --   -0.30840  -0.28614  -0.27759  -0.26771  -0.25065
 Alpha  occ. eigenvalues --   -0.24772  -0.24243  -0.21642  -0.21099  -0.19123
 Alpha  occ. eigenvalues --   -0.18819  -0.18712  -0.14020  -0.13409  -0.11680
 Alpha  occ. eigenvalues --    0.04184
 Alpha virt. eigenvalues --    0.06375   0.06589   0.07158   0.07356   0.08539
 Alpha virt. eigenvalues --    0.08968   0.09664   0.09969   0.10462   0.10849
 Alpha virt. eigenvalues --    0.11218   0.11775   0.12418   0.12701   0.13608

  Beta  occ. eigenvalues --  -19.03354 -19.03235 -19.03075 -14.34983 -14.25595
  Beta  occ. eigenvalues --  -14.25059 -14.24092 -10.17368 -10.14723 -10.11275
  Beta  occ. eigenvalues --  -10.11260 -10.10847 -10.08363 -10.08084 -10.08038
  Beta  occ. eigenvalues --  -10.07863 -10.07778 -10.06558  -1.01435  -0.98000
  Beta  occ. eigenvalues --   -0.93251  -0.90171  -0.88320  -0.85921  -0.75166
  Beta  occ. eigenvalues --   -0.70141  -0.68160  -0.64601  -0.62750  -0.59351
  Beta  occ. eigenvalues --   -0.55294  -0.51680  -0.49691  -0.48377  -0.46532
  Beta  occ. eigenvalues --   -0.44405  -0.43197  -0.41841  -0.39777  -0.39599
  Beta  occ. eigenvalues --   -0.38062  -0.37840  -0.36584  -0.35044  -0.34435
  Beta  occ. eigenvalues --   -0.34282  -0.33354  -0.32567  -0.32119  -0.31770
  Beta  occ. eigenvalues --   -0.30752  -0.28437  -0.27715  -0.26732  -0.25048
  Beta  occ. eigenvalues --   -0.24707  -0.24179  -0.21577  -0.20985  -0.19057
  Beta  occ. eigenvalues --   -0.18743  -0.18305  -0.13947  -0.13355  -0.11593
  Beta virt. eigenvalues --    0.06448   0.06759   0.07332   0.07748   0.08801
  Beta virt. eigenvalues --    0.09039   0.09354   0.09966   0.10117   0.10818
  Beta virt. eigenvalues --    0.11162   0.11390   0.12041   0.12650   0.12988

 Mulliken charges and spin densities:
               1          2
     1  C   -0.096889  -0.058359
     2  C   -0.151074  -0.190124
     3  C   -1.287623   0.515176
     4  C   -0.474647  -0.562027
     5  C    2.157087  -0.320477
     6  C   -0.461047   0.300951
     7  C    0.843168  -0.730491
     8  C   -0.304866  -0.270702
     9  N    0.004098   0.090225
    10  C   -0.725496   0.575146
    11  C   -0.072318  -0.469134
    12  N   -0.254715  -0.016745
    13  N    0.513219   0.080533
    14  N   -0.375248   0.188672
    15  C    0.766277  -1.128622
    16  O   -0.202240   0.043609
    17  O   -0.354587   0.087714
    18  O   -0.213322   0.016165
    19  H    0.119660   0.011552
    20  H    0.138494  -0.004666
    21  H   -0.171101   0.317715
    22  H    0.085179   0.045781
    23  H    0.133555   0.024516
    24  H    0.007540   0.314039
    25  H   -0.023225   0.275138
    26  H   -0.058623   0.247327
    27  H   -0.002554   0.223816
    28  H    0.044077   0.226601
    29  H   -0.353886   0.639621
    30  H   -0.228893   0.527049
 Sum of Mulliken charges =  -1.00000   1.00000

 Dipole moment (field-independent basis, Debye):
    X=              6.3738    Y=              0.5268    Z=             -0.8656  Tot=              6.4539
 Quadrupole moment (field-independent basis, Debye-Ang):
   XX=           -169.9130   YY=           -144.5839   ZZ=           -128.7795
   XY=             -9.4050   XZ=             -0.8674   YZ=              1.8769

 Summary of Natural Population Analysis:

                                       Natural Population
                Natural  -----------------------------------------------
    Atom  No    Charge         Core      Valence    Rydberg      Total
 -----------------------------------------------------------------------
      C    1   -0.12037      0.99958     2.11119    0.00959     3.12037
      C    2   -0.10939      0.99959     2.10036    0.00945     3.10939
      C    3   -0.11571      0.99952     2.10657    0.00961     3.11571
      C    4    0.08017      0.99948     1.90899    0.01136     2.91983
      C    5   -0.04376      0.99950     2.03442    0.00984     3.04376
      C    6   -0.09024      0.99953     2.08277    0.00794     3.09024
      C    7   -0.12977      0.99946     2.12292    0.00739     3.12977
      C    8    0.08822      0.99948     1.89622    0.01608     2.91178
      N    9   -0.27128      0.99962     2.76270    0.00895     3.77128
      C   10    0.09654      0.99945     1.88556    0.01845     2.90346
      C   11   -0.09419      0.99953     2.08102    0.01365     3.09419
      N   12   -0.20648      0.99970     2.69316    0.01362     3.70648
      N   13    0.12934      0.99970     2.35534    0.01563     3.37066
      N   14   -0.01540      0.99982     2.50242    0.01317     3.51540
      C   15    0.20920      0.99956     1.77234    0.01890     2.79080
      O   16   -0.36703      0.99989     3.36115    0.00599     4.36703
      O   17   -0.38401      0.99989     3.37753    0.00658     4.38401
      O   18   -0.38428      0.99990     3.37659    0.00780     4.38428
      H   19    0.09575      0.00000     0.40326    0.00098     0.40425
      H   20    0.09663      0.00000     0.40265    0.00071     0.40337
      H   21    0.10229      0.00000     0.39678    0.00093     0.39771
      H   22    0.09819      0.00000     0.40052    0.00129     0.40181
      H   23    0.11020      0.00000     0.38885    0.00095     0.38980
      H   24    0.20994      0.00000     0.28741    0.00265     0.29006
      H   25    0.11016      0.00000     0.38796    0.00188     0.38984
      H   26    0.09554      0.00000     0.40288    0.00157     0.40446
      H   27    0.08307      0.00000     0.41485    0.00208     0.41693
      H   28    0.23640      0.00000     0.26002    0.00357     0.26360
      H   29    0.24245      0.00000     0.24540    0.01215     0.25755
      H   30    0.24778      0.00000     0.24030    0.01192     0.25222
 =======================================================================
   * Total *   -0.00000     17.99320    46.76212    0.24468    65.00000

 Normal termination of Gaussian 16 at Fri Dec 11 21:00:24 2020.
