 Gaussian 16, Revision A.03,

 -----------------------------------------------------------
 # opt freq B3LYP/6-31G(d) empiricaldispersion=gd3bj scf=xqc
 -----------------------------------------------------------

 ------------------------------
 CID_62244510_JID_6124_neutraal
 ------------------------------
 Symbolic Z-matrix:
 Charge =  0 Multiplicity = 1

 SCF Done:  E(RB3LYP) =  -709.422974679     A.U. after   14 cycles
 SCF Done:  E(RB3LYP) =  -709.427651404     A.U. after   12 cycles
 SCF Done:  E(RB3LYP) =  -709.429118195     A.U. after   12 cycles
 SCF Done:  E(RB3LYP) =  -709.429775164     A.U. after   11 cycles
 SCF Done:  E(RB3LYP) =  -709.429848321     A.U. after   11 cycles
 SCF Done:  E(RB3LYP) =  -709.429890255     A.U. after   11 cycles
 SCF Done:  E(RB3LYP) =  -709.429897742     A.U. after    9 cycles
 SCF Done:  E(RB3LYP) =  -709.429897695     A.U. after    9 cycles
 SCF Done:  E(RB3LYP) =  -709.429897721     A.U. after    8 cycles
 SCF Done:  E(RB3LYP) =  -709.429897854     A.U. after    8 cycles
 SCF Done:  E(RB3LYP) =  -709.429897929     A.U. after    7 cycles
 SCF Done:  E(RB3LYP) =  -709.429897962     A.U. after    6 cycles
 Optimization completed.
    -- Stationary point found.
 Normal termination of Gaussian 16 at Thu Dec 10 21:10:49 2020.

 --------------------------------------------------------------------
 #N Geom=AllCheck Guess=TCheck SCRF=Check GenChk RB3LYP/6-31G(d) Freq
 --------------------------------------------------------------------

 Structure from the checkpoint file:  "JID_6124.chk"
 ------------------------------
 CID_62244510_JID_6124_neutraal
 ------------------------------
 Charge =  0 Multiplicity = 1

 SCF Done:  E(RB3LYP) =  -709.429897962     A.U. after    1 cycles

  Exact polarizability: 200.599  -9.444 133.321  17.713   9.661 117.254
 Approx polarizability: 248.772 -19.514 221.527  35.381  21.867 181.618

                      1                      2                      3
                      A                      A                      A
 Frequencies --     20.0153                31.6310                42.7434
 Red. masses --      4.1814                 2.9678                 4.0003
 Frc consts  --      0.0010                 0.0017                 0.0043
 IR Inten    --      0.3698                 0.2907                 0.4400

                      4                      5                      6
                      A                      A                      A
 Frequencies --     61.4003               102.9072               107.5076
 Red. masses --      3.3700                 2.3241                 4.6320
 Frc consts  --      0.0075                 0.0145                 0.0315
 IR Inten    --      0.0789                 0.0340                 1.1216

                      7                      8                      9
                      A                      A                      A
 Frequencies --    129.3160               156.6085               196.7589
 Red. masses --      4.1351                 1.8020                 3.4487
 Frc consts  --      0.0407                 0.0260                 0.0787
 IR Inten    --      0.9960                 8.8182                 0.7192

                     10                     11                     12
                      A                      A                      A
 Frequencies --    204.5409               215.7143               234.9049
 Red. masses --      1.9016                 2.7556                 1.0697
 Frc consts  --      0.0469                 0.0755                 0.0348
 IR Inten    --     15.6989                 7.2188                 0.1870

                     13                     14                     15
                      A                      A                      A
 Frequencies --    253.2435               276.0650               285.2143
 Red. masses --      1.1861                 1.4750                 1.8075
 Frc consts  --      0.0448                 0.0662                 0.0866
 IR Inten    --      1.3402                 1.7818                 5.8903

                     16                     17                     18
                      A                      A                      A
 Frequencies --    322.8790               329.6888               362.2748
 Red. masses --      2.1899                 2.6984                 2.3452
 Frc consts  --      0.1345                 0.1728                 0.1813
 IR Inten    --      3.0389                 3.9015                 8.4226

                     19                     20                     21
                      A                      A                      A
 Frequencies --    381.5703               411.8408               424.5011
 Red. masses --      3.0007                 2.4387                 3.9281
 Frc consts  --      0.2574                 0.2437                 0.4171
 IR Inten    --      2.8669                 0.2179                 1.6440

                     22                     23                     24
                      A                      A                      A
 Frequencies --    441.7727               459.4375               485.9498
 Red. masses --      3.2770                 2.4349                 2.6095
 Frc consts  --      0.3768                 0.3028                 0.3631
 IR Inten    --      5.2323                 6.3615                29.1114

                     25                     26                     27
                      A                      A                      A
 Frequencies --    525.5164               554.9125               570.4048
 Red. masses --      2.2707                 2.4934                 2.3263
 Frc consts  --      0.3695                 0.4524                 0.4459
 IR Inten    --    153.1252                22.3391                71.0373

                     28                     29                     30
                      A                      A                      A
 Frequencies --    655.3907               665.5735               764.6449
 Red. masses --      7.4308                 3.3907                 4.0743
 Frc consts  --      1.8806                 0.8850                 1.4035
 IR Inten    --      0.6383                17.6277                 2.0492

                     31                     32                     33
                      A                      A                      A
 Frequencies --    805.3989               816.2788               833.9356
 Red. masses --      3.8825                 2.6252                 1.6489
 Frc consts  --      1.4838                 1.0306                 0.6756
 IR Inten    --     20.7143                 2.3310                24.6163

                     34                     35                     36
                      A                      A                      A
 Frequencies --    837.6128               885.0597               885.8144
 Red. masses --      2.5195                 2.4175                 1.9275
 Frc consts  --      1.0415                 1.1157                 0.8911
 IR Inten    --      1.1491                18.1232                22.2981

                     37                     38                     39
                      A                      A                      A
 Frequencies --    913.7100               943.9882               947.5458
 Red. masses --      1.8479                 1.1831                 1.3992
 Frc consts  --      0.9090                 0.6212                 0.7402
 IR Inten    --      5.9372                 1.8186                 8.8763

                     40                     41                     42
                      A                      A                      A
 Frequencies --    974.6183               982.2772               984.8267
 Red. masses --      1.8241                 1.4781                 1.3385
 Frc consts  --      1.0209                 0.8403                 0.7649
 IR Inten    --      1.3533                 1.8747                 0.9926

                     43                     44                     45
                      A                      A                      A
 Frequencies --   1011.5537              1021.6643              1037.8554
 Red. masses --      2.7968                 2.3798                 1.7384
 Frc consts  --      1.6861                 1.4635                 1.1033
 IR Inten    --     82.6956                 4.2767                 7.3820

                     46                     47                     48
                      A                      A                      A
 Frequencies --   1045.2010              1057.6434              1105.5576
 Red. masses --      2.2243                 1.8276                 3.4671
 Frc consts  --      1.4317                 1.2045                 2.4968
 IR Inten    --     12.6699                 1.4926               113.4700

                     49                     50                     51
                      A                      A                      A
 Frequencies --   1166.0143              1167.9288              1179.5152
 Red. masses --      2.1053                 1.2544                 2.4789
 Frc consts  --      1.6864                 1.0081                 2.0320
 IR Inten    --     74.4312                23.5630               112.1187

                     52                     53                     54
                      A                      A                      A
 Frequencies --   1200.4691              1210.4201              1215.1293
 Red. masses --      1.9568                 1.8633                 2.0914
 Frc consts  --      1.6615                 1.6084                 1.8194
 IR Inten    --      3.6013                 0.2426                21.0379

                     55                     56                     57
                      A                      A                      A
 Frequencies --   1248.8735              1286.6936              1309.0166
 Red. masses --      2.6802                 1.3864                 1.6559
 Frc consts  --      2.4629                 1.3524                 1.6717
 IR Inten    --      9.8271                 0.5638                24.0735

                     58                     59                     60
                      A                      A                      A
 Frequencies --   1319.2464              1331.5360              1345.8215
 Red. masses --      1.7268                 1.2655                 1.8958
 Frc consts  --      1.7707                 1.3220                 2.0231
 IR Inten    --     57.1503                 3.8883                 7.3281

                     61                     62                     63
                      A                      A                      A
 Frequencies --   1360.7151              1379.4352              1384.5063
 Red. masses --      1.7221                 1.3530                 1.6057
 Frc consts  --      1.8786                 1.5168                 1.8135
 IR Inten    --      5.7881                 6.5671                 4.2563

                     64                     65                     66
                      A                      A                      A
 Frequencies --   1391.7349              1399.8641              1405.6441
 Red. masses --      1.3665                 1.5344                 1.4827
 Frc consts  --      1.5595                 1.7716                 1.7260
 IR Inten    --      6.9107                70.7558                86.3044

                     67                     68                     69
                      A                      A                      A
 Frequencies --   1426.0643              1430.5890              1439.0050
 Red. masses --      1.3305                 1.2829                 1.5216
 Frc consts  --      1.5942                 1.5469                 1.8565
 IR Inten    --      6.3532                 4.5899                 1.1137

                     70                     71                     72
                      A                      A                      A
 Frequencies --   1442.8477              1449.8899              1508.1148
 Red. masses --      1.2690                 1.2368                 1.5332
 Frc consts  --      1.5565                 1.5318                 2.0545
 IR Inten    --     12.9696                 3.3219                53.8827

                     73                     74                     75
                      A                      A                      A
 Frequencies --   1510.7072              1517.4991              1519.0109
 Red. masses --      1.1055                 1.0636                 1.0602
 Frc consts  --      1.4865                 1.4431                 1.4413
 IR Inten    --      3.4017                 0.1248                 1.7580

                     76                     77                     78
                      A                      A                      A
 Frequencies --   1523.7495              1528.3927              1530.1724
 Red. masses --      1.0503                 1.0708                 1.0690
 Frc consts  --      1.4368                 1.4738                 1.4747
 IR Inten    --      1.7239                 6.4935                 7.6974

                     79                     80                     81
                      A                      A                      A
 Frequencies --   1536.0951              1541.9720              1547.6832
 Red. masses --      1.0562                 1.0486                 2.8310
 Frc consts  --      1.4684                 1.4690                 3.9954
 IR Inten    --      1.8270                11.7069               162.6732

                     82                     83                     84
                      A                      A                      A
 Frequencies --   1625.3666              1672.9581              1749.7513
 Red. masses --      5.2481                 5.7575                 1.0620
 Frc consts  --      8.1687                 9.4942                 1.9156
 IR Inten    --     17.5154               165.1256                28.2267

                     85                     86                     87
                      A                      A                      A
 Frequencies --   3024.1613              3025.9472              3034.5734
 Red. masses --      1.0590                 1.0820                 1.0543
 Frc consts  --      5.7063                 5.8370                 5.7200
 IR Inten    --      9.5900                 5.6451                41.1868

                     88                     89                     90
                      A                      A                      A
 Frequencies --   3038.0181              3044.1001              3061.4944
 Red. masses --      1.0381                 1.0390                 1.0379
 Frc consts  --      5.6453                 5.6724                 5.7318
 IR Inten    --     53.3006                23.8862                 6.3680

                     91                     92                     93
                      A                      A                      A
 Frequencies --   3062.6127              3067.5566              3081.4384
 Red. masses --      1.0973                 1.0994                 1.0954
 Frc consts  --      6.0642                 6.0954                 6.1282
 IR Inten    --      5.6470                23.4771                56.4078

                     94                     95                     96
                      A                      A                      A
 Frequencies --   3101.7944              3107.8594              3111.2712
 Red. masses --      1.1016                 1.1013                 1.1019
 Frc consts  --      6.2445                 6.2675                 6.2847
 IR Inten    --      8.6283                58.1893                49.4138

                     97                     98                     99
                      A                      A                      A
 Frequencies --   3116.5362              3126.2472              3144.9472
 Red. masses --      1.1011                 1.1009                 1.1016
 Frc consts  --      6.3014                 6.3396                 6.4196
 IR Inten    --     56.9714                49.7564                14.6000

                    100                    101                    102
                      A                      A                      A
 Frequencies --   3148.1084              3187.8407              3211.1319
 Red. masses --      1.0900                 1.0885                 1.0940
 Frc consts  --      6.3646                 6.5173                 6.6464
 IR Inten    --     42.4731                11.7852                 7.8100

                    103                    104                    105
                      A                      A                      A
 Frequencies --   3421.5254              3501.3873              3595.0233
 Red. masses --      1.0504                 1.0905                 1.0771
 Frc consts  --      7.2453                 7.8770                 8.2016
 IR Inten    --      6.9828                 0.4411                32.1736

 - Thermochemistry -
 -------------------
 Temperature   298.150 Kelvin.  Pressure   1.00000 Atm.
 Atom     1 has atomic number  6 and mass  12.00000

 Molecular mass:   223.16846 amu.
 Principal axes and moments of inertia in atomic units:
                           1         2         3
     Eigenvalues --  1303.374279720.216829926.56243
           X            0.99998   0.00592  -0.00129
           Y           -0.00578   0.99595   0.08975
           Z            0.00181  -0.08974   0.99596
 This molecule is an asymmetric top.
 Rotational symmetry number  1.
 Warning -- assumption of classical behavior for rotation
           may cause significant error
 Rotational temperatures (Kelvin)      0.06645     0.00891     0.00873
 Rotational constants (GHZ):           1.38467     0.18567     0.18181
 Zero-point vibrational energy     860004.2 (Joules/Mol)
                                  205.54594 (Kcal/Mol)
 Warning -- explicit consideration of  27 degrees of freedom as
           vibrations may cause significant error
 Vibrational temperatures:     28.80    45.51    61.50    88.34   148.06
          (Kelvin)            154.68   186.06   225.32   283.09   294.29
                              310.36   337.98   364.36   397.20   410.36
                              464.55   474.35   521.23   548.99   592.55
                              610.76   635.61   661.03   699.17   756.10
                              798.40   820.69   942.96   957.61  1100.15
                             1158.79  1174.44  1199.85  1205.14  1273.40
                             1274.49  1314.62  1358.19  1363.31  1402.26
                             1413.28  1416.95  1455.40  1469.95  1493.24
                             1503.81  1521.71  1590.65  1677.63  1680.39
                             1697.06  1727.21  1741.52  1748.30  1796.85
                             1851.27  1883.38  1898.10  1915.78  1936.34
                             1957.77  1984.70  1992.00  2002.40  2014.09
                             2022.41  2051.79  2058.30  2070.41  2075.94
                             2086.07  2169.84  2173.57  2183.34  2185.52
                             2192.34  2199.02  2201.58  2210.10  2218.55
                             2226.77  2338.54  2407.01  2517.50  4351.09
                             4353.66  4366.07  4371.03  4379.78  4404.81
                             4406.42  4413.53  4433.50  4462.79  4471.52
                             4476.43  4484.00  4497.97  4524.88  4529.43
                             4586.59  4620.10  4922.81  5037.72  5172.44

 Zero-point correction=                           0.327558 (Hartree/Particle)
 Thermal correction to Energy=                    0.344989
 Thermal correction to Enthalpy=                  0.345933
 Thermal correction to Gibbs Free Energy=         0.281024
 Sum of electronic and zero-point Energies=           -709.102340
 Sum of electronic and thermal Energies=              -709.084909
 Sum of electronic and thermal Enthalpies=            -709.083965
 Sum of electronic and thermal Free Energies=         -709.148874

                     E (Thermal)             CV                S
                      KCal/Mol        Cal/Mol-Kelvin    Cal/Mol-Kelvin
 Total                  216.484             65.273            136.613
 Electronic               0.000              0.000              0.000
 Translational            0.889              2.981             42.111
 Rotational               0.889              2.981             33.197
 Vibrational            214.706             59.311             61.305
 Vibration     1          0.593              1.986              6.633
 Vibration     2          0.594              1.983              5.724
 Vibration     3          0.595              1.980              5.128
 Vibration     4          0.597              1.973              4.412
 Vibration     5          0.605              1.947              3.398
 Vibration     6          0.606              1.943              3.313
 Vibration     7          0.612              1.924              2.956
 Vibration     8          0.620              1.895              2.590
 Vibration     9          0.636              1.844              2.163
 Vibration    10          0.640              1.833              2.092
 Vibration    11          0.645              1.817              1.995
 Vibration    12          0.655              1.787              1.841
 Vibration    13          0.664              1.757              1.708
 Vibration    14          0.678              1.718              1.558
 Vibration    15          0.683              1.701              1.502
 Vibration    16          0.708              1.630              1.295
 Vibration    17          0.712              1.616              1.262
 Vibration    18          0.736              1.550              1.112
 Vibration    19          0.751              1.509              1.033
 Vibration    20          0.776              1.445              0.920
 Vibration    21          0.786              1.417              0.877
 Vibration    22          0.802              1.379              0.821
 Vibration    23          0.817              1.340              0.768
 Vibration    24          0.842              1.281              0.694
 Vibration    25          0.880              1.194              0.597
 Vibration    26          0.910              1.129              0.534
 Vibration    27          0.927              1.095              0.503

 Optimization completed.
    -- Stationary point found.
 Normal termination of Gaussian 16 at Thu Dec 10 21:22:28 2020.

 ----------------------------------------------------------------------
 # B3LYP/6-311++G(d,p) empiricaldispersion=gd3bj scf=xqc pop=npa geom=c
 heck
 ----------------------------------------------------------------------

 --------------------------------------
 CID_62244510_JID_6124_Energie_neutraal
 --------------------------------------
 Structure from the checkpoint file:  "JID_6124.chk"
 Charge =  0 Multiplicity = 1

 SCF Done:  E(RB3LYP) =  -709.634722661     A.U. after   14 cycles
 Normal termination of Gaussian 16 at Thu Dec 10 21:27:55 2020.

 ----------------------------------------------------------------------
 # B3LYP/6-311++G(d,p) empiricaldispersion=gd3bj scf=xqc pop=npa geom=c
 heck
 ----------------------------------------------------------------------

 ------------------------------------
 CID_62244510_JID_6124_Energie_kation
 ------------------------------------
 Structure from the checkpoint file:  "JID_6124.chk"
 Charge =  1 Multiplicity = 2

 SCF Done:  E(UB3LYP) =  -709.348354529     A.U. after   24 cycles
 Normal termination of Gaussian 16 at Thu Dec 10 21:40:03 2020.
 Gaussian 16:  ES64L-G16RevA.03 25-Dec-2016

 ----------------------------------------------------------------------
 # B3LYP/6-311++G(d,p) empiricaldispersion=gd3bj scf=xqc pop=npa geom=c
 heck
 ----------------------------------------------------------------------

 -----------------------------------
 CID_62244510_JID_6124_Energie_anion
 -----------------------------------
 Structure from the checkpoint file:  "JID_6124.chk"
 Charge = -1 Multiplicity = 2

                         Standard orientation:
 ---------------------------------------------------------------------
 Center     Atomic      Atomic             Coordinates (Angstroms)
 Number     Number       Type             X           Y           Z
 ---------------------------------------------------------------------
      1          6           0       -4.887234    0.227667    1.313815
      2          6           0       -4.184148   -0.734832    0.347453
      3          6           0       -5.206420   -1.411940   -0.574664
      4          6           0       -3.103275   -0.034336   -0.496369
      5          6           0       -1.992723    0.678570    0.289180
      6          6           0       -1.204340   -0.253260    1.210432
      7          8           0       -1.163653    1.443496   -0.602811
      8          6           0       -0.268333    0.730441   -1.446148
      9          6           0        1.086711    0.497796   -0.818593
     10          6           0        1.786655   -0.688742   -0.994025
     11          7           0        3.003624   -0.942139   -0.486923
     12          6           0        3.576348    0.013803    0.252427
     13          6           0        2.956374    1.259231    0.501953
     14          6           0        1.708691    1.490912   -0.042315
     15          7           0        4.815404   -0.270834    0.807992
     16          7           0        5.565052   -1.378512    0.345668
     17          1           0       -5.333464    1.068556    0.767398
     18          1           0       -4.200282    0.641568    2.059616
     19          1           0       -5.692146   -0.282936    1.854745
     20          1           0       -3.701313   -1.523007    0.942241
     21          1           0       -5.730368   -0.667464   -1.187595
     22          1           0       -4.721542   -2.122035   -1.254776
     23          1           0       -5.960349   -1.958627    0.003402
     24          1           0       -2.651403   -0.781978   -1.162313
     25          1           0       -3.580508    0.713876   -1.143585
     26          1           0       -2.449469    1.460694    0.904582
     27          1           0       -0.773264   -1.099254    0.664790
     28          1           0       -0.388127    0.285830    1.698360
     29          1           0       -1.862630   -0.657011    1.986977
     30          1           0       -0.690679   -0.225643   -1.783649
     31          1           0       -0.164266    1.361142   -2.338184
     32          1           0        1.347884   -1.497573   -1.579167
     33          1           0        3.453502    2.006051    1.114984
     34          1           0        1.189243    2.427555    0.137285
     35          1           0        5.405416    0.529363    0.993821
     36          1           0        5.215190   -2.195486    0.846438
     37          1           0        5.299418   -1.543046   -0.628930
 ---------------------------------------------------------------------

 SCF Done:  E(UB3LYP) =  -709.622033743     A.U. after   33 cycles
 SCF Done:  E(UB3LYP) =  -709.622033743     a.u. after    1 cycles

 The electronic state is 2-A.
 Alpha  occ. eigenvalues --  -19.01897 -14.25590 -14.24289 -14.19197 -10.13862
 Alpha  occ. eigenvalues --  -10.11889 -10.11875 -10.08878 -10.07424 -10.06924
 Alpha  occ. eigenvalues --  -10.06690 -10.06670 -10.06120 -10.05787 -10.05523
 Alpha  occ. eigenvalues --  -10.05482  -0.92910  -0.90582  -0.82664  -0.71775
 Alpha  occ. eigenvalues --   -0.71428  -0.70008  -0.66156  -0.63922  -0.58673
 Alpha  occ. eigenvalues --   -0.58268  -0.57852  -0.52739  -0.51498  -0.48079
 Alpha  occ. eigenvalues --   -0.45027  -0.44230  -0.41946  -0.41116  -0.39503
 Alpha  occ. eigenvalues --   -0.38539  -0.37124  -0.35712  -0.35106  -0.34119
 Alpha  occ. eigenvalues --   -0.33334  -0.32270  -0.31604  -0.29887  -0.29748
 Alpha  occ. eigenvalues --   -0.29210  -0.28806  -0.27722  -0.27374  -0.25862
 Alpha  occ. eigenvalues --   -0.25447  -0.23977  -0.22850  -0.22389  -0.20991
 Alpha  occ. eigenvalues --   -0.20046  -0.19077  -0.18168  -0.16577  -0.15157
 Alpha  occ. eigenvalues --   -0.11563   0.04616
 Alpha virt. eigenvalues --    0.06146   0.06665   0.07381   0.07816   0.08230
 Alpha virt. eigenvalues --    0.08336   0.09024   0.09606   0.09886   0.10461
 Alpha virt. eigenvalues --    0.10785   0.10918   0.11172   0.11863   0.12496

  Beta  occ. eigenvalues --  -19.01900 -14.25588 -14.24285 -14.19053 -10.13889
  Beta  occ. eigenvalues --  -10.11876 -10.11869 -10.08737 -10.07414 -10.06777
  Beta  occ. eigenvalues --  -10.06725 -10.06561 -10.06108 -10.05756 -10.05487
  Beta  occ. eigenvalues --  -10.05461  -0.92911  -0.90553  -0.82459  -0.71739
  Beta  occ. eigenvalues --   -0.71365  -0.69805  -0.66085  -0.63801  -0.58619
  Beta  occ. eigenvalues --   -0.58196  -0.57782  -0.52433  -0.51424  -0.48013
  Beta  occ. eigenvalues --   -0.44974  -0.44132  -0.41898  -0.41094  -0.39468
  Beta  occ. eigenvalues --   -0.38491  -0.37070  -0.35638  -0.35056  -0.34065
  Beta  occ. eigenvalues --   -0.33242  -0.32211  -0.31516  -0.29676  -0.29537
  Beta  occ. eigenvalues --   -0.29155  -0.28761  -0.27679  -0.27285  -0.25814
  Beta  occ. eigenvalues --   -0.25411  -0.23941  -0.22815  -0.22347  -0.20782
  Beta  occ. eigenvalues --   -0.20013  -0.19014  -0.17254  -0.16441  -0.15062
  Beta  occ. eigenvalues --   -0.11218
  Beta virt. eigenvalues --    0.06498   0.06989   0.07476   0.08073   0.08111
  Beta virt. eigenvalues --    0.08463   0.08712   0.09308   0.09838   0.10118
  Beta virt. eigenvalues --    0.10622   0.10855   0.11156   0.11387   0.12074

 Mulliken charges and spin densities:
               1          2
     1  C    0.721803  -1.409014
     2  C   -1.970637   2.362487
     3  C    1.027507  -1.679491
     4  C    1.234855  -1.498579
     5  C   -0.660394   0.510081
     6  C   -0.010383  -0.637129
     7  O   -0.015252  -0.003881
     8  C    0.185741  -0.896256
     9  C    0.842550   0.103376
    10  C   -0.639075   0.025054
    11  N   -0.203274   0.095918
    12  C   -0.525262  -0.138964
    13  C    0.151724   0.185560
    14  C   -0.490461   0.293494
    15  N   -0.099714  -0.001264
    16  N   -0.343271  -0.001596
    17  H   -0.093209   0.237888
    18  H   -0.002581   0.123965
    19  H   -0.397601   0.544627
    20  H   -0.032498   0.192672
    21  H   -0.045774   0.172283
    22  H   -0.412502   0.551577
    23  H   -0.441224   0.593893
    24  H    0.187635  -0.129271
    25  H    0.107363   0.061718
    26  H    0.160837   0.029963
    27  H   -0.042416   0.255728
    28  H    0.118579   0.029384
    29  H   -0.135725   0.310287
    30  H    0.002173   0.164934
    31  H    0.082310   0.080362
    32  H   -0.092734   0.252453
    33  H    0.066824   0.082066
    34  H    0.064758   0.098968
    35  H    0.256370  -0.002618
    36  H    0.226359   0.026386
    37  H    0.216598   0.012936
 Sum of Mulliken charges =  -1.00000   1.00000

 Dipole moment (field-independent basis, Debye):
    X=              7.9578    Y=              3.7223    Z=             -0.9966  Tot=              8.8417
 Quadrupole moment (field-independent basis, Debye-Ang):
   XX=           -217.7015   YY=           -131.8366   ZZ=           -127.5319
   XY=            -10.6483   XZ=              6.8520   YZ=              1.0973

 Summary of Natural Population Analysis:

                                       Natural Population
                Natural  -----------------------------------------------
    Atom  No    Charge         Core      Valence    Rydberg      Total
 -----------------------------------------------------------------------
      C    1   -0.28650      0.99965     2.28029    0.00656     3.28650
      C    2   -0.11645      0.99962     2.10753    0.00930     3.11645
      C    3   -0.28144      0.99965     2.27542    0.00638     3.28144
      C    4   -0.20000      0.99959     2.19091    0.00950     3.20000
      C    5    0.07178      0.99954     1.91618    0.01250     2.92822
      C    6   -0.30506      0.99964     2.29966    0.00576     3.30506
      O    7   -0.30674      0.99989     3.29775    0.00910     4.30674
      C    8   -0.01517      0.99952     2.00351    0.01214     3.01517
      C    9   -0.07852      0.99949     2.07044    0.00860     3.07852
      C   10    0.05626      0.99952     1.92981    0.01440     2.94374
      N   11   -0.26009      0.99967     2.74749    0.01294     3.76009
      C   12    0.18555      0.99954     1.80100    0.01391     2.81445
      C   13   -0.12487      0.99952     2.11654    0.00881     3.12487
      C   14   -0.04653      0.99952     2.03756    0.00945     3.04653
      N   15   -0.23206      0.99966     2.71887    0.01352     3.73206
      N   16   -0.32159      0.99978     2.81138    0.01042     3.82159
      H   17    0.09526      0.00000     0.40380    0.00094     0.40474
      H   18    0.09775      0.00000     0.40123    0.00101     0.40225
      H   19    0.10188      0.00000     0.39698    0.00114     0.39812
      H   20    0.09418      0.00000     0.40368    0.00214     0.40582
      H   21    0.09419      0.00000     0.40469    0.00112     0.40581
      H   22    0.09989      0.00000     0.39882    0.00129     0.40011
      H   23    0.10066      0.00000     0.39797    0.00137     0.39934
      H   24    0.09751      0.00000     0.40100    0.00149     0.40249
      H   25    0.09863      0.00000     0.40013    0.00125     0.40137
      H   26    0.08799      0.00000     0.41027    0.00174     0.41201
      H   27    0.10244      0.00000     0.39621    0.00136     0.39756
      H   28    0.10604      0.00000     0.39290    0.00106     0.39396
      H   29    0.10230      0.00000     0.39677    0.00093     0.39770
      H   30    0.08500      0.00000     0.41298    0.00202     0.41500
      H   31    0.09078      0.00000     0.40814    0.00108     0.40922
      H   32    0.08530      0.00000     0.41301    0.00169     0.41470
      H   33    0.09602      0.00000     0.40288    0.00109     0.40398
      H   34    0.10249      0.00000     0.39632    0.00119     0.39751
      H   35    0.17766      0.00000     0.31956    0.00278     0.32234
      H   36    0.17092      0.00000     0.32653    0.00255     0.32908
      H   37    0.17455      0.00000     0.32283    0.00263     0.32545
 =======================================================================
   * Total *    0.00000     15.99380    44.81104    0.19515    61.00000

 Normal termination of Gaussian 16 at Thu Dec 10 21:58:36 2020.
