 Gaussian 16, Revision A.03,

 -----------------------------------------------------------
 # opt freq B3LYP/6-31G(d) empiricaldispersion=gd3bj scf=xqc
 -----------------------------------------------------------

 -------------------------------
 CID_114451924_JID_7895_neutraal
 -------------------------------
 Symbolic Z-matrix:
 Charge =  0 Multiplicity = 1

 SCF Done:  E(RB3LYP) =  -1087.99838640     A.U. after   15 cycles
 SCF Done:  E(RB3LYP) =  -1088.00330427     A.U. after   12 cycles
 SCF Done:  E(RB3LYP) =  -1088.00417181     A.U. after   12 cycles
 SCF Done:  E(RB3LYP) =  -1088.00439353     A.U. after   12 cycles
 SCF Done:  E(RB3LYP) =  -1088.00445168     A.U. after   11 cycles
 SCF Done:  E(RB3LYP) =  -1088.00448517     A.U. after   11 cycles
 SCF Done:  E(RB3LYP) =  -1088.00449489     A.U. after   10 cycles
 SCF Done:  E(RB3LYP) =  -1088.00450202     A.U. after   10 cycles
 SCF Done:  E(RB3LYP) =  -1088.00450377     A.U. after    9 cycles
 Optimization completed.
    -- Stationary point found.
 Normal termination of Gaussian 16 at Fri Dec 11 13:20:38 2020.

 --------------------------------------------------------------------
 #N Geom=AllCheck Guess=TCheck SCRF=Check GenChk RB3LYP/6-31G(d) Freq
 --------------------------------------------------------------------

 Structure from the checkpoint file:  "JID_7895.chk"
 -------------------------------
 CID_114451924_JID_7895_neutraal
 -------------------------------
 Charge =  0 Multiplicity = 1

 SCF Done:  E(RB3LYP) =  -1088.00450377     A.U. after    1 cycles

  Exact polarizability: 224.466  18.313 160.364  20.879 -10.878 109.375
 Approx polarizability: 308.114  31.992 284.347  40.211 -33.975 183.655

                      1                      2                      3
                      A                      A                      A
 Frequencies --     27.1300                33.2709                49.9077
 Red. masses --      5.3896                 4.5759                 5.2708
 Frc consts  --      0.0023                 0.0030                 0.0077
 IR Inten    --      0.4072                 0.4185                 1.3272

                      4                      5                      6
                      A                      A                      A
 Frequencies --    131.3027               139.2175               178.1566
 Red. masses --      4.8026                 5.7297                 3.6410
 Frc consts  --      0.0488                 0.0654                 0.0681
 IR Inten    --      0.1428                 0.9236                 3.6204

                      7                      8                      9
                      A                      A                      A
 Frequencies --    197.3847               241.3904               256.0957
 Red. masses --      5.9413                 4.7385                 1.7720
 Frc consts  --      0.1364                 0.1627                 0.0685
 IR Inten    --      1.4306                 1.1858                56.2055

                     10                     11                     12
                      A                      A                      A
 Frequencies --    268.6178               290.0181               333.3650
 Red. masses --      1.3900                 2.6021                 6.2009
 Frc consts  --      0.0591                 0.1289                 0.4060
 IR Inten    --     32.1520                 4.1544                 0.6664

                     13                     14                     15
                      A                      A                      A
 Frequencies --    388.2095               402.2873               419.3296
 Red. masses --      2.0507                 4.8855                 2.4848
 Frc consts  --      0.1821                 0.4658                 0.2574
 IR Inten    --      4.2355                 0.9054                 3.2971

                     16                     17                     18
                      A                      A                      A
 Frequencies --    437.1617               475.8146               493.7860
 Red. masses --      3.2716                 3.5067                 3.1131
 Frc consts  --      0.3684                 0.4678                 0.4472
 IR Inten    --      3.4758                 7.9163                 9.3110

                     19                     20                     21
                      A                      A                      A
 Frequencies --    508.8071               516.4302               566.2916
 Red. masses --      5.3397                 6.2484                 3.4420
 Frc consts  --      0.8145                 0.9818                 0.6503
 IR Inten    --      2.3816                 2.2681                 7.6576

                     22                     23                     24
                      A                      A                      A
 Frequencies --    574.9463               631.8643               635.4971
 Red. masses --      4.5483                 5.7098                 5.2340
 Frc consts  --      0.8858                 1.3431                 1.2454
 IR Inten    --      1.0727                 3.3542                21.7759

                     25                     26                     27
                      A                      A                      A
 Frequencies --    682.0368               715.3894               720.8705
 Red. masses --      2.5205                 3.5517                 6.6572
 Frc consts  --      0.6908                 1.0710                 2.0383
 IR Inten    --     27.0961                14.8457                 5.0652

                     28                     29                     30
                      A                      A                      A
 Frequencies --    741.9253               772.4019               774.3464
 Red. masses --      2.3950                 2.8893                 1.7427
 Frc consts  --      0.7768                 1.0156                 0.6157
 IR Inten    --     11.8571                32.2663                33.1830

                     31                     32                     33
                      A                      A                      A
 Frequencies --    809.6140               869.9262               871.1480
 Red. masses --      1.7946                 1.5013                 2.3983
 Frc consts  --      0.6931                 0.6694                 1.0724
 IR Inten    --     42.0521                 0.6798                 0.3131

                     34                     35                     36
                      A                      A                      A
 Frequencies --    878.5317               906.5493               925.9589
 Red. masses --      3.3606                 2.4894                 1.9379
 Frc consts  --      1.5282                 1.2054                 0.9790
 IR Inten    --      3.8925                 7.3262                16.8270

                     37                     38                     39
                      A                      A                      A
 Frequencies --    943.5995               953.6574               983.3716
 Red. masses --      1.3566                 1.9823                 1.2571
 Frc consts  --      0.7117                 1.0622                 0.7163
 IR Inten    --      1.7895                 1.2282                 0.0132

                     40                     41                     42
                      A                      A                      A
 Frequencies --    999.1037              1045.9546              1051.2500
 Red. masses --      2.4520                 2.3977                 2.2879
 Frc consts  --      1.4421                 1.5455                 1.4897
 IR Inten    --     14.0958                 7.9042                 2.5598

                     43                     44                     45
                      A                      A                      A
 Frequencies --   1068.6771              1080.3870              1094.2580
 Red. masses --      1.7838                 4.2651                 2.0388
 Frc consts  --      1.2003                 2.9331                 1.4383
 IR Inten    --      2.5016                10.4521                16.9531

                     46                     47                     48
                      A                      A                      A
 Frequencies --   1107.2282              1131.9769              1144.4495
 Red. masses --      2.1932                 1.6898                 2.3165
 Frc consts  --      1.5841                 1.2758                 1.7876
 IR Inten    --     82.3039                22.5089                39.0489

                     49                     50                     51
                      A                      A                      A
 Frequencies --   1155.0709              1165.2236              1194.2389
 Red. masses --      1.4851                 4.2627                 1.1706
 Frc consts  --      1.1674                 3.4100                 0.9837
 IR Inten    --      3.0335                38.9729                 1.0548

                     52                     53                     54
                      A                      A                      A
 Frequencies --   1200.3610              1228.2478              1242.6750
 Red. masses --      1.2429                 1.1670                 1.4342
 Frc consts  --      1.0551                 1.0373                 1.3048
 IR Inten    --      1.4483                31.9454                19.0800

                     55                     56                     57
                      A                      A                      A
 Frequencies --   1278.6854              1283.0983              1305.6797
 Red. masses --      2.1062                 1.4692                 1.2980
 Frc consts  --      2.0290                 1.4251                 1.3037
 IR Inten    --     13.9026                 5.7327                 8.7630

                     58                     59                     60
                      A                      A                      A
 Frequencies --   1316.3336              1322.2161              1352.8872
 Red. masses --      1.8446                 1.3452                 1.4023
 Frc consts  --      1.8832                 1.3857                 1.5122
 IR Inten    --      5.1199                 3.8214                 5.4222

                     61                     62                     63
                      A                      A                      A
 Frequencies --   1366.1487              1375.4424              1377.9355
 Red. masses --      3.9310                 1.7309                 1.3728
 Frc consts  --      4.3227                 1.9293                 1.5357
 IR Inten    --      4.8005                12.6898                31.1423

                     64                     65                     66
                      A                      A                      A
 Frequencies --   1393.2768              1402.4831              1441.7780
 Red. masses --      1.4037                 1.5737                 1.4193
 Frc consts  --      1.6055                 1.8238                 1.7383
 IR Inten    --      6.6283                 2.1188                20.2281

                     67                     68                     69
                      A                      A                      A
 Frequencies --   1456.6851              1483.5924              1499.0304
 Red. masses --      1.2719                 2.4630                 1.2240
 Frc consts  --      1.5901                 3.1941                 1.6205
 IR Inten    --     28.3432                22.7514                 6.6952

                     70                     71                     72
                      A                      A                      A
 Frequencies --   1505.7261              1506.8506              1522.4147
 Red. masses --      1.2987                 2.0232                 1.0948
 Frc consts  --      1.7348                 2.7067                 1.4950
 IR Inten    --      1.1318                 5.3466                13.5517

                     73                     74                     75
                      A                      A                      A
 Frequencies --   1533.5242              1542.8319              1595.5219
 Red. masses --      1.1084                 1.0999                 8.9725
 Frc consts  --      1.5358                 1.5426                13.4576
 IR Inten    --      1.2120                 7.4582                47.2319

                     76                     77                     78
                      A                      A                      A
 Frequencies --   1618.2145              1660.7057              2882.9351
 Red. masses --      5.5778                 6.5244                 1.0742
 Frc consts  --      8.6057                10.6018                 5.2603
 IR Inten    --      2.8342                 5.9723                99.9765

                     79                     80                     81
                      A                      A                      A
 Frequencies --   2912.0455              3055.2084              3064.2345
 Red. masses --      1.0735                 1.0710                 1.0829
 Frc consts  --      5.3634                 5.8900                 5.9909
 IR Inten    --    128.4835                15.2898                16.0932

                     82                     83                     84
                      A                      A                      A
 Frequencies --   3069.3098              3079.8373              3091.8194
 Red. masses --      1.0617                 1.0866                 1.0858
 Frc consts  --      5.8931                 6.0725                 6.1157
 IR Inten    --      9.4538                46.1832                44.1245

                     85                     86                     87
                      A                      A                      A
 Frequencies --   3108.8142              3115.7360              3143.0218
 Red. masses --      1.0867                 1.1048                 1.0940
 Frc consts  --      6.1879                 6.3189                 6.3677
 IR Inten    --     32.8763                22.8712                 3.5517

                     88                     89                     90
                      A                      A                      A
 Frequencies --   3191.2385              3203.5102              3214.1796
 Red. masses --      1.0858                 1.0897                 1.0945
 Frc consts  --      6.5148                 6.5889                 6.6618
 IR Inten    --      1.4708                10.5526                22.0782

                     91                     92                     93
                      A                      A                      A
 Frequencies --   3221.9606              3512.1500              3744.2383
 Red. masses --      1.0958                 1.0749                 1.0654
 Frc consts  --      6.7023                 7.8118                 8.8004
 IR Inten    --     13.8389                 0.6202                 7.4315

 - Thermochemistry -
 -------------------
 Temperature   298.150 Kelvin.  Pressure   1.00000 Atm.
 Atom     1 has atomic number  6 and mass  12.00000

 Molecular mass:   248.09834 amu.
 Principal axes and moments of inertia in atomic units:
                           1         2         3
     Eigenvalues --  1825.714137879.050948355.46063
           X            0.99999   0.00242   0.00472
           Y           -0.00244   0.99999   0.00354
           Z           -0.00471  -0.00355   0.99998
 This molecule is an asymmetric top.
 Rotational symmetry number  1.
 Warning -- assumption of classical behavior for rotation
           may cause significant error
 Rotational temperatures (Kelvin)      0.04744     0.01099     0.01037
 Rotational constants (GHZ):           0.98851     0.22906     0.21600
 Zero-point vibrational energy     726169.2 (Joules/Mol)
                                  173.55861 (Kcal/Mol)
 Warning -- explicit consideration of  22 degrees of freedom as
           vibrations may cause significant error
 Vibrational temperatures:     39.03    47.87    71.81   188.92   200.30
          (Kelvin)            256.33   283.99   347.31   368.46   386.48
                              417.27   479.64   558.55   578.80   603.32
                              628.98   684.59   710.45   732.06   743.03
                              814.77   827.22   909.11   914.34   981.30
                             1029.29  1037.17  1067.47  1111.31  1114.11
                             1164.85  1251.63  1253.39  1264.01  1304.32
                             1332.25  1357.63  1372.10  1414.85  1437.49
                             1504.90  1512.51  1537.59  1554.44  1574.39
                             1593.05  1628.66  1646.61  1661.89  1676.50
                             1718.24  1727.05  1767.17  1787.93  1839.74
                             1846.09  1878.58  1893.91  1902.37  1946.50
                             1965.58  1978.95  1982.54  2004.61  2017.86
                             2074.40  2095.84  2134.56  2156.77  2166.40
                             2168.02  2190.42  2206.40  2219.79  2295.60
                             2328.25  2389.39  4147.90  4189.78  4395.76
                             4408.75  4416.05  4431.20  4448.44  4472.89
                             4482.85  4522.11  4591.48  4609.14  4624.49
                             4635.68  5053.20  5387.12

 Zero-point correction=                           0.276583 (Hartree/Particle)
 Thermal correction to Energy=                    0.291082
 Thermal correction to Enthalpy=                  0.292026
 Thermal correction to Gibbs Free Energy=         0.233884
 Sum of electronic and zero-point Energies=          -1087.727921
 Sum of electronic and thermal Energies=             -1087.713422
 Sum of electronic and thermal Enthalpies=           -1087.712478
 Sum of electronic and thermal Free Energies=        -1087.770620

                     E (Thermal)             CV                S
                      KCal/Mol        Cal/Mol-Kelvin    Cal/Mol-Kelvin
 Total                  182.656             58.178            122.370
 Electronic               0.000              0.000              0.000
 Translational            0.889              2.981             42.427
 Rotational               0.889              2.981             33.152
 Vibrational            180.879             52.216             46.791
 Vibration     1          0.593              1.984              6.029
 Vibration     2          0.594              1.983              5.624
 Vibration     3          0.595              1.978              4.821
 Vibration     4          0.612              1.922              2.927
 Vibration     5          0.615              1.914              2.815
 Vibration     6          0.629              1.869              2.348
 Vibration     7          0.637              1.844              2.157
 Vibration     8          0.658              1.777              1.793
 Vibration     9          0.666              1.752              1.688
 Vibration    10          0.673              1.731              1.605
 Vibration    11          0.686              1.692              1.474
 Vibration    12          0.715              1.609              1.244
 Vibration    13          0.756              1.495              1.007
 Vibration    14          0.768              1.465              0.954
 Vibration    15          0.782              1.428              0.894
 Vibration    16          0.797              1.389              0.836
 Vibration    17          0.832              1.304              0.721
 Vibration    18          0.849              1.264              0.674
 Vibration    19          0.864              1.230              0.636
 Vibration    20          0.871              1.214              0.618
 Vibration    21          0.922              1.104              0.511
 Vibration    22          0.931              1.085              0.495

 Optimization completed.
    -- Stationary point found.
 Normal termination of Gaussian 16 at Fri Dec 11 13:32:05 2020.

 ----------------------------------------------------------------------
 # B3LYP/6-311++G(d,p) empiricaldispersion=gd3bj scf=xqc pop=npa geom=c
 heck
 ----------------------------------------------------------------------

 ---------------------------------------
 CID_114451924_JID_7895_Energie_neutraal
 ---------------------------------------
 Structure from the checkpoint file:  "JID_7895.chk"
 Charge =  0 Multiplicity = 1

 SCF Done:  E(RB3LYP) =  -1088.22459294     A.U. after   16 cycles
 Normal termination of Gaussian 16 at Fri Dec 11 13:37:26 2020.

 ----------------------------------------------------------------------
 # B3LYP/6-311++G(d,p) empiricaldispersion=gd3bj scf=xqc pop=npa geom=c
 heck
 ----------------------------------------------------------------------

 -------------------------------------
 CID_114451924_JID_7895_Energie_kation
 -------------------------------------
 Structure from the checkpoint file:  "JID_7895.chk"
 Charge =  1 Multiplicity = 2

 SCF Done:  E(UB3LYP) =  -1087.92776941     A.U. after   33 cycles
 SCF Done:  E(UB3LYP) =  -1087.92918909     a.u. after   12 cycles
 Normal termination of Gaussian 16 at Fri Dec 11 16:22:21 2020.
 Gaussian 16:  ES64L-G16RevA.03 25-Dec-2016

 ----------------------------------------------------------------------
 # B3LYP/6-311++G(d,p) empiricaldispersion=gd3bj scf=xqc pop=npa geom=c
 heck
 ----------------------------------------------------------------------

 ------------------------------------
 CID_114451924_JID_7895_Energie_anion
 ------------------------------------
 Structure from the checkpoint file:  "JID_7895.chk"
 Charge = -1 Multiplicity = 2

                         Standard orientation:
 ---------------------------------------------------------------------
 Center     Atomic      Atomic             Coordinates (Angstroms)
 Number     Number       Type             X           Y           Z
 ---------------------------------------------------------------------
      1          6           0       -2.415219    1.599389    0.360260
      2          6           0       -3.842312    1.413215   -0.166247
      3          7           0       -3.890250    0.258612   -1.063048
      4          6           0       -3.528131   -0.980630   -0.377443
      5          6           0       -2.069044   -0.900770    0.100035
      6          6           0       -1.899088    0.320098    1.032506
      7          8           0       -2.534441    0.083494    2.291435
      8          6           0       -1.126742   -0.864459   -1.128140
      9          6           0        0.295963   -0.564662   -0.783070
     10          7           0        0.866755    0.582035   -0.970519
     11          6           0        2.170161    0.589352   -0.491608
     12          6           0        3.044545    1.681649   -0.550574
     13          6           0        4.325854    1.548202   -0.029232
     14          6           0        4.746246    0.338892    0.549075
     15          6           0        3.892626   -0.759144    0.617305
     16          6           0        2.605182   -0.624155    0.096040
     17         16           0        1.304641   -1.796853    0.024240
     18          1           0       -2.383183    2.419734    1.085554
     19          1           0       -1.750944    1.859581   -0.470800
     20          1           0       -4.160583    2.302960   -0.719296
     21          1           0       -4.541840    1.307441    0.691054
     22          1           0       -4.815902    0.171436   -1.474414
     23          1           0       -3.653678   -1.817975   -1.073188
     24          1           0       -4.178808   -1.191030    0.495860
     25          1           0       -1.844036   -1.791740    0.698411
     26          1           0       -0.842869    0.443312    1.284467
     27          1           0       -3.492948    0.079655    2.146135
     28          1           0       -1.189898   -1.832080   -1.641341
     29          1           0       -1.469437   -0.098528   -1.826816
     30          1           0        2.704514    2.608644   -1.000520
     31          1           0        5.012209    2.388791   -0.068602
     32          1           0        5.752095    0.256717    0.950314
     33          1           0        4.220796   -1.691621    1.065373
 ---------------------------------------------------------------------

 SCF Done:  E(UB3LYP) =  -1088.21924102     A.U. after   33 cycles
 SCF Done:  E(UB3LYP) =  -1088.21924102     a.u. after    1 cycles

 The electronic state is 2-A.
 Alpha  occ. eigenvalues --  -88.75642 -19.01937 -14.19561 -14.18867 -10.11260
 Alpha  occ. eigenvalues --  -10.10804 -10.09510 -10.09369 -10.09006 -10.08887
 Alpha  occ. eigenvalues --  -10.07190 -10.07019 -10.06982 -10.06565 -10.06379
 Alpha  occ. eigenvalues --  -10.06187 -10.06115  -7.84308  -5.80597  -5.80264
 Alpha  occ. eigenvalues --   -5.79867  -0.92206  -0.84466  -0.81107  -0.74196
 Alpha  occ. eigenvalues --   -0.69735  -0.68212  -0.66102  -0.63643  -0.62277
 Alpha  occ. eigenvalues --   -0.58252  -0.54326  -0.51921  -0.49682  -0.48709
 Alpha  occ. eigenvalues --   -0.45580  -0.43834  -0.42035  -0.38654  -0.37899
 Alpha  occ. eigenvalues --   -0.37819  -0.36512  -0.35870  -0.34670  -0.33513
 Alpha  occ. eigenvalues --   -0.32792  -0.32314  -0.30723  -0.29817  -0.28899
 Alpha  occ. eigenvalues --   -0.28345  -0.27688  -0.26549  -0.25258  -0.25136
 Alpha  occ. eigenvalues --   -0.24911  -0.23219  -0.22726  -0.22666  -0.20530
 Alpha  occ. eigenvalues --   -0.19130  -0.17007  -0.15848  -0.13094  -0.12823
 Alpha  occ. eigenvalues --   -0.12647   0.04278
 Alpha virt. eigenvalues --    0.05706   0.07139   0.07802   0.08353   0.08762
 Alpha virt. eigenvalues --    0.08892   0.09120   0.09814   0.10898   0.11170
 Alpha virt. eigenvalues --    0.11554   0.11587   0.12053   0.12633   0.13008

  Beta  occ. eigenvalues --  -88.75628 -19.01927 -14.19532 -14.18848 -10.11258
  Beta  occ. eigenvalues --  -10.10435 -10.09510 -10.09345 -10.08976 -10.08813
  Beta  occ. eigenvalues --  -10.07135 -10.07028 -10.06982 -10.06588 -10.06237
  Beta  occ. eigenvalues --  -10.06114 -10.06072  -7.84295  -5.80594  -5.80264
  Beta  occ. eigenvalues --   -5.79812  -0.92183  -0.84204  -0.81058  -0.74016
  Beta  occ. eigenvalues --   -0.69606  -0.68106  -0.66066  -0.63392  -0.62089
  Beta  occ. eigenvalues --   -0.58164  -0.54264  -0.51812  -0.49465  -0.48625
  Beta  occ. eigenvalues --   -0.45388  -0.43723  -0.41960  -0.38588  -0.37775
  Beta  occ. eigenvalues --   -0.37695  -0.36399  -0.35761  -0.34533  -0.33442
  Beta  occ. eigenvalues --   -0.32712  -0.32261  -0.30258  -0.29769  -0.28794
  Beta  occ. eigenvalues --   -0.28184  -0.27625  -0.26484  -0.25124  -0.24989
  Beta  occ. eigenvalues --   -0.24850  -0.23166  -0.22656  -0.22168  -0.20464
  Beta  occ. eigenvalues --   -0.18735  -0.16969  -0.15781  -0.12809  -0.12416
  Beta  occ. eigenvalues --   -0.11884
  Beta virt. eigenvalues --    0.06741   0.07114   0.08079   0.08399   0.08758
  Beta virt. eigenvalues --    0.08871   0.09208   0.09371   0.09983   0.11065
  Beta virt. eigenvalues --    0.11368   0.11580   0.11865   0.12190   0.12997

 Mulliken charges and spin densities:
               1          2
     1  C   -1.092260   0.587283
     2  C    0.790636  -1.069415
     3  N   -0.378869   0.221519
     4  C    0.933870  -1.506155
     5  C   -0.597267   1.102720
     6  C    0.393910  -0.742717
     7  O   -0.201393   0.025746
     8  C   -0.455704  -0.168167
     9  C    0.344140  -0.031330
    10  N    0.185548   0.003156
    11  C   -1.747420   0.025160
    12  C   -0.633037   0.095877
    13  C   -0.424825  -0.027877
    14  C   -0.070617   0.118759
    15  C    0.129283   0.019879
    16  C    1.817404  -0.015054
    17  S   -0.474650   0.022354
    18  H    0.140084   0.027022
    19  H    0.198092  -0.020624
    20  H   -0.230326   0.407147
    21  H   -0.244711   0.335765
    22  H   -0.195171   0.467646
    23  H   -0.451455   0.643873
    24  H   -0.213252   0.313844
    25  H    0.208706   0.005155
    26  H    0.317108  -0.040389
    27  H    0.188726   0.042542
    28  H   -0.036631   0.210656
    29  H    0.261352  -0.040703
    30  H    0.147924  -0.004191
    31  H    0.128842   0.002590
    32  H    0.126301  -0.008440
    33  H    0.135662  -0.003630
 Sum of Mulliken charges =  -1.00000   1.00000

 Dipole moment (field-independent basis, Debye):
    X=              5.4780    Y=              0.3360    Z=              1.7997  Tot=              5.7759
 Quadrupole moment (field-independent basis, Debye-Ang):
   XX=           -188.9483   YY=           -131.5038   ZZ=           -139.8699
   XY=             -2.0978   XZ=             -6.2114   YZ=             -2.3441

 Summary of Natural Population Analysis:

                                       Natural Population
                Natural  -----------------------------------------------
    Atom  No    Charge         Core      Valence    Rydberg      Total
 -----------------------------------------------------------------------
      C    1   -0.21021      0.99960     2.20193    0.00868     3.21021
      C    2   -0.08995      0.99962     2.07710    0.01323     3.08995
      N    3   -0.34287      0.99974     2.83006    0.01307     3.84287
      C    4   -0.08802      0.99960     2.07452    0.01391     3.08802
      C    5   -0.11470      0.99957     2.10268    0.01245     3.11470
      C    6    0.06260      0.99952     1.92303    0.01485     2.93740
      O    7   -0.37308      0.99990     3.36697    0.00621     4.37308
      C    8   -0.22506      0.99955     2.21404    0.01147     3.22506
      C    9    0.12802      0.99959     1.85376    0.01863     2.87198
      N   10   -0.25195      0.99962     2.74191    0.01041     3.75195
      C   11    0.06836      0.99943     1.92007    0.01214     2.93164
      C   12   -0.07915      0.99952     2.07105    0.00858     3.07915
      C   13   -0.12118      0.99958     2.11245    0.00915     3.12118
      C   14   -0.08613      0.99958     2.07713    0.00941     3.08613
      C   15   -0.10553      0.99951     2.09635    0.00968     3.10553
      C   16   -0.10347      0.99940     2.09344    0.01063     3.10347
      S   17    0.15770      4.99943     2.82515    0.01772     7.84230
      H   18    0.10049      0.00000     0.39858    0.00093     0.39951
      H   19    0.11101      0.00000     0.38758    0.00141     0.38899
      H   20    0.09816      0.00000     0.40077    0.00108     0.40184
      H   21    0.06993      0.00000     0.42813    0.00195     0.43007
      H   22    0.17936      0.00000     0.31495    0.00569     0.32064
      H   23    0.10084      0.00000     0.39735    0.00180     0.39916
      H   24    0.07572      0.00000     0.42254    0.00174     0.42428
      H   25    0.10425      0.00000     0.39470    0.00106     0.39575
      H   26    0.09659      0.00000     0.40167    0.00174     0.40341
      H   27    0.22489      0.00000     0.27197    0.00314     0.27511
      H   28    0.10883      0.00000     0.39006    0.00112     0.39117
      H   29    0.12075      0.00000     0.37723    0.00203     0.37925
      H   30    0.10034      0.00000     0.39830    0.00136     0.39966
      H   31    0.09418      0.00000     0.40483    0.00099     0.40582
      H   32    0.09229      0.00000     0.40675    0.00096     0.40771
      H   33    0.09700      0.00000     0.40158    0.00141     0.40300
 =======================================================================
   * Total *    0.00000     20.99277    44.77861    0.22862    66.00000

 Normal termination of Gaussian 16 at Fri Dec 11 16:37:22 2020.
