 Gaussian 16, Revision A.03,

 -----------------------------------------------------------
 # opt freq B3LYP/6-31G(d) empiricaldispersion=gd3bj scf=xqc
 -----------------------------------------------------------

 ------------------------------
 CID_66037208_JID_1276_neutraal
 ------------------------------
 Symbolic Z-matrix:
 Charge =  0 Multiplicity = 1

 SCF Done:  E(RB3LYP) =  -519.106481128     A.U. after   14 cycles
 SCF Done:  E(RB3LYP) =  -519.110961932     A.U. after   12 cycles
 SCF Done:  E(RB3LYP) =  -519.107600812     A.U. after   13 cycles
 SCF Done:  E(RB3LYP) =  -519.111669989     A.U. after   12 cycles
 SCF Done:  E(RB3LYP) =  -519.111956229     A.U. after   11 cycles
 SCF Done:  E(RB3LYP) =  -519.112006279     A.U. after   11 cycles
 SCF Done:  E(RB3LYP) =  -519.112033575     A.U. after   12 cycles
 SCF Done:  E(RB3LYP) =  -519.112044159     A.U. after   10 cycles
 SCF Done:  E(RB3LYP) =  -519.112045078     A.U. after    8 cycles
 SCF Done:  E(RB3LYP) =  -519.112045183     A.U. after    7 cycles
 Optimization completed.
    -- Stationary point found.
 Normal termination of Gaussian 16 at Tue Dec  8 19:36:22 2020.

 --------------------------------------------------------------------
 #N Geom=AllCheck Guess=TCheck SCRF=Check GenChk RB3LYP/6-31G(d) Freq
 --------------------------------------------------------------------

 Structure from the checkpoint file:  "JID_1276.chk"
 ------------------------------
 CID_66037208_JID_1276_neutraal
 ------------------------------
 Charge =  0 Multiplicity = 1

 SCF Done:  E(RB3LYP) =  -519.112045183     A.U. after    1 cycles

  Exact polarizability: 107.434  -1.753  92.312   0.451   0.533  82.878
 Approx polarizability: 136.213 -10.927 134.025   2.273  -1.530 128.314

                      1                      2                      3
                      A                      A                      A
 Frequencies --     70.7683               101.0861               126.1769
 Red. masses --      3.5296                 4.2746                 3.5832
 Frc consts  --      0.0104                 0.0257                 0.0336
 IR Inten    --      1.3374                 0.1973                 3.1693

                      4                      5                      6
                      A                      A                      A
 Frequencies --    187.9501               240.8192               247.5278
 Red. masses --      2.9972                 1.4527                 1.6538
 Frc consts  --      0.0624                 0.0496                 0.0597
 IR Inten    --      0.5824                 0.3606                 3.6653

                      7                      8                      9
                      A                      A                      A
 Frequencies --    258.2485               299.7697               325.8012
 Red. masses --      2.4751                 2.7051                 2.8110
 Frc consts  --      0.0973                 0.1432                 0.1758
 IR Inten    --      3.4199                 0.3503                11.9226

                     10                     11                     12
                      A                      A                      A
 Frequencies --    348.7149               376.7113               407.9106
 Red. masses --      2.7406                 3.0879                 3.1400
 Frc consts  --      0.1964                 0.2582                 0.3078
 IR Inten    --      8.4366                 4.3523                 3.6302

                     13                     14                     15
                      A                      A                      A
 Frequencies --    455.7730               470.6775               531.8794
 Red. masses --      3.1222                 2.7111                 1.2888
 Frc consts  --      0.3821                 0.3539                 0.2148
 IR Inten    --      3.7199                23.1447                43.6777

                     16                     17                     18
                      A                      A                      A
 Frequencies --    544.9065               568.6921               688.0298
 Red. masses --      2.5266                 1.8087                 2.9093
 Frc consts  --      0.4420                 0.3446                 0.8114
 IR Inten    --     27.1966                 7.4625                 5.5732

                     19                     20                     21
                      A                      A                      A
 Frequencies --    817.6876               825.6079               850.4735
 Red. masses --      3.0999                 1.7392                 2.4121
 Frc consts  --      1.2211                 0.6985                 1.0279
 IR Inten    --      6.2707                53.8420                14.8919

                     22                     23                     24
                      A                      A                      A
 Frequencies --    865.1671               892.0458               917.1835
 Red. masses --      1.8400                 1.8937                 1.7593
 Frc consts  --      0.8115                 0.8878                 0.8720
 IR Inten    --      6.0346                27.3302                12.6379

                     25                     26                     27
                      A                      A                      A
 Frequencies --    939.2381               955.8663               970.6732
 Red. masses --      2.3780                 1.5178                 1.8229
 Frc consts  --      1.2360                 0.8170                 1.0120
 IR Inten    --      3.7470                 5.5284                 8.8103

                     28                     29                     30
                      A                      A                      A
 Frequencies --   1000.5964              1064.5808              1075.9534
 Red. masses --      1.7203                 1.9946                 1.8600
 Frc consts  --      1.0148                 1.3318                 1.2687
 IR Inten    --      4.3040                 6.2412                 2.1563

                     31                     32                     33
                      A                      A                      A
 Frequencies --   1086.6006              1146.7914              1152.4495
 Red. masses --      1.6641                 2.0915                 2.4095
 Frc consts  --      1.1577                 1.6206                 1.8855
 IR Inten    --     13.6597                17.4330                14.4868

                     34                     35                     36
                      A                      A                      A
 Frequencies --   1158.2577              1184.9702              1204.5606
 Red. masses --      2.7634                 1.3954                 2.3872
 Frc consts  --      2.1843                 1.1544                 2.0408
 IR Inten    --     33.2619                 4.7291                30.1084

                     37                     38                     39
                      A                      A                      A
 Frequencies --   1211.6763              1254.2941              1300.8431
 Red. masses --      2.1530                 1.6432                 1.2809
 Frc consts  --      1.8624                 1.5231                 1.2770
 IR Inten    --     22.0101                 5.1298                 3.7993

                     40                     41                     42
                      A                      A                      A
 Frequencies --   1312.8193              1352.2494              1374.1010
 Red. masses --      1.2130                 1.3234                 1.3591
 Frc consts  --      1.2318                 1.4258                 1.5119
 IR Inten    --      0.4938                14.2041                18.8188

                     43                     44                     45
                      A                      A                      A
 Frequencies --   1383.3264              1390.7134              1402.4115
 Red. masses --      1.3382                 1.4278                 1.3515
 Frc consts  --      1.5087                 1.6271                 1.5661
 IR Inten    --     27.1032                32.2562                25.0083

                     46                     47                     48
                      A                      A                      A
 Frequencies --   1403.6860              1427.3542              1438.0465
 Red. masses --      1.3596                 1.2430                 1.5042
 Frc consts  --      1.5783                 1.4921                 1.8327
 IR Inten    --     10.0744                 5.8064                 9.1538

                     49                     50                     51
                      A                      A                      A
 Frequencies --   1450.0100              1500.8128              1512.9618
 Red. masses --      1.3779                 1.1524                 1.0875
 Frc consts  --      1.7069                 1.5294                 1.4667
 IR Inten    --     40.4056                13.6662                 8.3586

                     52                     53                     54
                      A                      A                      A
 Frequencies --   1513.6613              1521.4324              1522.2837
 Red. masses --      1.2543                 1.0729                 1.0849
 Frc consts  --      1.6933                 1.4632                 1.4813
 IR Inten    --      8.2027                 6.9034                 0.9949

                     55                     56                     57
                      A                      A                      A
 Frequencies --   1525.7354              1534.6920              1808.1169
 Red. masses --      1.0811                 1.1005                10.1295
 Frc consts  --      1.4828                 1.5272                19.5115
 IR Inten    --      3.8684                 1.4417               150.7448

                     58                     59                     60
                      A                      A                      A
 Frequencies --   2921.0964              2930.3716              3003.4499
 Red. masses --      1.0810                 1.0736                 1.0871
 Frc consts  --      5.4345                 5.4318                 5.7780
 IR Inten    --     30.4810               103.2370                50.9244

                     61                     62                     63
                      A                      A                      A
 Frequencies --   3029.1349              3047.2307              3051.4581
 Red. masses --      1.0668                 1.0614                 1.0608
 Frc consts  --      5.7673                 5.8068                 5.8199
 IR Inten    --     27.4332                20.3118                21.3322

                     64                     65                     66
                      A                      A                      A
 Frequencies --   3060.3248              3081.8670              3085.3569
 Red. masses --      1.0363                 1.0937                 1.0883
 Frc consts  --      5.7185                 6.1205                 6.1040
 IR Inten    --     15.9681                58.5957                50.1782

                     67                     68                     69
                      A                      A                      A
 Frequencies --   3093.1466              3101.6456              3133.9780
 Red. masses --      1.1045                 1.1030                 1.1025
 Frc consts  --      6.2261                 6.2520                 6.3801
 IR Inten    --     40.3570                53.1645                18.5215

                     70                     71                     72
                      A                      A                      A
 Frequencies --   3139.0342              3504.8990              3596.0512
 Red. masses --      1.1035                 1.0736                 1.0646
 Frc consts  --      6.4065                 7.7705                 8.1111
 IR Inten    --     18.7139                 5.0695                72.0629

 - Thermochemistry -
 -------------------
 Temperature   298.150 Kelvin.  Pressure   1.00000 Atm.
 Atom     1 has atomic number  6 and mass  12.00000

 Molecular mass:   157.11028 amu.
 Principal axes and moments of inertia in atomic units:
                           1         2         3
     Eigenvalues --   952.551632387.695452680.74736
           X            0.99969   0.02405  -0.00572
           Y           -0.02380   0.99888   0.04082
           Z            0.00669  -0.04067   0.99915
 This molecule is an asymmetric top.
 Rotational symmetry number  1.
 Warning -- assumption of classical behavior for rotation
           may cause significant error
 Rotational temperatures (Kelvin)      0.09093     0.03628     0.03231
 Rotational constants (GHZ):           1.89464     0.75585     0.67322
 Zero-point vibrational energy     605791.4 (Joules/Mol)
                                  144.78763 (Kcal/Mol)
 Warning -- explicit consideration of  17 degrees of freedom as
           vibrations may cause significant error
 Vibrational temperatures:    101.82   145.44   181.54   270.42   346.49
          (Kelvin)            356.14   371.56   431.30   468.76   501.72
                              542.00   586.89   655.76   677.20   765.26
                              784.00   818.22   989.92  1176.47  1187.87
                             1223.64  1244.78  1283.45  1319.62  1351.35
                             1375.28  1396.58  1439.64  1531.69  1548.06
                             1563.38  1649.98  1658.12  1666.47  1704.91
                             1733.09  1743.33  1804.65  1871.62  1888.85
                             1945.59  1977.02  1990.30  2000.93  2017.76
                             2019.59  2053.64  2069.03  2086.24  2159.33
                             2176.81  2177.82  2189.00  2190.23  2195.19
                             2208.08  2601.48  4202.81  4216.15  4321.29
                             4358.25  4384.29  4390.37  4403.12  4434.12
                             4439.14  4450.35  4462.58  4509.10  4516.37
                             5042.77  5173.92

 Zero-point correction=                           0.230734 (Hartree/Particle)
 Thermal correction to Energy=                    0.241698
 Thermal correction to Enthalpy=                  0.242642
 Thermal correction to Gibbs Free Energy=         0.194725
 Sum of electronic and zero-point Energies=           -518.881311
 Sum of electronic and thermal Energies=              -518.870348
 Sum of electronic and thermal Enthalpies=            -518.869403
 Sum of electronic and thermal Free Energies=         -518.917320

                     E (Thermal)             CV                S
                      KCal/Mol        Cal/Mol-Kelvin    Cal/Mol-Kelvin
 Total                  151.668             42.913            100.850
 Electronic               0.000              0.000              0.000
 Translational            0.889              2.981             41.065
 Rotational               0.889              2.981             30.190
 Vibrational            149.890             36.952             29.595
 Vibration     1          0.598              1.968              4.132
 Vibration     2          0.604              1.948              3.433
 Vibration     3          0.611              1.927              3.004
 Vibration     4          0.633              1.856              2.248
 Vibration     5          0.658              1.778              1.797
 Vibration     6          0.661              1.767              1.748
 Vibration     7          0.667              1.749              1.674
 Vibration     8          0.692              1.674              1.418
 Vibration     9          0.710              1.624              1.281
 Vibration    10          0.726              1.578              1.172
 Vibration    11          0.747              1.520              1.052
 Vibration    12          0.772              1.453              0.934
 Vibration    13          0.814              1.348              0.779
 Vibration    14          0.828              1.315              0.736
 Vibration    15          0.887              1.179              0.583
 Vibration    16          0.900              1.151              0.555
 Vibration    17          0.925              1.099              0.507

 Optimization completed.
    -- Stationary point found.
 Normal termination of Gaussian 16 at Tue Dec  8 19:42:26 2020.

 ----------------------------------------------------------------------
 # B3LYP/6-311++G(d,p) empiricaldispersion=gd3bj scf=xqc pop=npa geom=c
 heck
 ----------------------------------------------------------------------

 --------------------------------------
 CID_66037208_JID_1276_Energie_neutraal
 --------------------------------------
 Structure from the checkpoint file:  "JID_1276.chk"
 Charge =  0 Multiplicity = 1

 SCF Done:  E(RB3LYP) =  -519.273090254     A.U. after   13 cycles
 Normal termination of Gaussian 16 at Tue Dec  8 19:44:54 2020.

 ----------------------------------------------------------------------
 # B3LYP/6-311++G(d,p) empiricaldispersion=gd3bj scf=xqc pop=npa geom=c
 heck
 ----------------------------------------------------------------------

 ------------------------------------
 CID_66037208_JID_1276_Energie_kation
 ------------------------------------
 Structure from the checkpoint file:  "JID_1276.chk"
 Charge =  1 Multiplicity = 2

 SCF Done:  E(UB3LYP) =  -518.955412353     A.U. after   22 cycles
 Normal termination of Gaussian 16 at Tue Dec  8 19:51:06 2020.
 Gaussian 16:  ES64L-G16RevA.03 25-Dec-2016

 ----------------------------------------------------------------------
 # B3LYP/6-311++G(d,p) empiricaldispersion=gd3bj scf=xqc pop=npa geom=c
 heck
 ----------------------------------------------------------------------

 -----------------------------------
 CID_66037208_JID_1276_Energie_anion
 -----------------------------------
 Structure from the checkpoint file:  "JID_1276.chk"
 Charge = -1 Multiplicity = 2

                         Standard orientation:
 ---------------------------------------------------------------------
 Center     Atomic      Atomic             Coordinates (Angstroms)
 Number     Number       Type             X           Y           Z
 ---------------------------------------------------------------------
      1          6           0        1.950772    1.711171   -0.300294
      2          6           0        1.336709    0.303058   -0.265300
      3          6           0        1.680997   -0.355097    1.068793
      4          8           0        2.497909   -1.251863    1.136311
      5          6           0       -0.191656    0.296779   -0.465535
      6          6           0       -0.979039    1.251756    0.441648
      7          6           0       -2.488358    1.075382    0.219577
      8          6           0       -2.898713   -0.391653    0.394250
      9          6           0       -2.052341   -1.286268   -0.512315
     10          7           0       -0.634339   -1.077392   -0.223296
     11          8           0        1.898841   -0.494739   -1.298875
     12          1           0        1.627864    2.328205    0.544543
     13          1           0        1.661401    2.212048   -1.229485
     14          1           0        3.041743    1.632022   -0.279158
     15          1           0        1.199754    0.053206    1.975289
     16          1           0       -0.366610    0.609831   -1.514172
     17          1           0       -0.687363    2.287663    0.238468
     18          1           0       -0.746067    1.042144    1.493149
     19          1           0       -3.048873    1.720793    0.906062
     20          1           0       -2.740622    1.401624   -0.799737
     21          1           0       -2.742530   -0.697503    1.436633
     22          1           0       -3.962593   -0.525592    0.165317
     23          1           0       -2.286915   -2.342681   -0.341635
     24          1           0       -2.298401   -1.060046   -1.568624
     25          1           0       -0.062289   -1.687054   -0.804457
     26          1           0        2.527648   -1.090862   -0.843557
 ---------------------------------------------------------------------

 SCF Done:  E(UB3LYP) =  -519.261337708     A.U. after   33 cycles
 SCF Done:  E(UB3LYP) =  -519.261337708     a.u. after    1 cycles

 The electronic state is 2-A.
 Alpha  occ. eigenvalues --  -19.00827 -18.99433 -14.18812 -10.11911 -10.11689
 Alpha  occ. eigenvalues --  -10.08928 -10.08599 -10.05890 -10.05844 -10.05718
 Alpha  occ. eigenvalues --  -10.05138  -0.94107  -0.90232  -0.80738  -0.68187
 Alpha  occ. eigenvalues --   -0.67780  -0.62389  -0.54781  -0.52757  -0.51037
 Alpha  occ. eigenvalues --   -0.46567  -0.43399  -0.40557  -0.39796  -0.35654
 Alpha  occ. eigenvalues --   -0.35445  -0.33717  -0.32292  -0.31327  -0.30663
 Alpha  occ. eigenvalues --   -0.30153  -0.28895  -0.27917  -0.26138  -0.25514
 Alpha  occ. eigenvalues --   -0.24549  -0.23928  -0.22587  -0.21581  -0.20768
 Alpha  occ. eigenvalues --   -0.17118  -0.14196  -0.12253   0.04909
 Alpha virt. eigenvalues --    0.06786   0.07856   0.08466   0.08867   0.10008
 Alpha virt. eigenvalues --    0.10447   0.10713   0.11172   0.12095   0.12334
 Alpha virt. eigenvalues --    0.13465   0.13883   0.14192   0.14871   0.15621

  Beta  occ. eigenvalues --  -19.00826 -18.99180 -14.18818 -10.11709 -10.11628
  Beta  occ. eigenvalues --  -10.08910 -10.08586 -10.05870 -10.05827 -10.05705
  Beta  occ. eigenvalues --  -10.05064  -0.93822  -0.90020  -0.80728  -0.68145
  Beta  occ. eigenvalues --   -0.67703  -0.62304  -0.54589  -0.52705  -0.50698
  Beta  occ. eigenvalues --   -0.46490  -0.43300  -0.40396  -0.39702  -0.35542
  Beta  occ. eigenvalues --   -0.35352  -0.33552  -0.32177  -0.31233  -0.30559
  Beta  occ. eigenvalues --   -0.30081  -0.28675  -0.27775  -0.25975  -0.24832
  Beta  occ. eigenvalues --   -0.24289  -0.23720  -0.22550  -0.21491  -0.20734
  Beta  occ. eigenvalues --   -0.17064  -0.14024  -0.12241
  Beta virt. eigenvalues --    0.07354   0.08392   0.08741   0.09204   0.09997
  Beta virt. eigenvalues --    0.10592   0.10935   0.11208   0.11521   0.12343
  Beta virt. eigenvalues --    0.12806   0.13827   0.14195   0.14435   0.15060

 Mulliken charges and spin densities:
               1          2
     1  C    1.328402  -1.806618
     2  C   -1.428309   1.220596
     3  C    0.162067  -0.117430
     4  O   -0.297727   0.071784
     5  C    0.440505  -0.793826
     6  C   -0.732974   0.581542
     7  C    0.708148  -0.978350
     8  C    0.076540  -0.481884
     9  C    0.313222  -0.522845
    10  N   -0.050333   0.074132
    11  O   -0.219874   0.007279
    12  H   -0.554439   0.719564
    13  H   -0.282997   0.444293
    14  H    0.006654   0.160559
    15  H   -0.049058   0.142596
    16  H    0.192295   0.013205
    17  H   -0.069354   0.218311
    18  H    0.073481   0.057901
    19  H   -0.609063   0.789027
    20  H   -0.039160   0.159928
    21  H    0.230335  -0.111224
    22  H   -0.487890   0.658114
    23  H   -0.080829   0.233176
    24  H   -0.061490   0.163384
    25  H    0.218836   0.058225
    26  H    0.213013   0.038559
 Sum of Mulliken charges =  -1.00000   1.00000

 Dipole moment (field-independent basis, Debye):
    X=              0.7687    Y=             -3.1099    Z=             -0.8202  Tot=              3.3069
 Quadrupole moment (field-independent basis, Debye-Ang):
   XX=           -127.9475   YY=           -108.6914   ZZ=            -95.1010
   XY=              0.8913   XZ=             -3.1603   YZ=              0.5259

 Summary of Natural Population Analysis:

                                       Natural Population
                Natural  -----------------------------------------------
    Atom  No    Charge         Core      Valence    Rydberg      Total
 -----------------------------------------------------------------------
      C    1   -0.29026      0.99962     2.28342    0.00722     3.29026
      C    2    0.08048      0.99950     1.90356    0.01646     2.91952
      C    3    0.25978      0.99967     1.71857    0.02197     2.74022
      O    4   -0.27904      0.99988     3.27225    0.00691     4.27904
      C    5   -0.00637      0.99955     1.99378    0.01304     3.00637
      C    6   -0.19606      0.99960     2.18650    0.00995     3.19606
      C    7   -0.18810      0.99963     2.17926    0.00921     3.18810
      C    8   -0.19443      0.99963     2.18585    0.00895     3.19443
      C    9   -0.08430      0.99963     2.07372    0.01095     3.08430
      N   10   -0.34466      0.99971     2.83561    0.00933     3.84466
      O   11   -0.38578      0.99989     3.37975    0.00614     4.38578
      H   12    0.10387      0.00000     0.39463    0.00150     0.39613
      H   13    0.10566      0.00000     0.39282    0.00152     0.39434
      H   14    0.10332      0.00000     0.39565    0.00102     0.39668
      H   15    0.05491      0.00000     0.44243    0.00266     0.44509
      H   16    0.08368      0.00000     0.41417    0.00215     0.41632
      H   17    0.10426      0.00000     0.39433    0.00141     0.39574
      H   18    0.09621      0.00000     0.40188    0.00191     0.40379
      H   19    0.09982      0.00000     0.39889    0.00128     0.40018
      H   20    0.09321      0.00000     0.40507    0.00173     0.40679
      H   21    0.09479      0.00000     0.40386    0.00135     0.40521
      H   22    0.09940      0.00000     0.39915    0.00146     0.40060
      H   23    0.09312      0.00000     0.40597    0.00091     0.40688
      H   24    0.07662      0.00000     0.42192    0.00147     0.42338
      H   25    0.18166      0.00000     0.31570    0.00265     0.31834
      H   26    0.23822      0.00000     0.25837    0.00342     0.26178
 =======================================================================
   * Total *    0.00000     10.99631    31.85712    0.14658    43.00000

 Normal termination of Gaussian 16 at Tue Dec  8 19:59:49 2020.
