 Gaussian 16, Revision A.03,

 -----------------------------------------------------------
 # opt freq B3LYP/6-31G(d) empiricaldispersion=gd3bj scf=xqc
 -----------------------------------------------------------

 ------------------------------
 CID_150518929_JID_935_neutraal
 ------------------------------
 Symbolic Z-matrix:
 Charge =  0 Multiplicity = 1

 SCF Done:  E(RB3LYP) =  -764.413246442     A.U. after   14 cycles
 SCF Done:  E(RB3LYP) =  -764.418615041     A.U. after   12 cycles
 SCF Done:  E(RB3LYP) =  -764.420263203     A.U. after   12 cycles
 SCF Done:  E(RB3LYP) =  -764.421374397     A.U. after   12 cycles
 SCF Done:  E(RB3LYP) =  -764.422101931     A.U. after   11 cycles
 SCF Done:  E(RB3LYP) =  -764.423269719     A.U. after   12 cycles
 SCF Done:  E(RB3LYP) =  -764.424042840     A.U. after   12 cycles
 SCF Done:  E(RB3LYP) =  -764.424188041     A.U. after   11 cycles
 SCF Done:  E(RB3LYP) =  -764.424160168     A.U. after   11 cycles
 SCF Done:  E(RB3LYP) =  -764.424219966     A.U. after   11 cycles
 SCF Done:  E(RB3LYP) =  -764.424192274     A.U. after   10 cycles
 SCF Done:  E(RB3LYP) =  -764.424221346     A.U. after   10 cycles
 SCF Done:  E(RB3LYP) =  -764.424221014     A.U. after    8 cycles
 SCF Done:  E(RB3LYP) =  -764.424221444     A.U. after    8 cycles
 Optimization completed.
    -- Stationary point found.
 Normal termination of Gaussian 16 at Tue Dec  8 13:42:13 2020.

 --------------------------------------------------------------------
 #N Geom=AllCheck Guess=TCheck SCRF=Check GenChk RB3LYP/6-31G(d) Freq
 --------------------------------------------------------------------

 Structure from the checkpoint file:  "JID_935.chk"
 ------------------------------
 CID_150518929_JID_935_neutraal
 ------------------------------
 Charge =  0 Multiplicity = 1

 SCF Done:  E(RB3LYP) =  -764.424221444     A.U. after    1 cycles

  Exact polarizability: 141.257  -0.353  97.710  -5.572  -0.501  74.242
 Approx polarizability: 198.158   1.768 154.275 -13.880  -3.424 122.462

                      1                      2                      3
                      A                      A                      A
 Frequencies --     78.6886               121.9702               205.4661
 Red. masses --      6.1914                 3.6090                 1.9691
 Frc consts  --      0.0226                 0.0316                 0.0490
 IR Inten    --      0.1637                 0.2935                 2.3148

                      4                      5                      6
                      A                      A                      A
 Frequencies --    223.5515               269.9767               321.9591
 Red. masses --      1.3022                 3.2566                 3.2403
 Frc consts  --      0.0383                 0.1399                 0.1979
 IR Inten    --     13.8291                 3.4049                 1.6208

                      7                      8                      9
                      A                      A                      A
 Frequencies --    366.4722               408.8739               480.5926
 Red. masses --      2.5778                 2.6936                 2.1595
 Frc consts  --      0.2040                 0.2653                 0.2939
 IR Inten    --     28.9412                 2.8380                89.7391

                     10                     11                     12
                      A                      A                      A
 Frequencies --    483.8852               525.4376               567.2716
 Red. masses --      2.7063                 2.6271                 3.9055
 Frc consts  --      0.3733                 0.4273                 0.7405
 IR Inten    --      1.2680                48.4834                13.2949

                     13                     14                     15
                      A                      A                      A
 Frequencies --    582.7421               616.3826               699.1140
 Red. masses --      3.1122                 2.9522                 1.5045
 Frc consts  --      0.6227                 0.6608                 0.4333
 IR Inten    --     37.0668                32.4720                32.9314

                     16                     17                     18
                      A                      A                      A
 Frequencies --    725.8974               780.5928               818.0020
 Red. masses --      2.0017                 2.6689                 1.5022
 Frc consts  --      0.6214                 0.9581                 0.5922
 IR Inten    --      6.8859                 2.4587                21.7079

                     19                     20                     21
                      A                      A                      A
 Frequencies --    832.3969               894.9822               930.5591
 Red. masses --      3.6243                 1.8158                 1.7993
 Frc consts  --      1.4796                 0.8569                 0.9180
 IR Inten    --     22.8037                47.6714                 2.2649

                     22                     23                     24
                      A                      A                      A
 Frequencies --    953.2702               967.3482               968.7250
 Red. masses --      2.4213                 1.4660                 1.7326
 Frc consts  --      1.2964                 0.8082                 0.9580
 IR Inten    --      7.1101                 2.4811                 7.1688

                     25                     26                     27
                      A                      A                      A
 Frequencies --   1026.5705              1062.8441              1074.0320
 Red. masses --      2.4442                 1.8643                 2.2641
 Frc consts  --      1.5176                 1.2408                 1.5388
 IR Inten    --     11.0103                 9.5638                17.6307

                     28                     29                     30
                      A                      A                      A
 Frequencies --   1107.3557              1117.6773              1186.1873
 Red. masses --      2.3989                 2.0926                 1.1575
 Frc consts  --      1.7332                 1.5402                 0.9596
 IR Inten    --     34.2957                 2.6258                 3.0722

                     31                     32                     33
                      A                      A                      A
 Frequencies --   1196.3254              1219.6408              1263.6483
 Red. masses --      1.2109                 1.2412                 1.4790
 Frc consts  --      1.0211                 1.0878                 1.3915
 IR Inten    --     37.4521                 3.4245                 6.1338

                     34                     35                     36
                      A                      A                      A
 Frequencies --   1277.1378              1303.6599              1328.9922
 Red. masses --      1.8855                 1.2906                 1.3583
 Frc consts  --      1.8119                 1.2923                 1.4134
 IR Inten    --     62.3966                 4.3102                31.1723

                     37                     38                     39
                      A                      A                      A
 Frequencies --   1347.2707              1348.5173              1389.7681
 Red. masses --      1.3715                 1.2635                 1.7052
 Frc consts  --      1.4668                 1.3537                 1.9405
 IR Inten    --     31.4275                33.8360                 8.2600

                     40                     41                     42
                      A                      A                      A
 Frequencies --   1411.3904              1428.5017              1464.6745
 Red. masses --      1.9891                 1.6651                 1.7488
 Frc consts  --      2.3346                 2.0019                 2.2103
 IR Inten    --      9.3176                17.9055                18.7304

                     43                     44                     45
                      A                      A                      A
 Frequencies --   1504.0273              1516.8440              1656.9680
 Red. masses --      1.1022                 1.0977                 6.6991
 Frc consts  --      1.4689                 1.4880                10.8367
 IR Inten    --      0.6412                 4.2603               142.2330

                     46                     47                     48
                      A                      A                      A
 Frequencies --   1734.3452              2681.4963              2970.8963
 Red. masses --      6.6456                 1.0384                 1.0738
 Frc consts  --     11.7775                 4.3991                 5.5839
 IR Inten    --    174.6696                16.3630                14.5971

                     49                     50                     51
                      A                      A                      A
 Frequencies --   2986.1692              3058.1855              3080.5596
 Red. masses --      1.0794                 1.0698                 1.0892
 Frc consts  --      5.6710                 5.8948                 6.0901
 IR Inten    --     48.0645                23.6467                30.3079

                     52                     53                     54
                      A                      A                      A
 Frequencies --   3105.5207              3153.5919              3171.3500
 Red. masses --      1.0882                 1.0965                 1.0855
 Frc consts  --      6.1835                 6.4251                 6.4325
 IR Inten    --     29.7050                12.0978                15.2163

                     55                     56                     57
                      A                      A                      A
 Frequencies --   3191.9127              3201.3917              3612.4547
 Red. masses --      1.0906                 1.0965                 1.0769
 Frc consts  --      6.5465                 6.6210                 8.2798
 IR Inten    --     30.5918                28.8951                24.2143

 - Thermochemistry -
 -------------------
 Temperature   298.150 Kelvin.  Pressure   1.00000 Atm.
 Atom     1 has atomic number  6 and mass  12.00000

 Molecular mass:   153.06122 amu.
 Principal axes and moments of inertia in atomic units:
                           1         2         3
     Eigenvalues --   697.823882467.656562758.98836
           X            0.99994   0.00174  -0.01076
           Y           -0.00160   0.99992   0.01250
           Z            0.01078  -0.01248   0.99986
 This molecule is an asymmetric top.
 Rotational symmetry number  1.
 Warning -- assumption of classical behavior for rotation
           may cause significant error
 Rotational temperatures (Kelvin)      0.12412     0.03510     0.03139
 Rotational constants (GHZ):           2.58624     0.73136     0.65413
 Zero-point vibrational energy     460586.6 (Joules/Mol)
                                  110.08284 (Kcal/Mol)
 Warning -- explicit consideration of  14 degrees of freedom as
           vibrations may cause significant error
 Vibrational temperatures:    113.22   175.49   295.62   321.64   388.44
          (Kelvin)            463.23   527.27   588.28   691.47   696.20
                              755.99   816.18   838.44   886.84  1005.87
                             1044.40  1123.10  1176.92  1197.63  1287.68
                             1338.87  1371.54  1391.80  1393.78  1477.01
                             1529.20  1545.29  1593.24  1608.09  1706.66
                             1721.25  1754.79  1818.11  1837.52  1875.68
                             1912.12  1938.42  1940.22  1999.57  2030.68
                             2055.30  2107.34  2163.96  2182.40  2384.01
                             2495.34  3858.08  4274.46  4296.43  4400.05
                             4432.24  4468.15  4537.32  4562.87  4592.45
                             4606.09  5197.52

 Zero-point correction=                           0.175428 (Hartree/Particle)
 Thermal correction to Energy=                    0.184451
 Thermal correction to Enthalpy=                  0.185395
 Thermal correction to Gibbs Free Energy=         0.141316
 Sum of electronic and zero-point Energies=           -764.248793
 Sum of electronic and thermal Energies=              -764.239770
 Sum of electronic and thermal Enthalpies=            -764.238826
 Sum of electronic and thermal Free Energies=         -764.282906

                     E (Thermal)             CV                S
                      KCal/Mol        Cal/Mol-Kelvin    Cal/Mol-Kelvin
 Total                  115.745             36.117             92.773
 Electronic               0.000              0.000              0.000
 Translational            0.889              2.981             40.987
 Rotational               0.889              2.981             29.942
 Vibrational            113.967             30.155             21.845
 Vibration     1          0.600              1.963              3.923
 Vibration     2          0.609              1.931              3.069
 Vibration     3          0.640              1.832              2.084
 Vibration     4          0.649              1.805              1.930
 Vibration     5          0.674              1.728              1.596
 Vibration     6          0.707              1.631              1.300
 Vibration     7          0.739              1.541              1.095
 Vibration     8          0.773              1.451              0.931
 Vibration     9          0.837              1.293              0.708
 Vibration    10          0.840              1.286              0.700
 Vibration    11          0.880              1.194              0.597
 Vibration    12          0.923              1.102              0.510
 Vibration    13          0.940              1.069              0.480
 Vibration    14          0.976              0.997              0.422

 Optimization completed.
    -- Stationary point found.
 Normal termination of Gaussian 16 at Tue Dec  8 13:48:29 2020.

 ----------------------------------------------------------------------
 # B3LYP/6-311++G(d,p) empiricaldispersion=gd3bj scf=xqc pop=npa geom=c
 heck
 ----------------------------------------------------------------------

 --------------------------------------
 CID_150518929_JID_935_Energie_neutraal
 --------------------------------------
 Structure from the checkpoint file:  "JID_935.chk"
 Charge =  0 Multiplicity = 1

 SCF Done:  E(RB3LYP) =  -764.555406825     A.U. after   15 cycles
 Normal termination of Gaussian 16 at Tue Dec  8 13:52:01 2020.

 ----------------------------------------------------------------------
 # B3LYP/6-311++G(d,p) empiricaldispersion=gd3bj scf=xqc pop=npa geom=c
 heck
 ----------------------------------------------------------------------

 ------------------------------------
 CID_150518929_JID_935_Energie_kation
 ------------------------------------
 Structure from the checkpoint file:  "JID_935.chk"
 Charge =  1 Multiplicity = 2

 SCF Done:  E(UB3LYP) =  -764.299090016     A.U. after   23 cycles
 Normal termination of Gaussian 16 at Tue Dec  8 13:55:37 2020.
 Gaussian 16:  ES64L-G16RevA.03 25-Dec-2016

 ----------------------------------------------------------------------
 # B3LYP/6-311++G(d,p) empiricaldispersion=gd3bj scf=xqc pop=npa geom=c
 heck
 ----------------------------------------------------------------------

 -----------------------------------
 CID_150518929_JID_935_Energie_anion
 -----------------------------------
 Structure from the checkpoint file:  "JID_935.chk"
 Charge = -1 Multiplicity = 2

                         Standard orientation:
 ---------------------------------------------------------------------
 Center     Atomic      Atomic             Coordinates (Angstroms)
 Number     Number       Type             X           Y           Z
 ---------------------------------------------------------------------
      1          6           0        1.824630    1.388527    0.086175
      2          6           0        2.917139    0.488022   -0.455541
      3          6           0        2.772123   -0.850930   -0.419317
      4          6           0        1.567233   -1.491737    0.105390
      5          6           0        0.477730   -0.718772    0.292678
      6          6           0        0.461974    0.735080   -0.138463
      7          6           0       -0.757645    1.297404    0.607486
      8          6           0       -1.691876    0.074112    0.716993
      9          7           0       -0.753159   -1.011023    0.856205
     10         16           0       -2.883790   -0.111089   -0.725413
     11          1           0        1.978944    1.548907    1.167971
     12          1           0        1.853472    2.378105   -0.383687
     13          1           0        3.836272    0.939800   -0.817307
     14          1           0        3.580007   -1.493863   -0.761720
     15          1           0        1.574580   -2.550692    0.347245
     16          1           0        0.260930    0.743456   -1.223026
     17          1           0       -1.235716    2.144173    0.113488
     18          1           0       -0.462926    1.601746    1.619832
     19          1           0       -2.370436    0.127682    1.571956
     20          1           0       -1.093131   -1.962793    0.893183
     21          1           0       -1.937090   -0.152173   -1.687185
 ---------------------------------------------------------------------

 SCF Done:  E(UB3LYP) =  -764.540368697     A.U. after   33 cycles
 SCF Done:  E(UB3LYP) =  -764.540368698     a.u. after    1 cycles

 The electronic state is 2-A.
 Alpha  occ. eigenvalues --  -88.73051 -14.22758 -10.13699 -10.10214 -10.07621
 Alpha  occ. eigenvalues --  -10.07256 -10.06769 -10.06245 -10.05333 -10.04414
 Alpha  occ. eigenvalues --   -7.81767  -5.78119  -5.77791  -5.77161  -0.85537
 Alpha  occ. eigenvalues --   -0.72717  -0.68526  -0.64608  -0.62055  -0.58867
 Alpha  occ. eigenvalues --   -0.51832  -0.49185  -0.47889  -0.43347  -0.39777
 Alpha  occ. eigenvalues --   -0.37668  -0.35511  -0.32913  -0.32222  -0.30905
 Alpha  occ. eigenvalues --   -0.29581  -0.28089  -0.27676  -0.26489  -0.24109
 Alpha  occ. eigenvalues --   -0.22477  -0.22371  -0.20470  -0.16931  -0.13680
 Alpha  occ. eigenvalues --   -0.07888   0.04781
 Alpha virt. eigenvalues --    0.07174   0.07716   0.07934   0.08963   0.09245
 Alpha virt. eigenvalues --    0.09586   0.10318   0.11422   0.11938   0.12205
 Alpha virt. eigenvalues --    0.12568   0.13534   0.15313   0.15678   0.16554

  Beta  occ. eigenvalues --  -88.73035 -14.22725 -10.13676 -10.10201 -10.07602
  Beta  occ. eigenvalues --  -10.07231 -10.06753 -10.06246 -10.05308 -10.04393
  Beta  occ. eigenvalues --   -7.81748  -5.78088  -5.77779  -5.77149  -0.85485
  Beta  occ. eigenvalues --   -0.72674  -0.68477  -0.64553  -0.61998  -0.58803
  Beta  occ. eigenvalues --   -0.51762  -0.49094  -0.47833  -0.43268  -0.39719
  Beta  occ. eigenvalues --   -0.37605  -0.35466  -0.32864  -0.32166  -0.30859
  Beta  occ. eigenvalues --   -0.29517  -0.28037  -0.27631  -0.26426  -0.24050
  Beta  occ. eigenvalues --   -0.22431  -0.22333  -0.20406  -0.16876  -0.13638
  Beta  occ. eigenvalues --   -0.07794
  Beta virt. eigenvalues --    0.07127   0.08116   0.08253   0.08566   0.09377
  Beta virt. eigenvalues --    0.09901   0.10270   0.10598   0.11627   0.12496
  Beta virt. eigenvalues --    0.12723   0.13014   0.13908   0.15590   0.15907

 Mulliken charges and spin densities:
               1          2
     1  C    2.076416  -2.855235
     2  C   -1.517376   1.533232
     3  C    1.724192  -2.163227
     4  C   -1.074124   0.541509
     5  C    0.986640  -1.342617
     6  C   -1.334468   2.184295
     7  C    1.202757  -2.113814
     8  C   -0.341776   1.085020
     9  N   -0.075720  -0.024319
    10  S    0.910797  -1.259395
    11  H   -0.057662   0.172037
    12  H   -0.046185   0.203432
    13  H   -0.229369   0.390889
    14  H    0.074818   0.053559
    15  H   -0.615480   0.768640
    16  H   -0.204632   0.360830
    17  H   -0.508119   0.682108
    18  H   -0.040688   0.208687
    19  H   -1.210696   1.537116
    20  H   -0.216167   0.480398
    21  H   -0.503158   0.556854
 Sum of Mulliken charges =  -1.00000   1.00000

 Dipole moment (field-independent basis, Debye):
    X=              2.7868    Y=              0.5276    Z=             -0.8773  Tot=              2.9689
 Quadrupole moment (field-independent basis, Debye-Ang):
   XX=           -121.8623   YY=           -108.2533   ZZ=           -101.2504
   XY=              0.2637   XZ=              5.9889   YZ=              1.6068

 Summary of Natural Population Analysis:

                                       Natural Population
                Natural  -----------------------------------------------
    Atom  No    Charge         Core      Valence    Rydberg      Total
 -----------------------------------------------------------------------
      C    1   -0.20121      0.99961     2.19229    0.00932     3.20121
      C    2   -0.10801      0.99955     2.09763    0.01084     3.10801
      C    3   -0.09999      0.99954     2.09035    0.01011     3.09999
      C    4   -0.17113      0.99947     2.16125    0.01040     3.17113
      C    5    0.12239      0.99949     1.86387    0.01425     2.87761
      C    6   -0.12383      0.99955     2.11317    0.01111     3.12383
      C    7   -0.19197      0.99959     2.18192    0.01046     3.19197
      C    8   -0.05149      0.99958     2.03494    0.01697     3.05149
      N    9   -0.30950      0.99965     2.79741    0.01244     3.80950
      S   10   -0.04232      4.99967     3.02867    0.01398     8.04232
      H   11    0.09790      0.00000     0.40052    0.00158     0.40210
      H   12    0.10351      0.00000     0.39501    0.00148     0.39649
      H   13    0.09380      0.00000     0.40529    0.00092     0.40620
      H   14    0.09583      0.00000     0.40329    0.00088     0.40417
      H   15    0.10121      0.00000     0.39720    0.00159     0.39879
      H   16    0.10687      0.00000     0.39051    0.00262     0.39313
      H   17    0.11055      0.00000     0.38761    0.00184     0.38945
      H   18    0.10242      0.00000     0.39581    0.00178     0.39758
      H   19    0.10452      0.00000     0.39192    0.00356     0.39548
      H   20    0.19899      0.00000     0.29361    0.00740     0.30101
      H   21    0.06147      0.00000     0.43509    0.00344     0.43853
 =======================================================================
   * Total *    0.00000     13.99568    26.85734    0.14698    41.00000

 Normal termination of Gaussian 16 at Tue Dec  8 14:07:06 2020.
