 Gaussian 16, Revision A.03,

 -----------------------------------------------------------
 # opt freq B3LYP/6-31G(d) empiricaldispersion=gd3bj scf=xqc
 -----------------------------------------------------------

 -------------------------------
 CID_130664124_JID_4268_neutraal
 -------------------------------
 Symbolic Z-matrix:
 Charge =  0 Multiplicity = 1

 SCF Done:  E(RB3LYP) =  -565.255444668     A.U. after   12 cycles
 SCF Done:  E(RB3LYP) =  -565.254363433     A.U. after   11 cycles
 SCF Done:  E(RB3LYP) =  -565.257263313     A.U. after   11 cycles
 SCF Done:  E(RB3LYP) =  -565.258408778     A.U. after   10 cycles
 SCF Done:  E(RB3LYP) =  -565.258548743     A.U. after   10 cycles
 SCF Done:  E(RB3LYP) =  -565.258589439     A.U. after   10 cycles
 SCF Done:  E(RB3LYP) =  -565.258621487     A.U. after    9 cycles
 SCF Done:  E(RB3LYP) =  -565.258631890     A.U. after    8 cycles
 SCF Done:  E(RB3LYP) =  -565.258635286     A.U. after    8 cycles
 SCF Done:  E(RB3LYP) =  -565.258639042     A.U. after    7 cycles
 SCF Done:  E(RB3LYP) =  -565.258719613     A.U. after   10 cycles
 SCF Done:  E(RB3LYP) =  -565.258728840     A.U. after    9 cycles
 SCF Done:  E(RB3LYP) =  -565.258729854     A.U. after    8 cycles
 SCF Done:  E(RB3LYP) =  -565.258729717     A.U. after    7 cycles
 SCF Done:  E(RB3LYP) =  -565.258729898     A.U. after    7 cycles
 SCF Done:  E(RB3LYP) =  -565.258729931     A.U. after    6 cycles
 Optimization completed.
    -- Stationary point found.
 Normal termination of Gaussian 16 at Thu Dec 10 09:34:49 2020.

 --------------------------------------------------------------------
 #N Geom=AllCheck Guess=TCheck SCRF=Check GenChk RB3LYP/6-31G(d) Freq
 --------------------------------------------------------------------

 Structure from the checkpoint file:  "JID_4268.chk"
 -------------------------------
 CID_130664124_JID_4268_neutraal
 -------------------------------
 Charge =  0 Multiplicity = 1

 SCF Done:  E(RB3LYP) =  -565.258729931     A.U. after    1 cycles

  Exact polarizability: 151.485   2.523 136.483   1.322   0.439 123.037
 Approx polarizability: 191.016   1.626 189.179  -0.635  -0.431 190.149

                      1                      2                      3
                      A                      A                      A
 Frequencies --     24.4143                52.2025                65.3573
 Red. masses --      2.9113                 3.0497                 2.8018
 Frc consts  --      0.0010                 0.0049                 0.0071
 IR Inten    --      0.5554                 0.4042                 0.1197

                      4                      5                      6
                      A                      A                      A
 Frequencies --    140.3474               151.1820               171.4820
 Red. masses --      3.4371                 2.5981                 2.4580
 Frc consts  --      0.0399                 0.0350                 0.0426
 IR Inten    --      0.5352                 0.0395                 2.3705

                      7                      8                      9
                      A                      A                      A
 Frequencies --    204.7522               238.1629               263.3334
 Red. masses --      2.5533                 1.7719                 1.3312
 Frc consts  --      0.0631                 0.0592                 0.0544
 IR Inten    --      0.3713                 0.6787                 0.4259

                     10                     11                     12
                      A                      A                      A
 Frequencies --    300.5238               314.1558               334.0591
 Red. masses --      1.5375                 2.5026                 1.3674
 Frc consts  --      0.0818                 0.1455                 0.0899
 IR Inten    --      0.2181                 0.1559                 0.0642

                     13                     14                     15
                      A                      A                      A
 Frequencies --    356.9537               371.7625               385.4401
 Red. masses --      1.9973                 2.4200                 2.0349
 Frc consts  --      0.1499                 0.1971                 0.1781
 IR Inten    --      1.0237                 1.4710                 0.5282

                     16                     17                     18
                      A                      A                      A
 Frequencies --    425.7170               448.0936               453.0997
 Red. masses --      2.7595                 2.3770                 2.3629
 Frc consts  --      0.2947                 0.2812                 0.2858
 IR Inten    --      2.4043                 0.2995                 5.1379

                     19                     20                     21
                      A                      A                      A
 Frequencies --    490.9940               507.1136               562.1992
 Red. masses --      1.7118                 2.7912                 2.1948
 Frc consts  --      0.2431                 0.4229                 0.4087
 IR Inten    --      1.3784                 0.2124                 0.5879

                     22                     23                     24
                      A                      A                      A
 Frequencies --    644.4879               699.0167               745.9472
 Red. masses --      3.6945                 2.4266                 2.7916
 Frc consts  --      0.9041                 0.6986                 0.9152
 IR Inten    --      7.2769                 0.1370                 1.5618

                     25                     26                     27
                      A                      A                      A
 Frequencies --    791.3035               795.9211               832.3366
 Red. masses --      1.5038                 1.6843                 2.5217
 Frc consts  --      0.5548                 0.6286                 1.0293
 IR Inten    --      0.1212                90.5534                 0.1995

                     28                     29                     30
                      A                      A                      A
 Frequencies --    841.8644               872.4702               880.8404
 Red. masses --      2.3606                 1.9532                 2.2006
 Frc consts  --      0.9857                 0.8760                 1.0060
 IR Inten    --      0.3760                 2.4595                 6.4292

                     31                     32                     33
                      A                      A                      A
 Frequencies --    891.3223               894.9977               929.3931
 Red. masses --      1.6188                 1.9910                 2.0598
 Frc consts  --      0.7577                 0.9396                 1.0483
 IR Inten    --     19.0798                 7.0137                 1.1000

                     34                     35                     36
                      A                      A                      A
 Frequencies --    942.1826               950.2663               969.1987
 Red. masses --      1.6174                 1.3711                 1.6779
 Frc consts  --      0.8459                 0.7295                 0.9286
 IR Inten    --      3.1820                 1.4571                 0.5919

                     37                     38                     39
                      A                      A                      A
 Frequencies --   1004.2749              1027.2647              1036.4979
 Red. masses --      1.5405                 1.9527                 1.9058
 Frc consts  --      0.9154                 1.2141                 1.2063
 IR Inten    --      4.9147                 3.8359                 4.4631

                     40                     41                     42
                      A                      A                      A
 Frequencies --   1047.7648              1050.8383              1055.3440
 Red. masses --      2.0015                 2.4486                 1.9697
 Frc consts  --      1.2946                 1.5931                 1.2925
 IR Inten    --      0.8954                 5.2655                 1.1855

                     43                     44                     45
                      A                      A                      A
 Frequencies --   1077.4566              1108.9751              1113.5412
 Red. masses --      1.6735                 2.3195                 1.9646
 Frc consts  --      1.1447                 1.6807                 1.4353
 IR Inten    --      0.3066                 0.8275                 0.6019

                     46                     47                     48
                      A                      A                      A
 Frequencies --   1126.7615              1127.5674              1138.5091
 Red. masses --      1.5359                 2.6190                 2.1340
 Frc consts  --      1.1489                 1.9618                 1.6297
 IR Inten    --      4.7310                21.7918                11.2900

                     49                     50                     51
                      A                      A                      A
 Frequencies --   1149.3956              1153.7431              1180.8045
 Red. masses --      1.9373                 1.0558                 1.8284
 Frc consts  --      1.5080                 0.8280                 1.5020
 IR Inten    --      7.1694                 0.6738                 6.2830

                     52                     53                     54
                      A                      A                      A
 Frequencies --   1210.7394              1246.6167              1259.8594
 Red. masses --      2.1443                 1.3510                 1.4980
 Frc consts  --      1.8520                 1.2370                 1.4009
 IR Inten    --      2.5570                 1.2659                 2.7689

                     55                     56                     57
                      A                      A                      A
 Frequencies --   1287.6089              1300.1072              1306.1345
 Red. masses --      1.3206                 1.2967                 1.2351
 Frc consts  --      1.2900                 1.2913                 1.2414
 IR Inten    --      1.5605                 0.4683                 1.0880

                     58                     59                     60
                      A                      A                      A
 Frequencies --   1312.4586              1330.6836              1336.1629
 Red. masses --      1.2625                 1.2660                 1.3231
 Frc consts  --      1.2813                 1.3208                 1.3917
 IR Inten    --      1.0638                 2.5232                 1.3798

                     61                     62                     63
                      A                      A                      A
 Frequencies --   1351.5250              1366.3744              1371.5824
 Red. masses --      1.2505                 1.3749                 1.3558
 Frc consts  --      1.3458                 1.5124                 1.5028
 IR Inten    --      1.1384                 7.9421                 1.6769

                     64                     65                     66
                      A                      A                      A
 Frequencies --   1375.4620              1378.8197              1388.0880
 Red. masses --      1.3392                 1.4429                 1.3110
 Frc consts  --      1.4927                 1.6163                 1.4883
 IR Inten    --      0.7187                 0.7954                 4.6177

                     67                     68                     69
                      A                      A                      A
 Frequencies --   1400.4907              1404.2427              1411.6693
 Red. masses --      1.3943                 1.3871                 1.4260
 Frc consts  --      1.6113                 1.6116                 1.6743
 IR Inten    --      2.4973                 9.0557                 4.3336

                     70                     71                     72
                      A                      A                      A
 Frequencies --   1413.2403              1418.6975              1428.8721
 Red. masses --      1.4421                 1.4087                 1.3657
 Frc consts  --      1.6970                 1.6704                 1.6429
 IR Inten    --      0.5347                 1.6563                 7.3470

                     73                     74                     75
                      A                      A                      A
 Frequencies --   1433.1965              1442.1829              1480.6443
 Red. masses --      1.2547                 1.2395                 1.1893
 Frc consts  --      1.5185                 1.5189                 1.5362
 IR Inten    --      6.9793                 5.9020                 5.6393

                     76                     77                     78
                      A                      A                      A
 Frequencies --   1511.9531              1514.9476              1519.1043
 Red. masses --      1.0822                 1.0873                 1.0549
 Frc consts  --      1.4576                 1.4703                 1.4342
 IR Inten    --      2.8428                 2.4153                 0.9481

                     79                     80                     81
                      A                      A                      A
 Frequencies --   1520.8906              1522.9203              1524.6168
 Red. masses --      1.0918                 1.0796                 1.0754
 Frc consts  --      1.4879                 1.4753                 1.4728
 IR Inten    --      3.3161                 4.2476                 9.9636

                     82                     83                     84
                      A                      A                      A
 Frequencies --   1526.1281              1533.6501              1535.7219
 Red. masses --      1.0581                 1.0720                 1.0749
 Frc consts  --      1.4520                 1.4856                 1.4936
 IR Inten    --      1.8905                 5.5654                 7.1953

                     85                     86                     87
                      A                      A                      A
 Frequencies --   1542.1307              1550.2046              2988.3324
 Red. masses --      1.0846                 1.0662                 1.0828
 Frc consts  --      1.5198                 1.5096                 5.6969
 IR Inten    --      1.9826                 2.0294                 9.7312

                     88                     89                     90
                      A                      A                      A
 Frequencies --   3004.1172              3020.0023              3021.1293
 Red. masses --      1.0812                 1.0710                 1.0666
 Frc consts  --      5.7492                 5.7549                 5.7359
 IR Inten    --     21.3025                 6.8467                28.7190

                     91                     92                     93
                      A                      A                      A
 Frequencies --   3022.0684              3028.7958              3031.0195
 Red. masses --      1.0707                 1.0805                 1.0747
 Frc consts  --      5.7614                 5.8399                 5.8175
 IR Inten    --     28.5078                16.1540                50.7419

                     94                     95                     96
                      A                      A                      A
 Frequencies --   3033.6093              3037.6497              3043.0823
 Red. masses --      1.0721                 1.0656                 1.0394
 Frc consts  --      5.8132                 5.7930                 5.6711
 IR Inten    --     39.8571                12.9696                18.9570

                     97                     98                     99
                      A                      A                      A
 Frequencies --   3048.7399              3050.1948              3052.9790
 Red. masses --      1.0667                 1.0401                 1.0784
 Frc consts  --      5.8415                 5.7014                 5.9220
 IR Inten    --     51.2414                17.3305                88.4152

                    100                    101                    102
                      A                      A                      A
 Frequencies --   3068.9771              3072.1246              3076.6368
 Red. masses --      1.0948                 1.0946                 1.1018
 Frc consts  --      6.0755                 6.0866                 6.1448
 IR Inten    --     67.9538                43.3985                48.5641

                    103                    104                    105
                      A                      A                      A
 Frequencies --   3100.9169              3102.8676              3108.9111
 Red. masses --      1.0912                 1.0958                 1.1002
 Frc consts  --      6.1820                 6.2160                 6.2650
 IR Inten    --     35.7814                86.4450                29.8366

                    106                    107                    108
                      A                      A                      A
 Frequencies --   3109.3788              3115.1310              3125.4761
 Red. masses --      1.1002                 1.0967                 1.1022
 Frc consts  --      6.2669                 6.2704                 6.3436
 IR Inten    --     26.4815                51.2356                36.7702

                    109                    110                    111
                      A                      A                      A
 Frequencies --   3128.0335              3143.1695              3500.7633
 Red. masses --      1.1002                 1.0907                 1.0753
 Frc consts  --      6.3425                 6.3490                 7.7646
 IR Inten    --     36.5316                24.5223                 0.8336

 - Thermochemistry -
 -------------------
 Temperature   298.150 Kelvin.  Pressure   1.00000 Atm.
 Atom     1 has atomic number  6 and mass  12.00000

 Molecular mass:   195.19870 amu.
 Principal axes and moments of inertia in atomic units:
                           1         2         3
     Eigenvalues --  1706.672664186.842684847.37326
           X            0.99994   0.00662   0.00853
           Y           -0.00665   0.99997   0.00305
           Z           -0.00851  -0.00310   0.99996
 This molecule is an asymmetric top.
 Rotational symmetry number  1.
 Warning -- assumption of classical behavior for rotation
           may cause significant error
 Rotational temperatures (Kelvin)      0.05075     0.02069     0.01787
 Rotational constants (GHZ):           1.05746     0.43105     0.37231
 Zero-point vibrational energy     967979.1 (Joules/Mol)
                                  231.35256 (Kcal/Mol)
 Warning -- explicit consideration of  21 degrees of freedom as
           vibrations may cause significant error
 Vibrational temperatures:     35.13    75.11    94.03   201.93   217.52
          (Kelvin)            246.72   294.59   342.66   378.88   432.39
                              452.00   480.64   513.58   534.88   554.56
                              612.51   644.71   651.91   706.43   729.62
                              808.88   927.27  1005.73  1073.25  1138.51
                             1145.15  1197.55  1211.26  1255.29  1267.33
                             1282.41  1287.70  1337.19  1355.59  1367.22
                             1394.46  1444.93  1478.00  1491.29  1507.50
                             1511.92  1518.40  1550.22  1595.57  1602.14
                             1621.16  1622.32  1638.06  1653.72  1659.98
                             1698.91  1741.98  1793.60  1812.66  1852.58
                             1870.56  1879.24  1888.34  1914.56  1922.44
                             1944.54  1965.91  1973.40  1978.98  1983.81
                             1997.15  2014.99  2020.39  2031.08  2033.34
                             2041.19  2055.83  2062.05  2074.98  2130.32
                             2175.36  2179.67  2185.65  2188.22  2191.14
                             2193.58  2195.76  2206.58  2209.56  2218.78
                             2230.40  4299.54  4322.25  4345.11  4346.73
                             4348.08  4357.76  4360.96  4364.69  4370.50
                             4378.32  4386.46  4388.55  4392.56  4415.57
                             4420.10  4426.59  4461.53  4464.33  4473.03
                             4473.70  4481.98  4496.86  4500.54  4522.32
                             5036.82

 Zero-point correction=                           0.368684 (Hartree/Particle)
 Thermal correction to Energy=                    0.382843
 Thermal correction to Enthalpy=                  0.383787
 Thermal correction to Gibbs Free Energy=         0.327608
 Sum of electronic and zero-point Energies=           -564.890046
 Sum of electronic and thermal Energies=              -564.875887
 Sum of electronic and thermal Enthalpies=            -564.874943
 Sum of electronic and thermal Free Energies=         -564.931122

                     E (Thermal)             CV                S
                      KCal/Mol        Cal/Mol-Kelvin    Cal/Mol-Kelvin
 Total                  240.237             57.124            118.239
 Electronic               0.000              0.000              0.000
 Translational            0.889              2.981             41.712
 Rotational               0.889              2.981             31.916
 Vibrational            238.460             51.163             44.612
 Vibration     1          0.593              1.985              6.238
 Vibration     2          0.596              1.977              4.732
 Vibration     3          0.597              1.971              4.289
 Vibration     4          0.615              1.913              2.799
 Vibration     5          0.619              1.901              2.657
 Vibration     6          0.626              1.878              2.419
 Vibration     7          0.640              1.833              2.090
 Vibration     8          0.656              1.782              1.817
 Vibration     9          0.670              1.740              1.640
 Vibration    10          0.693              1.673              1.414
 Vibration    11          0.702              1.647              1.340
 Vibration    12          0.716              1.607              1.240
 Vibration    13          0.732              1.561              1.135
 Vibration    14          0.743              1.530              1.073
 Vibration    15          0.754              1.501              1.018
 Vibration    16          0.788              1.414              0.873
 Vibration    17          0.807              1.365              0.802
 Vibration    18          0.812              1.354              0.786
 Vibration    19          0.847              1.270              0.681
 Vibration    20          0.862              1.234              0.641
 Vibration    21          0.918              1.113              0.519

 Optimization completed.
    -- Stationary point found.
 Normal termination of Gaussian 16 at Thu Dec 10 09:48:29 2020.

 ----------------------------------------------------------------------
 # B3LYP/6-311++G(d,p) empiricaldispersion=gd3bj scf=xqc pop=npa geom=c
 heck
 ----------------------------------------------------------------------

 ---------------------------------------
 CID_130664124_JID_4268_Energie_neutraal
 ---------------------------------------
 Structure from the checkpoint file:  "JID_4268.chk"
 Charge =  0 Multiplicity = 1

 SCF Done:  E(RB3LYP) =  -565.414068855     A.U. after   14 cycles
 Normal termination of Gaussian 16 at Thu Dec 10 09:55:34 2020.

 ----------------------------------------------------------------------
 # B3LYP/6-311++G(d,p) empiricaldispersion=gd3bj scf=xqc pop=npa geom=c
 heck
 ----------------------------------------------------------------------

 -------------------------------------
 CID_130664124_JID_4268_Energie_kation
 -------------------------------------
 Structure from the checkpoint file:  "JID_4268.chk"
 Charge =  1 Multiplicity = 2

 SCF Done:  E(UB3LYP) =  -565.111659319     A.U. after   21 cycles
 Normal termination of Gaussian 16 at Thu Dec 10 10:12:04 2020.
 Gaussian 16:  ES64L-G16RevA.03 25-Dec-2016

 ----------------------------------------------------------------------
 # B3LYP/6-311++G(d,p) empiricaldispersion=gd3bj scf=xqc pop=npa geom=c
 heck
 ----------------------------------------------------------------------

 ------------------------------------
 CID_130664124_JID_4268_Energie_anion
 ------------------------------------
 Structure from the checkpoint file:  "JID_4268.chk"
 Charge = -1 Multiplicity = 2

                         Standard orientation:
 ---------------------------------------------------------------------
 Center     Atomic      Atomic             Coordinates (Angstroms)
 Number     Number       Type             X           Y           Z
 ---------------------------------------------------------------------
      1          6           0       -4.039452   -1.124801   -0.538219
      2          6           0       -2.785310   -0.905287    0.306254
      3          6           0       -1.511409   -0.694498   -0.555154
      4          6           0       -0.730356    0.437564    0.143097
      5          6           0       -1.922950    1.273957    0.662373
      6          7           0       -2.919592    0.313348    1.152335
      7          6           0        0.279718    1.200590   -0.747639
      8          6           0        0.417757    2.672039   -0.314695
      9          6           0        1.698294    0.575784   -0.949709
     10          6           0        2.732751    0.828051    0.174704
     11          6           0        2.665568   -0.153211    1.351359
     12          6           0        2.802402   -1.595933    0.854321
     13          6           0        1.715735   -1.914301   -0.178319
     14          6           0        1.723548   -0.917927   -1.351364
     15          1           0       -3.921424   -1.991154   -1.201302
     16          1           0       -4.236004   -0.242461   -1.158224
     17          1           0       -4.914540   -1.289542    0.098486
     18          1           0       -2.649404   -1.776172    0.960972
     19          1           0       -0.952360   -1.622733   -0.682288
     20          1           0       -1.796124   -0.353632   -1.560243
     21          1           0       -0.217267    0.033994    1.026048
     22          1           0       -2.358121    1.851246   -0.166030
     23          1           0       -1.660881    1.984995    1.450909
     24          1           0       -2.681831    0.070500    2.110884
     25          1           0       -0.165994    1.215480   -1.754410
     26          1           0        0.697128    2.763720    0.740771
     27          1           0        1.187099    3.181750   -0.906370
     28          1           0       -0.519661    3.217893   -0.454359
     29          1           0        2.082725    1.127369   -1.819886
     30          1           0        3.730638    0.729476   -0.277343
     31          1           0        2.670120    1.859560    0.534059
     32          1           0        1.717367   -0.038702    1.893308
     33          1           0        3.462053    0.080302    2.069348
     34          1           0        2.748849   -2.302866    1.691694
     35          1           0        3.794416   -1.723351    0.396200
     36          1           0        0.746498   -1.904486    0.330593
     37          1           0        1.848188   -2.931229   -0.569444
     38          1           0        0.899305   -1.135085   -2.041783
     39          1           0        2.648597   -1.090468   -1.919994
 ---------------------------------------------------------------------

 SCF Done:  E(UB3LYP) =  -565.399983421     A.U. after   28 cycles

 The electronic state is 2-A.
 Alpha  occ. eigenvalues --  -14.19176 -10.09566 -10.08666 -10.07434 -10.06943
 Alpha  occ. eigenvalues --  -10.06879 -10.06188 -10.06096 -10.06028 -10.05902
 Alpha  occ. eigenvalues --  -10.05860 -10.05843 -10.05824 -10.05810  -0.81616
 Alpha  occ. eigenvalues --   -0.73577  -0.69496  -0.66054  -0.64516  -0.63738
 Alpha  occ. eigenvalues --   -0.61340  -0.56593  -0.53712  -0.50541  -0.49903
 Alpha  occ. eigenvalues --   -0.46591  -0.45680  -0.43231  -0.41350  -0.38081
 Alpha  occ. eigenvalues --   -0.36352  -0.35511  -0.34513  -0.33178  -0.32837
 Alpha  occ. eigenvalues --   -0.31594  -0.31046  -0.30391  -0.29938  -0.28867
 Alpha  occ. eigenvalues --   -0.28353  -0.27487  -0.26783  -0.26023  -0.25266
 Alpha  occ. eigenvalues --   -0.24302  -0.23864  -0.23209  -0.22618  -0.21941
 Alpha  occ. eigenvalues --   -0.21564  -0.19674  -0.19283  -0.19023  -0.12858
 Alpha  occ. eigenvalues --    0.04353
 Alpha virt. eigenvalues --    0.06332   0.06969   0.06998   0.08382   0.08568
 Alpha virt. eigenvalues --    0.09051   0.09202   0.09420   0.10711   0.11148
 Alpha virt. eigenvalues --    0.11302   0.11679   0.11924   0.12271   0.12440

  Beta  occ. eigenvalues --  -14.19160 -10.09552 -10.08653 -10.07427 -10.06940
  Beta  occ. eigenvalues --  -10.06871 -10.06180 -10.06084 -10.06017 -10.05886
  Beta  occ. eigenvalues --  -10.05840 -10.05825 -10.05808 -10.05793  -0.81587
  Beta  occ. eigenvalues --   -0.73551  -0.69471  -0.66025  -0.64486  -0.63705
  Beta  occ. eigenvalues --   -0.61308  -0.56556  -0.53671  -0.50492  -0.49862
  Beta  occ. eigenvalues --   -0.46549  -0.45629  -0.43194  -0.41292  -0.38030
  Beta  occ. eigenvalues --   -0.36321  -0.35487  -0.34482  -0.33153  -0.32813
  Beta  occ. eigenvalues --   -0.31566  -0.31017  -0.30364  -0.29913  -0.28842
  Beta  occ. eigenvalues --   -0.28323  -0.27456  -0.26753  -0.25995  -0.25235
  Beta  occ. eigenvalues --   -0.24276  -0.23830  -0.23174  -0.22588  -0.21910
  Beta  occ. eigenvalues --   -0.21540  -0.19647  -0.19250  -0.18994  -0.12834
  Beta virt. eigenvalues --    0.06391   0.07097   0.07429   0.07582   0.08748
  Beta virt. eigenvalues --    0.08987   0.09504   0.09662   0.09734   0.10988
  Beta virt. eigenvalues --    0.11434   0.11509   0.12008   0.12199   0.12702

 Mulliken charges and spin densities:
               1          2
     1  C    0.127014  -0.662639
     2  C   -0.121339  -0.216402
     3  C   -0.358358  -0.134854
     4  C    0.343984  -0.152944
     5  C    0.838113  -1.651467
     6  N   -0.043119   0.082104
     7  C   -1.715447   2.033398
     8  C    0.376700  -1.150687
     9  C    0.252925   0.074631
    10  C    0.272921  -0.895887
    11  C   -0.233943   0.108523
    12  C    0.505185  -1.172723
    13  C    0.026854  -0.117998
    14  C    0.054317  -0.543992
    15  H   -0.052069   0.177207
    16  H    0.063743   0.078470
    17  H    0.028493   0.112549
    18  H   -0.435122   0.622661
    19  H    0.237913  -0.104850
    20  H    0.070716   0.090341
    21  H    0.686442  -0.462768
    22  H    0.135982   0.049110
    23  H   -0.084796   0.272670
    24  H   -0.078458   0.324997
    25  H   -0.045568   0.226594
    26  H   -0.116086   0.285585
    27  H   -0.197917   0.344961
    28  H    0.108530   0.018157
    29  H   -0.082111   0.296091
    30  H   -0.208691   0.357787
    31  H    0.118921   0.024934
    32  H   -0.406358   0.537762
    33  H   -0.270267   0.455772
    34  H   -0.313184   0.484924
    35  H    0.127609  -0.011322
    36  H    0.003141   0.088996
    37  H   -0.412084   0.599510
    38  H   -0.016945   0.175035
    39  H   -0.187640   0.355764
 Sum of Mulliken charges =  -1.00000   1.00000

 Dipole moment (field-independent basis, Debye):
    X=             -1.5142    Y=              1.4185    Z=             -2.4358  Tot=              3.1997
 Quadrupole moment (field-independent basis, Debye-Ang):
   XX=           -159.6891   YY=           -140.9739   ZZ=           -133.1518
   XY=             -0.9505   XZ=              4.3213   YZ=              1.2592

 Summary of Natural Population Analysis:

                                       Natural Population
                Natural  -----------------------------------------------
    Atom  No    Charge         Core      Valence    Rydberg      Total
 -----------------------------------------------------------------------
      C    1   -0.28280      0.99964     2.27785    0.00530     3.28280
      C    2   -0.01355      0.99962     2.00087    0.01306     3.01355
      C    3   -0.19483      0.99960     2.18654    0.00869     3.19483
      C    4   -0.12140      0.99957     2.11144    0.01040     3.12140
      C    5   -0.08573      0.99962     2.07441    0.01170     3.08573
      N    6   -0.34351      0.99975     2.83112    0.01265     3.84351
      C    7   -0.10318      0.99957     2.09210    0.01152     3.10318
      C    8   -0.28718      0.99965     2.28131    0.00622     3.28718
      C    9   -0.10259      0.99957     2.09120    0.01182     3.10259
      C   10   -0.19078      0.99960     2.18213    0.00905     3.19078
      C   11   -0.19011      0.99962     2.18250    0.00798     3.19011
      C   12   -0.18668      0.99963     2.17923    0.00783     3.18668
      C   13   -0.19165      0.99962     2.18394    0.00809     3.19165
      C   14   -0.19018      0.99961     2.18159    0.00899     3.19018
      H   15    0.09527      0.00000     0.40373    0.00100     0.40473
      H   16    0.09564      0.00000     0.40332    0.00104     0.40436
      H   17    0.09900      0.00000     0.39984    0.00117     0.40100
      H   18    0.09091      0.00000     0.40743    0.00166     0.40909
      H   19    0.10626      0.00000     0.39251    0.00123     0.39374
      H   20    0.09285      0.00000     0.40566    0.00149     0.40715
      H   21    0.09763      0.00000     0.39950    0.00287     0.40237
      H   22    0.08471      0.00000     0.41390    0.00139     0.41529
      H   23    0.09874      0.00000     0.40031    0.00095     0.40126
      H   24    0.17553      0.00000     0.32140    0.00308     0.32447
      H   25    0.09225      0.00000     0.40609    0.00166     0.40775
      H   26    0.09848      0.00000     0.40041    0.00110     0.40152
      H   27    0.09984      0.00000     0.39925    0.00091     0.40016
      H   28    0.09920      0.00000     0.39998    0.00082     0.40080
      H   29    0.09683      0.00000     0.40167    0.00150     0.40317
      H   30    0.09473      0.00000     0.40393    0.00134     0.40527
      H   31    0.10090      0.00000     0.39784    0.00127     0.39910
      H   32    0.09273      0.00000     0.40510    0.00217     0.40727
      H   33    0.09721      0.00000     0.40170    0.00110     0.40279
      H   34    0.09841      0.00000     0.40048    0.00111     0.40159
      H   35    0.09009      0.00000     0.40855    0.00137     0.40991
      H   36    0.09402      0.00000     0.40375    0.00223     0.40598
      H   37    0.09753      0.00000     0.40128    0.00119     0.40247
      H   38    0.09931      0.00000     0.39960    0.00109     0.40069
      H   39    0.09610      0.00000     0.40271    0.00119     0.40390
 =======================================================================
   * Total *   -0.00000     13.99467    40.83612    0.16921    55.00000

 Normal termination of Gaussian 16 at Thu Dec 10 10:34:34 2020.
