 Gaussian 16, Revision A.03,

 -----------------------------------------------------------
 # opt freq B3LYP/6-31G(d) empiricaldispersion=gd3bj scf=xqc
 -----------------------------------------------------------

 -------------------------------
 CID_148652247_JID_2948_neutraal
 -------------------------------
 Symbolic Z-matrix:
 Charge =  0 Multiplicity = 1

 SCF Done:  E(RB3LYP) =  -558.463511691     A.U. after   15 cycles
 SCF Done:  E(RB3LYP) =  -558.466741044     A.U. after   12 cycles
 SCF Done:  E(RB3LYP) =  -558.467168536     A.U. after   11 cycles
 SCF Done:  E(RB3LYP) =  -558.467480337     A.U. after   11 cycles
 SCF Done:  E(RB3LYP) =  -558.467650013     A.U. after   11 cycles
 SCF Done:  E(RB3LYP) =  -558.467714959     A.U. after   10 cycles
 SCF Done:  E(RB3LYP) =  -558.467948131     A.U. after   10 cycles
 SCF Done:  E(RB3LYP) =  -558.468214051     A.U. after   12 cycles
 SCF Done:  E(RB3LYP) =  -558.468240474     A.U. after    9 cycles
 SCF Done:  E(RB3LYP) =  -558.468245267     A.U. after    8 cycles
 SCF Done:  E(RB3LYP) =  -558.468245643     A.U. after   10 cycles
 SCF Done:  E(RB3LYP) =  -558.468248516     A.U. after    9 cycles
 SCF Done:  E(RB3LYP) =  -558.468248578     A.U. after    7 cycles
 SCF Done:  E(RB3LYP) =  -558.468248652     A.U. after    7 cycles
 SCF Done:  E(RB3LYP) =  -558.468248707     A.U. after    7 cycles
 Optimization completed.
    -- Stationary point found.
 Normal termination of Gaussian 16 at Wed Dec  9 18:35:59 2020.

 --------------------------------------------------------------------
 #N Geom=AllCheck Guess=TCheck SCRF=Check GenChk RB3LYP/6-31G(d) Freq
 --------------------------------------------------------------------

 Structure from the checkpoint file:  "JID_2948.chk"
 -------------------------------
 CID_148652247_JID_2948_neutraal
 -------------------------------
 Charge =  0 Multiplicity = 1

 SCF Done:  E(RB3LYP) =  -558.468248707     A.U. after    1 cycles

  Exact polarizability: 118.567  -0.358 100.898  -3.230  -1.318  88.958
 Approx polarizability: 153.364   2.782 147.204  -9.318 -11.906 134.520

                      1                      2                      3
                      A                      A                      A
 Frequencies --     55.8483                85.3296               110.3858
 Red. masses --      3.1610                 2.8869                 4.3619
 Frc consts  --      0.0058                 0.0124                 0.0313
 IR Inten    --      1.0899                 0.1093                 1.1006

                      4                      5                      6
                      A                      A                      A
 Frequencies --    150.9590               212.1433               222.9642
 Red. masses --      3.0106                 1.2361                 1.3211
 Frc consts  --      0.0404                 0.0328                 0.0387
 IR Inten    --      0.3483                 0.1578                 1.6625

                      7                      8                      9
                      A                      A                      A
 Frequencies --    241.8035               252.5165               253.5572
 Red. masses --      2.0939                 1.4094                 2.0875
 Frc consts  --      0.0721                 0.0529                 0.0791
 IR Inten    --      1.3896                 2.6063                 2.2586

                     10                     11                     12
                      A                      A                      A
 Frequencies --    277.6130               283.9174               321.1718
 Red. masses --      2.7750                 1.2848                 1.7284
 Frc consts  --      0.1260                 0.0610                 0.1050
 IR Inten    --      1.7879                 0.2255                 0.5996

                     13                     14                     15
                      A                      A                      A
 Frequencies --    347.5772               392.2657               423.8912
 Red. masses --      2.6212                 2.2124                 2.8580
 Frc consts  --      0.1866                 0.2006                 0.3026
 IR Inten    --      0.4593                 0.6644                 0.5553

                     16                     17                     18
                      A                      A                      A
 Frequencies --    468.3284               479.9764               510.9097
 Red. masses --      3.2709                 3.8514                 3.2088
 Frc consts  --      0.4227                 0.5228                 0.4935
 IR Inten    --      2.2232                 5.1053                 6.5630

                     19                     20                     21
                      A                      A                      A
 Frequencies --    566.4718               605.8507               670.7793
 Red. masses --      4.0734                 3.3334                 3.4944
 Frc consts  --      0.7701                 0.7209                 0.9264
 IR Inten    --      6.6024                 2.1195                 1.9623

                     22                     23                     24
                      A                      A                      A
 Frequencies --    755.9118               763.5243               818.3954
 Red. masses --      5.1618                 4.9213                 2.2989
 Frc consts  --      1.7378                 1.6904                 0.9072
 IR Inten    --     18.6344                 9.1093                 0.8727

                     25                     26                     27
                      A                      A                      A
 Frequencies --    886.3902               920.5901               946.9418
 Red. masses --      2.5339                 2.2721                 1.1740
 Frc consts  --      1.1730                 1.1345                 0.6203
 IR Inten    --      6.8929                 3.6619                 2.1924

                     28                     29                     30
                      A                      A                      A
 Frequencies --    962.8653               964.4569               994.1953
 Red. masses --      1.5277                 1.9076                 1.9782
 Frc consts  --      0.8345                 1.0455                 1.1520
 IR Inten    --      0.3877                 2.1950                 9.3953

                     31                     32                     33
                      A                      A                      A
 Frequencies --   1020.7441              1030.8815              1069.8753
 Red. masses --      1.4547                 1.5975                 1.9653
 Frc consts  --      0.8930                 1.0002                 1.3254
 IR Inten    --      7.5647                 9.6128                20.0364

                     34                     35                     36
                      A                      A                      A
 Frequencies --   1108.4004              1116.0200              1147.1695
 Red. masses --      2.0991                 3.0214                 2.1985
 Frc consts  --      1.5194                 2.2172                 1.7046
 IR Inten    --     31.8315                 5.4827                55.6558

                     37                     38                     39
                      A                      A                      A
 Frequencies --   1167.1875              1173.0867              1182.8709
 Red. masses --      2.1562                 2.1476                 2.1461
 Frc consts  --      1.7307                 1.7413                 1.7692
 IR Inten    --      4.2221                 5.7085                31.0016

                     40                     41                     42
                      A                      A                      A
 Frequencies --   1225.6575              1259.6331              1281.2072
 Red. masses --      2.0785                 2.8892                 1.5422
 Frc consts  --      1.8397                 2.7009                 1.4915
 IR Inten    --      2.9489               120.3282                75.3640

                     43                     44                     45
                      A                      A                      A
 Frequencies --   1300.7653              1343.9278              1372.5281
 Red. masses --      1.6351                 1.5731                 1.3307
 Frc consts  --      1.6300                 1.6740                 1.4770
 IR Inten    --    120.8833                 0.9522                 8.3114

                     46                     47                     48
                      A                      A                      A
 Frequencies --   1385.1193              1396.1014              1403.2145
 Red. masses --      1.5244                 1.4635                 1.2965
 Frc consts  --      1.7231                 1.6806                 1.5040
 IR Inten    --     16.2975                17.5045                64.9997

                     49                     50                     51
                      A                      A                      A
 Frequencies --   1421.2822              1423.5869              1439.1667
 Red. masses --      1.2756                 1.3267                 1.2533
 Frc consts  --      1.5182                 1.5842                 1.5294
 IR Inten    --     13.9777                24.8507                34.3446

                     52                     53                     54
                      A                      A                      A
 Frequencies --   1440.6780              1453.5839              1487.2974
 Red. masses --      1.2558                 1.2687                 1.6821
 Frc consts  --      1.5357                 1.5794                 2.1923
 IR Inten    --     17.9918                 9.4733                71.1391

                     55                     56                     57
                      A                      A                      A
 Frequencies --   1508.8752              1519.8735              1523.8993
 Red. masses --      1.0428                 1.0485                 1.0508
 Frc consts  --      1.3988                 1.4270                 1.4377
 IR Inten    --      0.1085                 2.0092                13.9917

                     58                     59                     60
                      A                      A                      A
 Frequencies --   1528.5730              1534.3404              1534.9358
 Red. masses --      1.0572                 1.0564                 1.0734
 Frc consts  --      1.4553                 1.4652                 1.4900
 IR Inten    --      4.9636                11.2161                 9.1375

                     61                     62                     63
                      A                      A                      A
 Frequencies --   1539.3074              1548.4153              1553.6302
 Red. masses --      1.0574                 1.0736                 1.0586
 Frc consts  --      1.4762                 1.5166                 1.5054
 IR Inten    --      4.3402                10.5958                 6.0302

                     64                     65                     66
                      A                      A                      A
 Frequencies --   1808.9149              2988.2571              3036.5215
 Red. masses --     11.0553                 1.0842                 1.0695
 Frc consts  --     21.3137                 5.7041                 5.8104
 IR Inten    --    421.2100                31.7635                30.7792

                     67                     68                     69
                      A                      A                      A
 Frequencies --   3054.3863              3055.7357              3060.0838
 Red. masses --      1.0818                 1.0403                 1.0425
 Frc consts  --      5.9461                 5.7230                 5.7514
 IR Inten    --     40.4546                36.4068                19.1599

                     70                     71                     72
                      A                      A                      A
 Frequencies --   3063.2838              3066.5133              3075.6864
 Red. masses --      1.0390                 1.0401                 1.0781
 Frc consts  --      5.7442                 5.7625                 6.0089
 IR Inten    --      6.2842                19.7577                33.4162

                     73                     74                     75
                      A                      A                      A
 Frequencies --   3116.6037              3122.5506              3126.0876
 Red. masses --      1.1022                 1.1014                 1.0988
 Frc consts  --      6.3077                 6.3274                 6.3266
 IR Inten    --     22.5558                58.0631                 6.0821

                     76                     77                     78
                      A                      A                      A
 Frequencies --   3130.1137              3132.6952              3147.6421
 Red. masses --      1.0994                 1.0981                 1.1030
 Frc consts  --      6.3466                 6.3494                 6.4387
 IR Inten    --     43.2330                27.8221                24.3626

                     79                     80                     81
                      A                      A                      A
 Frequencies --   3151.9803              3167.8417              3172.7136
 Red. masses --      1.1027                 1.0999                 1.0988
 Frc consts  --      6.4546                 6.5032                 6.5165
 IR Inten    --     19.6706                 2.5380                11.8515

 - Thermochemistry -
 -------------------
 Temperature   298.150 Kelvin.  Pressure   1.00000 Atm.
 Atom     1 has atomic number  6 and mass  12.00000

 Molecular mass:   171.12593 amu.
 Principal axes and moments of inertia in atomic units:
                           1         2         3
     Eigenvalues --  1330.783072203.197332821.89162
           X            0.99995  -0.00213   0.00935
           Y            0.00171   0.99900   0.04460
           Z           -0.00943  -0.04458   0.99896
 This molecule is an asymmetric top.
 Rotational symmetry number  1.
 Warning -- assumption of classical behavior for rotation
           may cause significant error
 Rotational temperatures (Kelvin)      0.06508     0.03931     0.03069
 Rotational constants (GHZ):           1.35615     0.81915     0.63955
 Zero-point vibrational energy     681075.8 (Joules/Mol)
                                  162.78102 (Kcal/Mol)
 Warning -- explicit consideration of  20 degrees of freedom as
           vibrations may cause significant error
 Vibrational temperatures:     80.35   122.77   158.82   217.20   305.23
          (Kelvin)            320.80   347.90   363.31   364.81   399.42
                              408.49   462.09   500.09   564.38   609.88
                              673.82   690.58   735.09   815.03   871.68
                              965.10  1087.59  1098.54  1177.49  1275.32
                             1324.52  1362.44  1385.35  1387.64  1430.43
                             1468.62  1483.21  1539.31  1594.74  1605.70
                             1650.52  1679.32  1687.81  1701.89  1763.45
                             1812.33  1843.37  1871.51  1933.61  1974.76
                             1992.88  2008.68  2018.91  2044.91  2048.22
                             2070.64  2072.81  2091.38  2139.89  2170.93
                             2186.76  2192.55  2199.28  2207.57  2208.43
                             2214.72  2227.82  2235.33  2602.63  4299.44
                             4368.88  4394.58  4396.52  4402.78  4407.38
                             4412.03  4425.23  4484.10  4492.65  4497.74
                             4503.54  4507.25  4528.75  4535.00  4557.82
                             4564.83

 Zero-point correction=                           0.259408 (Hartree/Particle)
 Thermal correction to Energy=                    0.272047
 Thermal correction to Enthalpy=                  0.272992
 Thermal correction to Gibbs Free Energy=         0.221491
 Sum of electronic and zero-point Energies=           -558.208841
 Sum of electronic and thermal Energies=              -558.196201
 Sum of electronic and thermal Enthalpies=            -558.195257
 Sum of electronic and thermal Free Energies=         -558.246758

                     E (Thermal)             CV                S
                      KCal/Mol        Cal/Mol-Kelvin    Cal/Mol-Kelvin
 Total                  170.712             48.617            108.392
 Electronic               0.000              0.000              0.000
 Translational            0.889              2.981             41.319
 Rotational               0.889              2.981             30.493
 Vibrational            168.935             42.656             36.580
 Vibration     1          0.596              1.975              4.599
 Vibration     2          0.601              1.959              3.764
 Vibration     3          0.606              1.941              3.262
 Vibration     4          0.618              1.902              2.660
 Vibration     5          0.643              1.822              2.025
 Vibration     6          0.649              1.806              1.935
 Vibration     7          0.658              1.776              1.790
 Vibration     8          0.664              1.759              1.713
 Vibration     9          0.665              1.757              1.706
 Vibration    10          0.679              1.715              1.548
 Vibration    11          0.682              1.703              1.510
 Vibration    12          0.707              1.633              1.304
 Vibration    13          0.725              1.580              1.177
 Vibration    14          0.760              1.487              0.992
 Vibration    15          0.786              1.418              0.879
 Vibration    16          0.826              1.320              0.742
 Vibration    17          0.836              1.294              0.710
 Vibration    18          0.866              1.226              0.631
 Vibration    19          0.922              1.104              0.511
 Vibration    20          0.964              1.019              0.440

 Optimization completed.
    -- Stationary point found.
 Normal termination of Gaussian 16 at Wed Dec  9 18:43:23 2020.

 ----------------------------------------------------------------------
 # B3LYP/6-311++G(d,p) empiricaldispersion=gd3bj scf=xqc pop=npa geom=c
 heck
 ----------------------------------------------------------------------

 ---------------------------------------
 CID_148652247_JID_2948_Energie_neutraal
 ---------------------------------------
 Structure from the checkpoint file:  "JID_2948.chk"
 Charge =  0 Multiplicity = 1

 SCF Done:  E(RB3LYP) =  -558.627204442     A.U. after   14 cycles
 Normal termination of Gaussian 16 at Wed Dec  9 18:46:04 2020.

 ----------------------------------------------------------------------
 # B3LYP/6-311++G(d,p) empiricaldispersion=gd3bj scf=xqc pop=npa geom=c
 heck
 ----------------------------------------------------------------------

 -------------------------------------
 CID_148652247_JID_2948_Energie_kation
 -------------------------------------
 Structure from the checkpoint file:  "JID_2948.chk"
 Charge =  1 Multiplicity = 2

 SCF Done:  E(UB3LYP) =  -558.308846512     A.U. after   22 cycles
 Normal termination of Gaussian 16 at Wed Dec  9 18:51:33 2020.
 Gaussian 16:  ES64L-G16RevA.03 25-Dec-2016

 ----------------------------------------------------------------------
 # B3LYP/6-311++G(d,p) empiricaldispersion=gd3bj scf=xqc pop=npa geom=c
 heck
 ----------------------------------------------------------------------

 ------------------------------------
 CID_148652247_JID_2948_Energie_anion
 ------------------------------------
 Structure from the checkpoint file:  "JID_2948.chk"
 Charge = -1 Multiplicity = 2

                         Standard orientation:
 ---------------------------------------------------------------------
 Center     Atomic      Atomic             Coordinates (Angstroms)
 Number     Number       Type             X           Y           Z
 ---------------------------------------------------------------------
      1          6           0        2.668336    0.476815    0.915177
      2          6           0        2.039986    0.303188   -0.474784
      3          6           0        1.860044   -1.169904   -0.801000
      4          8           0        0.994745   -1.764685    0.170766
      5          6           0       -0.227266   -1.182879    0.361414
      6          8           0       -1.077606   -1.806888    0.968072
      7          7           0       -0.415290    0.073242   -0.164491
      8          6           0        0.658086    0.964773   -0.653374
      9          6           0        0.595919    2.351803   -0.000869
     10          6           0       -1.809021    0.562960   -0.301349
     11          6           0       -2.680540   -0.409290   -1.104625
     12          6           0       -2.432423    0.931380    1.048774
     13          1           0        3.600890   -0.094805    0.975673
     14          1           0        2.006416    0.112618    1.705750
     15          1           0        2.906015    1.523649    1.121536
     16          1           0        2.709716    0.750487   -1.220563
     17          1           0        1.436050   -1.307399   -1.805364
     18          1           0        2.797002   -1.728077   -0.736558
     19          1           0        0.500023    1.095743   -1.735349
     20          1           0        1.428680    2.964816   -0.363583
     21          1           0       -0.329925    2.878516   -0.244490
     22          1           0        0.667323    2.277177    1.087296
     23          1           0       -1.721664    1.474902   -0.900095
     24          1           0       -2.833737   -1.340903   -0.558144
     25          1           0       -3.656078    0.049353   -1.300062
     26          1           0       -2.212120   -0.638950   -2.068347
     27          1           0       -1.817200    1.667819    1.575799
     28          1           0       -3.429173    1.361778    0.898572
     29          1           0       -2.521021    0.040108    1.672478
 ---------------------------------------------------------------------

 SCF Done:  E(UB3LYP) =  -558.618054273     A.U. after   27 cycles

 The electronic state is 2-A.
 Alpha  occ. eigenvalues --  -19.05162 -18.98127 -14.23754 -10.20905 -10.12379
 Alpha  occ. eigenvalues --  -10.11515 -10.11287 -10.08129 -10.06098 -10.06067
 Alpha  occ. eigenvalues --  -10.05862 -10.05789  -0.99782  -0.91016  -0.83702
 Alpha  occ. eigenvalues --   -0.71792  -0.67743  -0.63945  -0.60230  -0.58974
 Alpha  occ. eigenvalues --   -0.55191  -0.53254  -0.48572  -0.43442  -0.41424
 Alpha  occ. eigenvalues --   -0.40133  -0.37481  -0.36686  -0.35616  -0.34203
 Alpha  occ. eigenvalues --   -0.33075  -0.32188  -0.31121  -0.29765  -0.29314
 Alpha  occ. eigenvalues --   -0.28768  -0.28415  -0.28097  -0.27277  -0.25166
 Alpha  occ. eigenvalues --   -0.24626  -0.24161  -0.23482  -0.21981  -0.18766
 Alpha  occ. eigenvalues --   -0.17024  -0.14261   0.04291
 Alpha virt. eigenvalues --    0.06848   0.07662   0.08156   0.09361   0.09564
 Alpha virt. eigenvalues --    0.09867   0.10685   0.11722   0.12019   0.12362
 Alpha virt. eigenvalues --    0.13086   0.13558   0.13613   0.13828   0.14968

  Beta  occ. eigenvalues --  -19.05164 -18.98117 -14.23756 -10.20897 -10.12354
  Beta  occ. eigenvalues --  -10.11491 -10.11273 -10.08106 -10.06058 -10.06040
  Beta  occ. eigenvalues --  -10.05851 -10.05771  -0.99773  -0.91003  -0.83687
  Beta  occ. eigenvalues --   -0.71742  -0.67713  -0.63897  -0.60181  -0.58942
  Beta  occ. eigenvalues --   -0.55132  -0.53207  -0.48525  -0.43398  -0.41360
  Beta  occ. eigenvalues --   -0.40100  -0.37447  -0.36622  -0.35570  -0.34172
  Beta  occ. eigenvalues --   -0.33040  -0.32158  -0.31078  -0.29739  -0.29273
  Beta  occ. eigenvalues --   -0.28735  -0.28391  -0.28066  -0.27244  -0.25138
  Beta  occ. eigenvalues --   -0.24584  -0.24107  -0.23439  -0.21947  -0.18742
  Beta  occ. eigenvalues --   -0.17011  -0.14238
  Beta virt. eigenvalues --    0.06846   0.07714   0.08279   0.09006   0.09683
  Beta virt. eigenvalues --    0.10049   0.10764   0.11149   0.12065   0.12322
  Beta virt. eigenvalues --    0.12566   0.13463   0.13901   0.13970   0.14159

 Mulliken charges and spin densities:
               1          2
     1  C    0.786415  -1.397917
     2  C   -0.986786   1.072217
     3  C    0.742161  -1.202810
     4  O   -0.087743   0.004836
     5  C    0.293701  -0.172906
     6  O   -0.337291   0.001515
     7  N    0.099284   0.055691
     8  C    0.149024  -0.159937
     9  C    1.181060  -1.841661
    10  C   -0.396267   0.370266
    11  C    0.133602  -0.689402
    12  C    0.038400  -0.538108
    13  H   -0.058930   0.194929
    14  H    0.090095   0.112977
    15  H   -0.163713   0.315354
    16  H   -1.048427   1.291450
    17  H   -0.058226   0.208281
    18  H   -0.293884   0.502911
    19  H   -0.387989   0.627849
    20  H   -0.474349   0.647515
    21  H   -0.301435   0.456745
    22  H    0.127882   0.041930
    23  H   -0.245175   0.408303
    24  H    0.146619   0.021443
    25  H   -0.072010   0.204069
    26  H   -0.078226   0.225295
    27  H    0.107766   0.025090
    28  H   -0.057343   0.184097
    29  H    0.151786   0.029979
 Sum of Mulliken charges =  -1.00000   1.00000

 Dipole moment (field-independent basis, Debye):
    X=             -3.3997    Y=             -2.2630    Z=              3.5012  Tot=              5.3794
 Quadrupole moment (field-independent basis, Debye-Ang):
   XX=           -129.7147   YY=           -123.3565   ZZ=           -112.7048
   XY=             -6.8176   XZ=              6.5158   YZ=             10.9905

 Summary of Natural Population Analysis:

                                       Natural Population
                Natural  -----------------------------------------------
    Atom  No    Charge         Core      Valence    Rydberg      Total
 -----------------------------------------------------------------------
      C    1   -0.28966      0.99964     2.28264    0.00738     3.28966
      C    2   -0.12999      0.99958     2.11729    0.01312     3.12999
      C    3   -0.00942      0.99954     1.99596    0.01392     3.00942
      O    4   -0.28495      0.99986     3.27733    0.00776     4.28495
      C    5    0.46970      0.99965     1.50520    0.02545     2.53030
      O    6   -0.33073      0.99987     3.32592    0.00493     4.33073
      N    7   -0.27790      0.99962     2.76683    0.01146     3.77790
      C    8    0.00325      0.99956     1.98270    0.01448     2.99675
      C    9   -0.29141      0.99964     2.28536    0.00640     3.29141
      C   10   -0.00561      0.99961     1.99320    0.01281     3.00561
      C   11   -0.29112      0.99964     2.28544    0.00605     3.29112
      C   12   -0.29147      0.99963     2.28591    0.00593     3.29147
      H   13    0.10203      0.00000     0.39702    0.00095     0.39797
      H   14    0.10041      0.00000     0.39834    0.00125     0.39959
      H   15    0.10365      0.00000     0.39548    0.00088     0.39635
      H   16    0.11357      0.00000     0.37964    0.00679     0.38643
      H   17    0.08947      0.00000     0.40894    0.00159     0.41053
      H   18    0.09480      0.00000     0.40387    0.00133     0.40520
      H   19    0.09918      0.00000     0.39661    0.00421     0.40082
      H   20    0.10871      0.00000     0.38949    0.00179     0.39129
      H   21    0.10294      0.00000     0.39578    0.00129     0.39706
      H   22    0.09938      0.00000     0.39945    0.00117     0.40062
      H   23    0.09830      0.00000     0.39925    0.00245     0.40170
      H   24    0.11029      0.00000     0.38877    0.00094     0.38971
      H   25    0.09784      0.00000     0.40145    0.00071     0.40216
      H   26    0.10140      0.00000     0.39761    0.00099     0.39860
      H   27    0.09968      0.00000     0.39952    0.00080     0.40032
      H   28    0.09626      0.00000     0.40306    0.00068     0.40374
      H   29    0.11140      0.00000     0.38776    0.00084     0.38860
 =======================================================================
   * Total *    0.00000     11.99584    34.84581    0.15835    47.00000

 Normal termination of Gaussian 16 at Wed Dec  9 18:58:17 2020.
