 Gaussian 16, Revision A.03,

 -----------------------------------------------------------
 # opt freq B3LYP/6-31G(d) empiricaldispersion=gd3bj scf=xqc
 -----------------------------------------------------------

 ------------------------------
 CID_53375893_JID_7395_neutraal
 ------------------------------
 Symbolic Z-matrix:
 Charge =  0 Multiplicity = 1

 SCF Done:  E(RB3LYP) =  -765.188898055     A.U. after   15 cycles
 SCF Done:  E(RB3LYP) =  -765.194599455     A.U. after   13 cycles
 SCF Done:  E(RB3LYP) =  -765.195643997     A.U. after   12 cycles
 SCF Done:  E(RB3LYP) =  -765.196135489     A.U. after   13 cycles
 SCF Done:  E(RB3LYP) =  -765.197025280     A.U. after   12 cycles
 SCF Done:  E(RB3LYP) =  -765.197797347     A.U. after   13 cycles
 SCF Done:  E(RB3LYP) =  -765.198505127     A.U. after   14 cycles
 SCF Done:  E(RB3LYP) =  -765.199505455     A.U. after   13 cycles
 SCF Done:  E(RB3LYP) =  -765.199178234     A.U. after   12 cycles
 SCF Done:  E(RB3LYP) =  -765.199976551     A.U. after   13 cycles
 SCF Done:  E(RB3LYP) =  -765.200757908     A.U. after   10 cycles
 SCF Done:  E(RB3LYP) =  -765.200778863     A.U. after   10 cycles
 SCF Done:  E(RB3LYP) =  -765.200785888     A.U. after   10 cycles
 SCF Done:  E(RB3LYP) =  -765.200791766     A.U. after   10 cycles
 SCF Done:  E(RB3LYP) =  -765.200794406     A.U. after   10 cycles
 SCF Done:  E(RB3LYP) =  -765.200794861     A.U. after    8 cycles
 Optimization completed.
    -- Stationary point found.
 Normal termination of Gaussian 16 at Fri Dec 11 12:11:21 2020.

 --------------------------------------------------------------------
 #N Geom=AllCheck Guess=TCheck SCRF=Check GenChk RB3LYP/6-31G(d) Freq
 --------------------------------------------------------------------

 Structure from the checkpoint file:  "JID_7395.chk"
 ------------------------------
 CID_53375893_JID_7395_neutraal
 ------------------------------
 Charge =  0 Multiplicity = 1

 SCF Done:  E(RB3LYP) =  -765.200794861     A.U. after    1 cycles

  Exact polarizability: 304.831  -5.745 147.334  -2.963  -2.671  61.376
 Approx polarizability: 423.712 -10.168 281.764  -7.718  -3.985 100.019

                      1                      2                      3
                      A                      A                      A
 Frequencies --     29.0474                53.6544                89.1356
 Red. masses --      5.6015                 4.9402                 4.7937
 Frc consts  --      0.0028                 0.0084                 0.0224
 IR Inten    --      0.5268                 0.9252                 0.7310

                      4                      5                      6
                      A                      A                      A
 Frequencies --    108.5719               132.5335               164.2031
 Red. masses --      5.1381                 4.4882                 3.5176
 Frc consts  --      0.0357                 0.0464                 0.0559
 IR Inten    --      2.7669                 0.6062                 0.8653

                      7                      8                      9
                      A                      A                      A
 Frequencies --    235.1774               251.6742               264.1171
 Red. masses --      5.3005                 7.1063                 5.0575
 Frc consts  --      0.1727                 0.2652                 0.2079
 IR Inten    --      0.1725                 2.0761                 0.2604

                     10                     11                     12
                      A                      A                      A
 Frequencies --    309.7662               315.2350               419.7682
 Red. masses --      5.3853                 6.9649                 3.8206
 Frc consts  --      0.3045                 0.4078                 0.3966
 IR Inten    --      2.6613                 8.0957                 3.6255

                     13                     14                     15
                      A                      A                      A
 Frequencies --    453.0292               478.6300               498.4839
 Red. masses --      3.6134                 7.3339                 5.1613
 Frc consts  --      0.4369                 0.9899                 0.7556
 IR Inten    --      0.1146                 6.9274                 8.1525

                     16                     17                     18
                      A                      A                      A
 Frequencies --    534.9123               557.5661               607.6311
 Red. masses --      3.8132                 6.5500                 3.1638
 Frc consts  --      0.6428                 1.1997                 0.6882
 IR Inten    --      4.9222                10.7578                 8.7814

                     19                     20                     21
                      A                      A                      A
 Frequencies --    627.3095               670.1393               687.6737
 Red. masses --      7.1544                 4.2894                 5.1617
 Frc consts  --      1.6588                 1.1349                 1.4382
 IR Inten    --     34.8429                 1.8320                 4.3874

                     22                     23                     24
                      A                      A                      A
 Frequencies --    725.9496               736.5311               759.5027
 Red. masses --      5.5620                 4.9029                 1.2829
 Frc consts  --      1.7270                 1.5670                 0.4360
 IR Inten    --      1.3798                13.3374                46.8243

                     25                     26                     27
                      A                      A                      A
 Frequencies --    768.5394               774.0268               795.9680
 Red. masses --      2.4756                 3.2713                 2.1190
 Frc consts  --      0.8615                 1.1547                 0.7910
 IR Inten    --     43.4651                17.2877                 6.2222

                     28                     29                     30
                      A                      A                      A
 Frequencies --    815.7582               853.3057               875.0409
 Red. masses --      1.3566                 4.7450                 1.3125
 Frc consts  --      0.5319                 2.0356                 0.5921
 IR Inten    --      8.0784                 4.5929                 0.1839

                     31                     32                     33
                      A                      A                      A
 Frequencies --    882.7109               908.5637               943.7190
 Red. masses --      1.5114                 6.1797                 3.7572
 Frc consts  --      0.6938                 3.0056                 1.9715
 IR Inten    --      2.8263                14.2549                 8.4535

                     34                     35                     36
                      A                      A                      A
 Frequencies --    964.0362               972.7813               991.1117
 Red. masses --      1.5809                 1.3777                 1.2896
 Frc consts  --      0.8656                 0.7681                 0.7464
 IR Inten    --     17.2695                 6.5381                 0.3123

                     37                     38                     39
                      A                      A                      A
 Frequencies --    998.6189              1026.5244              1054.6685
 Red. masses --      3.5366                 1.7393                 1.8141
 Frc consts  --      2.0779                 1.0799                 1.1889
 IR Inten    --     26.0501                41.9664                61.1694

                     40                     41                     42
                      A                      A                      A
 Frequencies --   1061.4043              1080.4054              1133.8247
 Red. masses --      1.7910                 3.3216                 2.1525
 Frc consts  --      1.1888                 2.2844                 1.6303
 IR Inten    --     14.0794                30.5415                42.2166

                     43                     44                     45
                      A                      A                      A
 Frequencies --   1140.6720              1159.8684              1184.0629
 Red. masses --      2.3016                 1.8809                 1.1777
 Frc consts  --      1.7644                 1.4908                 0.9728
 IR Inten    --      4.3692                25.8657                10.8944

                     46                     47                     48
                      A                      A                      A
 Frequencies --   1196.9579              1229.9961              1258.6189
 Red. masses --      2.1192                 3.2245                 2.7844
 Frc consts  --      1.7888                 2.8742                 2.5988
 IR Inten    --     30.3491                 3.9822                31.1668

                     49                     50                     51
                      A                      A                      A
 Frequencies --   1279.1422              1290.5065              1303.3701
 Red. masses --      1.9609                 1.4711                 1.3653
 Frc consts  --      1.8904                 1.4435                 1.3665
 IR Inten    --     27.5597                35.7967                68.7314

                     52                     53                     54
                      A                      A                      A
 Frequencies --   1346.6947              1376.0830              1387.6873
 Red. masses --      2.7934                 6.1235                 1.9459
 Frc consts  --      2.9849                 6.8319                 2.2078
 IR Inten    --    371.7341               114.1597                 1.6271

                     55                     56                     57
                      A                      A                      A
 Frequencies --   1423.4686              1448.5975              1509.3324
 Red. masses --      1.7745                 2.1525                 2.0582
 Frc consts  --      2.1185                 2.6613                 2.7626
 IR Inten    --     13.2992                32.0740               107.1176

                     58                     59                     60
                      A                      A                      A
 Frequencies --   1515.8597              1526.2270              1537.3554
 Red. masses --      2.0984                 3.4382                 1.6195
 Frc consts  --      2.8409                 4.7186                 2.2552
 IR Inten    --     67.4178                35.5796                55.2355

                     61                     62                     63
                      A                      A                      A
 Frequencies --   1617.5928              1634.5516              1666.0349
 Red. masses --      5.4797                 6.6263                 7.1552
 Frc consts  --      8.4479                10.4308                11.7015
 IR Inten    --      7.1943                10.1732                66.2495

                     64                     65                     66
                      A                      A                      A
 Frequencies --   1670.0977              1750.9544              2988.5878
 Red. masses --      7.3399                11.2235                 1.0724
 Frc consts  --     12.0621                20.2735                 5.6433
 IR Inten    --    439.9738               131.4955                37.6642

                     67                     68                     69
                      A                      A                      A
 Frequencies --   3116.2065              3192.1738              3193.4743
 Red. masses --      1.0907                 1.0866                 1.0876
 Frc consts  --      6.2401                 6.5240                 6.5348
 IR Inten    --     11.9484                 5.4335                 0.6249

                     70                     71                     72
                      A                      A                      A
 Frequencies --   3208.5394              3220.8336              3225.7723
 Red. masses --      1.0903                 1.0933                 1.0952
 Frc consts  --      6.6135                 6.6821                 6.7145
 IR Inten    --     16.4991                 8.8547                14.9804

                     73                     74                     75
                      A                      A                      A
 Frequencies --   3273.1933              3291.6982              3304.3921
 Red. masses --      1.0908                 1.0963                 1.1055
 Frc consts  --      6.8858                 6.9986                 7.1120
 IR Inten    --      5.2649                 0.9417                 0.2429

 - Thermochemistry -
 -------------------
 Temperature   298.150 Kelvin.  Pressure   1.00000 Atm.
 Atom     1 has atomic number  6 and mass  12.00000

 Molecular mass:   226.06299 amu.
 Principal axes and moments of inertia in atomic units:
                           1         2         3
     Eigenvalues --  1202.192777837.772718944.27754
           X            0.99999  -0.00419   0.00057
           Y            0.00419   0.99997  -0.00719
           Z           -0.00054   0.00719   0.99997
 This molecule is an asymmetric top.
 Rotational symmetry number  1.
 Warning -- assumption of classical behavior for rotation
           may cause significant error
 Rotational temperatures (Kelvin)      0.07205     0.01105     0.00968
 Rotational constants (GHZ):           1.50121     0.23026     0.20178
 Zero-point vibrational energy     544778.5 (Joules/Mol)
                                  130.20519 (Kcal/Mol)
 Warning -- explicit consideration of  18 degrees of freedom as
           vibrations may cause significant error
 Vibrational temperatures:     41.79    77.20   128.25   156.21   190.69
          (Kelvin)            236.25   338.37   362.10   380.01   445.68
                              453.55   603.95   651.81   688.64   717.21
                              769.62   802.21   874.25   902.56   964.18
                              989.41  1044.48  1059.70  1092.76  1105.76
                             1113.65  1145.22  1173.69  1227.72  1258.99
                             1270.02  1307.22  1357.80  1387.03  1399.62
                             1425.99  1436.79  1476.94  1517.43  1527.12
                             1554.46  1631.32  1641.17  1668.79  1703.60
                             1722.16  1769.69  1810.87  1840.40  1856.75
                             1875.26  1937.59  1979.88  1996.57  2048.05
                             2084.21  2171.59  2180.98  2195.90  2211.91
                             2327.36  2351.76  2397.05  2402.90  2519.23
                             4299.91  4483.53  4592.83  4594.70  4616.37
                             4634.06  4641.17  4709.40  4736.02  4754.28

 Zero-point correction=                           0.207495 (Hartree/Particle)
 Thermal correction to Energy=                    0.220422
 Thermal correction to Enthalpy=                  0.221366
 Thermal correction to Gibbs Free Energy=         0.166677
 Sum of electronic and zero-point Energies=           -764.993300
 Sum of electronic and thermal Energies=              -764.980373
 Sum of electronic and thermal Enthalpies=            -764.979429
 Sum of electronic and thermal Free Energies=         -765.034117

                     E (Thermal)             CV                S
                      KCal/Mol        Cal/Mol-Kelvin    Cal/Mol-Kelvin
 Total                  138.317             50.939            115.102
 Electronic               0.000              0.000              0.000
 Translational            0.889              2.981             42.149
 Rotational               0.889              2.981             32.799
 Vibrational            136.539             44.978             40.154
 Vibration     1          0.593              1.984              5.893
 Vibration     2          0.596              1.976              4.678
 Vibration     3          0.602              1.957              3.679
 Vibration     4          0.606              1.942              3.294
 Vibration     5          0.613              1.921              2.909
 Vibration     6          0.623              1.886              2.501
 Vibration     7          0.655              1.787              1.839
 Vibration     8          0.664              1.760              1.719
 Vibration     9          0.671              1.739              1.634
 Vibration    10          0.699              1.655              1.364
 Vibration    11          0.703              1.645              1.335
 Vibration    12          0.782              1.427              0.893
 Vibration    13          0.812              1.354              0.787
 Vibration    14          0.835              1.297              0.714
 Vibration    15          0.854              1.253              0.662
 Vibration    16          0.890              1.173              0.576
 Vibration    17          0.913              1.123              0.529
 Vibration    18          0.966              1.016              0.437

                           ! Non-Optimized Parameters !
 Normal termination of Gaussian 16 at Fri Dec 11 12:20:41 2020.

 ----------------------------------------------------------------------
 # B3LYP/6-311++G(d,p) empiricaldispersion=gd3bj scf=xqc pop=npa geom=c
 heck
 ----------------------------------------------------------------------

 --------------------------------------
 CID_53375893_JID_7395_Energie_neutraal
 --------------------------------------
 Structure from the checkpoint file:  "JID_7395.chk"
 Charge =  0 Multiplicity = 1

 SCF Done:  E(RB3LYP) =  -765.403204166     A.U. after   16 cycles
 Normal termination of Gaussian 16 at Fri Dec 11 12:25:17 2020.

 ----------------------------------------------------------------------
 # B3LYP/6-311++G(d,p) empiricaldispersion=gd3bj scf=xqc pop=npa geom=c
 heck
 ----------------------------------------------------------------------

 ------------------------------------
 CID_53375893_JID_7395_Energie_kation
 ------------------------------------
 Structure from the checkpoint file:  "JID_7395.chk"
 Charge =  1 Multiplicity = 2

 SCF Done:  E(UB3LYP) =  -765.114375677     A.U. after   25 cycles
 Normal termination of Gaussian 16 at Fri Dec 11 12:35:21 2020.
 Gaussian 16:  ES64L-G16RevA.03 25-Dec-2016

 ----------------------------------------------------------------------
 # B3LYP/6-311++G(d,p) empiricaldispersion=gd3bj scf=xqc pop=npa geom=c
 heck
 ----------------------------------------------------------------------

 -----------------------------------
 CID_53375893_JID_7395_Energie_anion
 -----------------------------------
 Structure from the checkpoint file:  "JID_7395.chk"
 Charge = -1 Multiplicity = 2

                         Standard orientation:
 ---------------------------------------------------------------------
 Center     Atomic      Atomic             Coordinates (Angstroms)
 Number     Number       Type             X           Y           Z
 ---------------------------------------------------------------------
      1          6           0        0.137766   -1.202928    0.243040
      2          6           0        0.381752    0.269495    0.062558
      3          6           0        1.609700    0.829365   -0.036882
      4          6           0        2.884661    0.179185    0.014616
      5          6           0        3.360236   -1.055386    0.410227
      6          6           0        4.772384   -1.038224    0.224154
      7          6           0        5.073874    0.200394   -0.265791
      8          8           0        3.953453    0.950423   -0.392889
      9          6           0       -0.798910    1.172824    0.068141
     10          8           0       -0.692021    2.397489    0.067442
     11          6           0       -2.112008    0.496808    0.061819
     12          6           0       -3.294713    1.242675    0.185917
     13          6           0       -4.533923    0.625447    0.109335
     14          6           0       -4.601459   -0.758777   -0.108787
     15          6           0       -3.444280   -1.517783   -0.237078
     16          6           0       -2.196289   -0.891762   -0.144363
     17          8           0       -1.096994   -1.675347   -0.309815
     18          1           0        0.910851   -1.791602   -0.256561
     19          1           0        0.150688   -1.466996    1.313478
     20          1           0        1.634942    1.909276   -0.163691
     21          1           0        2.779634   -1.864155    0.826744
     22          1           0        5.470036   -1.836040    0.434841
     23          1           0        5.995874    0.679208   -0.558174
     24          1           0       -3.197647    2.313461    0.332211
     25          1           0       -5.444745    1.207128    0.210542
     26          1           0       -5.568499   -1.249660   -0.174616
     27          1           0       -3.479391   -2.589131   -0.404119
 ---------------------------------------------------------------------

 SCF Done:  E(UB3LYP) =  -765.444064488     A.U. after   23 cycles

 The electronic state is 2-A.
 Alpha  occ. eigenvalues --  -19.06325 -19.03050 -18.92571 -10.11044 -10.10644
 Alpha  occ. eigenvalues --  -10.10413 -10.10392 -10.07820 -10.06217 -10.05596
 Alpha  occ. eigenvalues --  -10.05098 -10.05086 -10.04735 -10.04482 -10.04272
 Alpha  occ. eigenvalues --  -10.03156 -10.02670  -0.99196  -0.94893  -0.86533
 Alpha  occ. eigenvalues --   -0.73198  -0.69033  -0.67931  -0.64226  -0.63367
 Alpha  occ. eigenvalues --   -0.61737  -0.56330  -0.52001  -0.49505  -0.47745
 Alpha  occ. eigenvalues --   -0.46885  -0.44069  -0.42231  -0.40146  -0.37805
 Alpha  occ. eigenvalues --   -0.36582  -0.36100  -0.33910  -0.33702  -0.32257
 Alpha  occ. eigenvalues --   -0.31134  -0.30913  -0.28986  -0.28659  -0.27571
 Alpha  occ. eigenvalues --   -0.26637  -0.26519  -0.25787  -0.25113  -0.23747
 Alpha  occ. eigenvalues --   -0.22853  -0.20998  -0.18926  -0.17367  -0.16434
 Alpha  occ. eigenvalues --   -0.13339  -0.10912  -0.09586  -0.08950   0.01369
 Alpha virt. eigenvalues --    0.07624   0.08075   0.09137   0.09342   0.09810
 Alpha virt. eigenvalues --    0.10406   0.11340   0.11630   0.12339   0.12649
 Alpha virt. eigenvalues --    0.13263   0.13612   0.14152   0.15485   0.15947

  Beta  occ. eigenvalues --  -19.06180 -19.03035 -18.92072 -10.10970 -10.10654
  Beta  occ. eigenvalues --  -10.10454 -10.10258 -10.07588 -10.06288 -10.05444
  Beta  occ. eigenvalues --  -10.05147 -10.05110 -10.04544 -10.04355 -10.04298
  Beta  occ. eigenvalues --  -10.03108 -10.02356  -0.98963  -0.94841  -0.85646
  Beta  occ. eigenvalues --   -0.73054  -0.68750  -0.67622  -0.63975  -0.63168
  Beta  occ. eigenvalues --   -0.61525  -0.56051  -0.51501  -0.49304  -0.47568
  Beta  occ. eigenvalues --   -0.46651  -0.43897  -0.42109  -0.39910  -0.37616
  Beta  occ. eigenvalues --   -0.36431  -0.35927  -0.33729  -0.33138  -0.32120
  Beta  occ. eigenvalues --   -0.31029  -0.30806  -0.28846  -0.28497  -0.27355
  Beta  occ. eigenvalues --   -0.26387  -0.25997  -0.25584  -0.24618  -0.22950
  Beta  occ. eigenvalues --   -0.22403  -0.20304  -0.18741  -0.16627  -0.15276
  Beta  occ. eigenvalues --   -0.12458  -0.10350  -0.09103  -0.07765
  Beta virt. eigenvalues --    0.06775   0.07601   0.08060   0.09189   0.09762
  Beta virt. eigenvalues --    0.10380   0.10510   0.11583   0.11681   0.12331
  Beta virt. eigenvalues --    0.12641   0.13589   0.13989   0.14139   0.15519

 Mulliken charges and spin densities:
               1          2
     1  C   -0.753212  -0.070046
     2  C    0.929498   0.058055
     3  C   -0.179994   0.275242
     4  C   -0.482884  -0.047485
     5  C    0.446066   0.138677
     6  C   -0.683612  -0.044577
     7  C    0.084399   0.122447
     8  O   -0.025043   0.024957
     9  C   -0.744210   0.150489
    10  O   -0.371912   0.196545
    11  C    1.971127  -0.022569
    12  C    0.296071   0.140440
    13  C   -0.344290  -0.051339
    14  C   -0.253832   0.120577
    15  C   -0.528663  -0.025721
    16  C   -1.741684   0.039844
    17  O   -0.093672   0.017683
    18  H    0.160503   0.000005
    19  H    0.142656   0.025990
    20  H    0.222658  -0.017982
    21  H    0.143106  -0.011936
    22  H    0.124981   0.003752
    23  H    0.145875  -0.009126
    24  H    0.160795  -0.009395
    25  H    0.120220   0.002957
    26  H    0.115835  -0.009072
    27  H    0.139221   0.001587
 Sum of Mulliken charges =  -1.00000   1.00000

 Dipole moment (field-independent basis, Debye):
    X=              0.8191    Y=             -4.2626    Z=              0.6281  Tot=              4.3858
 Quadrupole moment (field-independent basis, Debye-Ang):
   XX=           -136.1994   YY=           -118.1587   ZZ=           -108.1011
   XY=             -1.0851   XZ=             -0.1829   YZ=             -1.6821

 Summary of Natural Population Analysis:

                                       Natural Population
                Natural  -----------------------------------------------
    Atom  No    Charge         Core      Valence    Rydberg      Total
 -----------------------------------------------------------------------
      C    1   -0.01474      0.99953     2.00547    0.00974     3.01474
      C    2   -0.05907      0.99948     2.05091    0.00868     3.05907
      C    3   -0.03365      0.99939     2.02485    0.00941     3.03365
      C    4    0.12836      0.99948     1.85926    0.01291     2.87164
      C    5   -0.11687      0.99952     2.10915    0.00819     3.11687
      C    6   -0.17643      0.99958     2.16828    0.00857     3.17643
      C    7    0.08436      0.99954     1.90158    0.01452     2.91564
      O    8   -0.22229      0.99986     3.21354    0.00888     4.22229
      C    9    0.27834      0.99954     1.70189    0.02023     2.72166
      O   10   -0.25398      0.99988     3.24813    0.00596     4.25398
      C   11   -0.09478      0.99944     2.08695    0.00839     3.09478
      C   12   -0.04790      0.99955     2.03891    0.00943     3.04790
      C   13   -0.14057      0.99957     2.13163    0.00936     3.14057
      C   14   -0.06796      0.99958     2.05931    0.00906     3.06796
      C   15   -0.13913      0.99953     2.13025    0.00934     3.13913
      C   16    0.18808      0.99936     1.80053    0.01203     2.81192
      O   17   -0.27883      0.99986     3.26822    0.01075     4.27883
      H   18    0.09367      0.00000     0.40474    0.00158     0.40633
      H   19    0.08195      0.00000     0.41643    0.00162     0.41805
      H   20    0.11295      0.00000     0.38501    0.00205     0.38705
      H   21    0.10253      0.00000     0.39655    0.00092     0.39747
      H   22    0.10103      0.00000     0.39812    0.00085     0.39897
      H   23    0.08628      0.00000     0.41280    0.00092     0.41372
      H   24    0.10693      0.00000     0.39115    0.00192     0.39307
      H   25    0.09300      0.00000     0.40598    0.00103     0.40700
      H   26    0.08986      0.00000     0.40911    0.00103     0.41014
      H   27    0.09886      0.00000     0.39959    0.00155     0.40114
 =======================================================================
   * Total *    0.00000     16.99271    41.81835    0.18894    59.00000

 Normal termination of Gaussian 16 at Fri Dec 11 12:45:53 2020.
