 Gaussian 16, Revision A.03,

 -----------------------------------------------------------
 # opt freq B3LYP/6-31G(d) empiricaldispersion=gd3bj scf=xqc
 -----------------------------------------------------------

 -------------------------------
 CID_79470893_JID_10293_neutraal
 -------------------------------
 Symbolic Z-matrix:
 Charge =  0 Multiplicity = 1

 SCF Done:  E(RB3LYP) =  -1238.03805534     A.U. after   16 cycles
 SCF Done:  E(RB3LYP) =  -1238.04912085     A.U. after   13 cycles
 SCF Done:  E(RB3LYP) =  -1238.05110668     A.U. after   13 cycles
 SCF Done:  E(RB3LYP) =  -1238.05139965     A.U. after   13 cycles
 SCF Done:  E(RB3LYP) =  -1238.05269284     A.U. after   12 cycles
 SCF Done:  E(RB3LYP) =  -1238.05325193     A.U. after   13 cycles
 SCF Done:  E(RB3LYP) =  -1238.05348957     A.U. after   12 cycles
 SCF Done:  E(RB3LYP) =  -1238.05359550     A.U. after   11 cycles
 SCF Done:  E(RB3LYP) =  -1238.05366596     A.U. after   11 cycles
 SCF Done:  E(RB3LYP) =  -1238.05370545     A.U. after   10 cycles
 SCF Done:  E(RB3LYP) =  -1238.05373222     A.U. after   10 cycles
 SCF Done:  E(RB3LYP) =  -1238.05373929     A.U. after   10 cycles
 SCF Done:  E(RB3LYP) =  -1238.05374146     A.U. after    9 cycles
 SCF Done:  E(RB3LYP) =  -1238.05374216     A.U. after    8 cycles
 SCF Done:  E(RB3LYP) =  -1238.05374221     A.U. after    7 cycles
 Optimization completed.
    -- Stationary point found.
 Normal termination of Gaussian 16 at Sat Dec 12 15:10:20 2020.

 --------------------------------------------------------------------
 #N Geom=AllCheck Guess=TCheck SCRF=Check GenChk RB3LYP/6-31G(d) Freq
 --------------------------------------------------------------------

 Structure from the checkpoint file:  "JID_10293.chk"
 -------------------------------
 CID_79470893_JID_10293_neutraal
 -------------------------------
 Charge =  0 Multiplicity = 1

 SCF Done:  E(RB3LYP) =  -1238.05374221     A.U. after    1 cycles

  Exact polarizability: 276.203  23.557 170.889   1.087  23.395 146.923
 Approx polarizability: 379.954  45.452 289.826   8.365  81.791 265.141

                      1                      2                      3
                      A                      A                      A
 Frequencies --     20.7071                25.9325                45.7387
 Red. masses --      4.2695                 4.6036                 3.4108
 Frc consts  --      0.0011                 0.0018                 0.0042
 IR Inten    --      0.0265                 1.1618                 0.2388

                      4                      5                      6
                      A                      A                      A
 Frequencies --     57.8090                68.2611                76.8255
 Red. masses --      3.5553                 4.0172                 3.1110
 Frc consts  --      0.0070                 0.0110                 0.0108
 IR Inten    --      0.5608                 1.4018                 1.5697

                      7                      8                      9
                      A                      A                      A
 Frequencies --     85.6385               111.6421               145.9122
 Red. masses --      2.7833                 3.2301                 4.1957
 Frc consts  --      0.0120                 0.0237                 0.0526
 IR Inten    --      0.4962                 0.6551                 1.8123

                     10                     11                     12
                      A                      A                      A
 Frequencies --    166.9515               202.6592               215.5791
 Red. masses --      5.6337                 3.1312                 1.3065
 Frc consts  --      0.0925                 0.0758                 0.0358
 IR Inten    --      1.2865                 3.6171                 0.1995

                     13                     14                     15
                      A                      A                      A
 Frequencies --    217.3419               227.0122               242.6681
 Red. masses --      1.6130                 1.7954                 1.6607
 Frc consts  --      0.0449                 0.0545                 0.0576
 IR Inten    --      0.4843                 0.5061                 1.1264

                     16                     17                     18
                      A                      A                      A
 Frequencies --    254.6229               255.6744               278.7787
 Red. masses --      5.6045                 2.2293                 3.4374
 Frc consts  --      0.2141                 0.0859                 0.1574
 IR Inten    --      3.4313                 5.8036                 1.0534

                     19                     20                     21
                      A                      A                      A
 Frequencies --    294.4050               318.8785               371.9913
 Red. masses --      2.0055                 3.6032                 2.9902
 Frc consts  --      0.1024                 0.2159                 0.2438
 IR Inten    --      0.1794                 5.1259                 2.6485

                     22                     23                     24
                      A                      A                      A
 Frequencies --    411.2438               424.6470               434.5160
 Red. masses --      2.1687                 2.8572                 1.7984
 Frc consts  --      0.2161                 0.3036                 0.2001
 IR Inten    --      0.5310                22.3626                 6.5517

                     25                     26                     27
                      A                      A                      A
 Frequencies --    441.0165               450.4119               461.3441
 Red. masses --      5.1085                 2.8606                 3.4401
 Frc consts  --      0.5854                 0.3419                 0.4314
 IR Inten    --      1.2698                10.3632                 5.2000

                     28                     29                     30
                      A                      A                      A
 Frequencies --    493.2312               515.1949               530.2248
 Red. masses --      3.1846                11.8506                 3.7268
 Frc consts  --      0.4565                 1.8532                 0.6173
 IR Inten    --     10.0976                 2.1387                 8.4048

                     31                     32                     33
                      A                      A                      A
 Frequencies --    551.2953               561.6215               614.4842
 Red. masses --      6.8224                 4.3849                 2.0170
 Frc consts  --      1.2217                 0.8149                 0.4487
 IR Inten    --      3.7074                 0.3726               123.9015

                     34                     35                     36
                      A                      A                      A
 Frequencies --    642.4656               668.1396               692.5245
 Red. masses --      3.4602                 3.2018                 7.6052
 Frc consts  --      0.8415                 0.8421                 2.1490
 IR Inten    --     26.8209                80.9055                 4.0226

                     37                     38                     39
                      A                      A                      A
 Frequencies --    757.3775               772.5155               784.2808
 Red. masses --      6.5075                 1.4950                 4.5751
 Frc consts  --      2.1993                 0.5257                 1.6580
 IR Inten    --     13.5381                 2.4682                 8.8963

                     40                     41                     42
                      A                      A                      A
 Frequencies --    793.6711               803.1247               812.0757
 Red. masses --      9.3645                 1.2920                 1.6763
 Frc consts  --      3.4755                 0.4910                 0.6513
 IR Inten    --      0.5987                16.1706                 0.8144

                     43                     44                     45
                      A                      A                      A
 Frequencies --    850.4004               871.5055               898.8637
 Red. masses --      3.1847                 1.2305                 3.3880
 Frc consts  --      1.3569                 0.5507                 1.6128
 IR Inten    --     12.4801                11.6857                 0.7652

                     46                     47                     48
                      A                      A                      A
 Frequencies --    941.5792               946.8998               967.2292
 Red. masses --      1.9017                 1.9437                 1.4171
 Frc consts  --      0.9933                 1.0268                 0.7811
 IR Inten    --      3.3580                16.8029                 0.0203

                     49                     50                     51
                      A                      A                      A
 Frequencies --    977.5869               994.0090              1005.7082
 Red. masses --      2.2127                 1.2322                 1.7753
 Frc consts  --      1.2459                 0.7173                 1.0580
 IR Inten    --      1.4256                 8.0390                 4.5976

                     52                     53                     54
                      A                      A                      A
 Frequencies --   1059.0105              1063.7744              1083.1957
 Red. masses --      2.9223                 3.0157                 2.6306
 Frc consts  --      1.9309                 2.0106                 1.8185
 IR Inten    --      8.5289                17.7365                18.9641

                     55                     56                     57
                      A                      A                      A
 Frequencies --   1107.4761              1117.2199              1132.3079
 Red. masses --      1.9881                 5.2649                 1.8304
 Frc consts  --      1.4366                 3.8718                 1.3827
 IR Inten    --     13.5503                46.2331                13.7379

                     58                     59                     60
                      A                      A                      A
 Frequencies --   1153.9308              1162.3388              1192.1635
 Red. masses --      2.4831                 2.0881                 1.9443
 Frc consts  --      1.9481                 1.6622                 1.6281
 IR Inten    --     29.8620                 2.1048                 6.0019

                     61                     62                     63
                      A                      A                      A
 Frequencies --   1216.0794              1227.3748              1237.8759
 Red. masses --      2.1216                 2.4526                 3.0394
 Frc consts  --      1.8485                 2.1769                 2.7440
 IR Inten    --     19.0349                21.2348                64.1673

                     64                     65                     66
                      A                      A                      A
 Frequencies --   1275.0702              1277.4876              1308.6030
 Red. masses --      2.0760                 4.4366                 1.4021
 Frc consts  --      1.9886                 4.2659                 1.4146
 IR Inten    --     38.3666               152.0182                 3.8525

                     67                     68                     69
                      A                      A                      A
 Frequencies --   1320.5091              1332.7474              1351.2101
 Red. masses --      2.2766                 1.3894                 1.2119
 Frc consts  --      2.3390                 1.4541                 1.3036
 IR Inten    --    128.8024                28.0706                26.6340

                     70                     71                     72
                      A                      A                      A
 Frequencies --   1366.4458              1378.2560              1407.6763
 Red. masses --      1.2791                 1.9789                 1.3543
 Frc consts  --      1.4072                 2.2148                 1.5812
 IR Inten    --      1.5677                35.4396                13.3621

                     73                     74                     75
                      A                      A                      A
 Frequencies --   1412.1473              1425.0696              1438.5722
 Red. masses --      1.5070                 1.3295                 1.3245
 Frc consts  --      1.7706                 1.5908                 1.6150
 IR Inten    --     10.3333                 5.7333                 5.7767

                     76                     77                     78
                      A                      A                      A
 Frequencies --   1440.5666              1440.8972              1444.7615
 Red. masses --      1.7559                 1.3254                 1.2237
 Frc consts  --      2.1469                 1.6213                 1.5049
 IR Inten    --     83.2887                35.7071                 1.9008

                     79                     80                     81
                      A                      A                      A
 Frequencies --   1473.6666              1510.3909              1515.5527
 Red. masses --      2.7433                 1.0714                 1.0797
 Frc consts  --      3.5101                 1.4401                 1.4611
 IR Inten    --    105.2825                 0.4761                 9.0810

                     82                     83                     84
                      A                      A                      A
 Frequencies --   1522.0508              1525.8797              1526.4599
 Red. masses --      1.1002                 1.1798                 1.6112
 Frc consts  --      1.5016                 1.6185                 2.2119
 IR Inten    --      3.9105                 1.1864                18.5790

                     85                     86                     87
                      A                      A                      A
 Frequencies --   1529.6636              1532.1964              1536.2916
 Red. masses --      1.3061                 1.0617                 1.0596
 Frc consts  --      1.8007                 1.4686                 1.4735
 IR Inten    --     14.5236                 4.8917                 8.0856

                     88                     89                     90
                      A                      A                      A
 Frequencies --   1542.6726              1546.3979              1574.2181
 Red. masses --      1.0480                 1.1161                 8.9546
 Frc consts  --      1.4694                 1.5725                13.0746
 IR Inten    --      2.3167                13.0790                 1.9133

                     91                     92                     93
                      A                      A                      A
 Frequencies --   1580.9438              1620.9993              1669.0652
 Red. masses --      5.1921                 3.3211                 1.4711
 Frc consts  --      7.6458                 5.1416                 2.4146
 IR Inten    --     13.9740                 8.5928               125.5593

                     94                     95                     96
                      A                      A                      A
 Frequencies --   1725.1537              2994.3897              3037.7988
 Red. masses --     10.6326                 1.0823                 1.0586
 Frc consts  --     18.6442                 5.7174                 5.7556
 IR Inten    --    232.4515                20.9570                33.3122

                     97                     98                     99
                      A                      A                      A
 Frequencies --   3043.4295              3045.1139              3051.3963
 Red. masses --      1.0392                 1.0420                 1.0521
 Frc consts  --      5.6711                 5.6930                 5.7717
 IR Inten    --     30.7338                14.6820                14.0028

                    100                    101                    102
                      A                      A                      A
 Frequencies --   3054.9991              3069.6318              3080.1580
 Red. masses --      1.0481                 1.1003                 1.0719
 Frc consts  --      5.7636                 6.1087                 5.9916
 IR Inten    --     51.6511                25.9264                26.8708

                    103                    104                    105
                      A                      A                      A
 Frequencies --   3105.3317              3107.8615              3118.8557
 Red. masses --      1.1015                 1.1002                 1.1022
 Frc consts  --      6.2581                 6.2611                 6.3167
 IR Inten    --     17.8419                61.3303                36.5476

                    106                    107                    108
                      A                      A                      A
 Frequencies --   3120.2840              3128.7196              3129.3662
 Red. masses --      1.1024                 1.1008                 1.0996
 Frc consts  --      6.3239                 6.3487                 6.3443
 IR Inten    --     23.9494                31.3289                39.2379

                    109                    110                    111
                      A                      A                      A
 Frequencies --   3140.9928              3163.5132              3185.9540
 Red. masses --      1.0951                 1.0957                 1.0879
 Frc consts  --      6.3656                 6.4609                 6.5061
 IR Inten    --      9.1471                13.9586                 4.2631

                    112                    113                    114
                      A                      A                      A
 Frequencies --   3203.4477              3539.9057              3649.5302
 Red. masses --      1.0959                 1.0463                 1.1007
 Frc consts  --      6.6263                 7.7251                 8.6375
 IR Inten    --     46.6023                27.6874                45.5323

 - Thermochemistry -
 -------------------
 Temperature   298.150 Kelvin.  Pressure   1.00000 Atm.
 Atom     1 has atomic number  6 and mass  12.00000

 Molecular mass:   292.13578 amu.
 Principal axes and moments of inertia in atomic units:
                           1         2         3
     Eigenvalues --  2892.31487********************
           X            0.99998  -0.00532   0.00281
           Y            0.00554   0.99605  -0.08859
           Z           -0.00233   0.08861   0.99606
 This molecule is an asymmetric top.
 Rotational symmetry number  1.
 Warning -- assumption of classical behavior for rotation
           may cause significant error
 Rotational temperatures (Kelvin)      0.02995     0.00808     0.00750
 Rotational constants (GHZ):           0.62398     0.16846     0.15634
 Zero-point vibrational energy     879430.3 (Joules/Mol)
                                  210.18889 (Kcal/Mol)
 Warning -- explicit consideration of  33 degrees of freedom as
           vibrations may cause significant error
 Vibrational temperatures:     29.79    37.31    65.81    83.17    98.21
          (Kelvin)            110.53   123.21   160.63   209.94   240.21
                              291.58   310.17   312.71   326.62   349.15
                              366.35   367.86   401.10   423.58   458.80
                              535.21   591.69   610.97   625.17   634.52
                              648.04   663.77   709.65   741.25   762.88
                              793.19   808.05   884.11   924.36   961.30
                              996.39  1089.70  1111.48  1128.41  1141.92
                             1155.52  1168.40  1223.54  1253.90  1293.26
                             1354.72  1362.38  1391.63  1406.53  1430.16
                             1446.99  1523.68  1530.53  1558.48  1593.41
                             1607.43  1629.14  1660.25  1672.35  1715.26
                             1749.67  1765.92  1781.03  1834.54  1838.02
                             1882.79  1899.92  1917.53  1944.09  1966.01
                             1983.00  2025.33  2031.77  2050.36  2069.78
                             2072.65  2073.13  2078.69  2120.28  2173.12
                             2180.54  2189.89  2195.40  2196.24  2200.84
                             2204.49  2210.38  2219.56  2224.92  2264.95
                             2274.63  2332.26  2401.41  2482.11  4308.26
                             4370.71  4378.82  4381.24  4390.28  4395.46
                             4416.52  4431.66  4467.88  4471.52  4487.34
                             4489.39  4501.53  4502.46  4519.19  4551.59
                             4583.88  4609.05  5093.13  5250.86

 Zero-point correction=                           0.334957 (Hartree/Particle)
 Thermal correction to Energy=                    0.355332
 Thermal correction to Enthalpy=                  0.356276
 Thermal correction to Gibbs Free Energy=         0.284435
 Sum of electronic and zero-point Energies=          -1237.718785
 Sum of electronic and thermal Energies=             -1237.698410
 Sum of electronic and thermal Enthalpies=           -1237.697466
 Sum of electronic and thermal Free Energies=        -1237.769308

                     E (Thermal)             CV                S
                      KCal/Mol        Cal/Mol-Kelvin    Cal/Mol-Kelvin
 Total                  222.974             76.377            151.204
 Electronic               0.000              0.000              0.000
 Translational            0.889              2.981             42.914
 Rotational               0.889              2.981             34.236
 Vibrational            221.197             70.415             74.055
 Vibration     1          0.593              1.986              6.565
 Vibration     2          0.593              1.985              6.119
 Vibration     3          0.595              1.979              4.994
 Vibration     4          0.596              1.974              4.531
 Vibration     5          0.598              1.969              4.203
 Vibration     6          0.599              1.965              3.970
 Vibration     7          0.601              1.959              3.757
 Vibration     8          0.607              1.940              3.240
 Vibration     9          0.617              1.907              2.725
 Vibration    10          0.624              1.883              2.470
 Vibration    11          0.639              1.836              2.109
 Vibration    12          0.645              1.817              1.996
 Vibration    13          0.646              1.815              1.981
 Vibration    14          0.651              1.800              1.902
 Vibration    15          0.659              1.775              1.783
 Vibration    16          0.665              1.755              1.698
 Vibration    17          0.666              1.753              1.691
 Vibration    18          0.679              1.713              1.541
 Vibration    19          0.689              1.684              1.449
 Vibration    20          0.705              1.637              1.316
 Vibration    21          0.744              1.530              1.072
 Vibration    22          0.775              1.446              0.922
 Vibration    23          0.787              1.417              0.876
 Vibration    24          0.795              1.395              0.844
 Vibration    25          0.801              1.381              0.823
 Vibration    26          0.809              1.360              0.795
 Vibration    27          0.819              1.336              0.762
 Vibration    28          0.849              1.265              0.675
 Vibration    29          0.870              1.216              0.621
 Vibration    30          0.885              1.183              0.587
 Vibration    31          0.907              1.137              0.541
 Vibration    32          0.917              1.114              0.521
 Vibration    33          0.974              1.001              0.425

 Optimization completed.
    -- Stationary point found.
 Normal termination of Gaussian 16 at Sat Dec 12 15:33:03 2020.

 ----------------------------------------------------------------------
 # B3LYP/6-311++G(d,p) empiricaldispersion=gd3bj scf=xqc pop=npa geom=c
 heck
 ----------------------------------------------------------------------

 ---------------------------------------
 CID_79470893_JID_10293_Energie_neutraal
 ---------------------------------------
 Structure from the checkpoint file:  "JID_10293.chk"
 Charge =  0 Multiplicity = 1

 SCF Done:  E(RB3LYP) =  -1238.31068448     A.U. after   16 cycles
 Normal termination of Gaussian 16 at Sat Dec 12 15:44:27 2020.

 ----------------------------------------------------------------------
 # B3LYP/6-311++G(d,p) empiricaldispersion=gd3bj scf=xqc pop=npa geom=c
 heck
 ----------------------------------------------------------------------

 -------------------------------------
 CID_79470893_JID_10293_Energie_kation
 -------------------------------------
 Structure from the checkpoint file:  "JID_10293.chk"
 Charge =  1 Multiplicity = 2

 SCF Done:  E(UB3LYP) =  -1238.02481330     A.U. after   31 cycles
 Normal termination of Gaussian 16 at Sat Dec 12 16:15:44 2020.
 Gaussian 16:  ES64L-G16RevA.03 25-Dec-2016

 ----------------------------------------------------------------------
 # B3LYP/6-311++G(d,p) empiricaldispersion=gd3bj scf=xqc pop=npa geom=c
 heck
 ----------------------------------------------------------------------

 ------------------------------------
 CID_79470893_JID_10293_Energie_anion
 ------------------------------------
 Structure from the checkpoint file:  "JID_10293.chk"
 Charge = -1 Multiplicity = 2

                         Standard orientation:
 ---------------------------------------------------------------------
 Center     Atomic      Atomic             Coordinates (Angstroms)
 Number     Number       Type             X           Y           Z
 ---------------------------------------------------------------------
      1          6           0       -4.004761    2.804572   -0.623336
      2          6           0       -3.371786    1.427285   -0.837239
      3          6           0       -3.869594    0.344566    0.133950
      4          6           0       -5.354725    0.019652   -0.065444
      5          6           0       -3.043628   -0.945357   -0.009511
      6          7           0       -1.635414   -0.752498    0.347463
      7          6           0       -1.287252   -1.024309    1.751972
      8          6           0       -1.010794   -2.505791    2.013469
      9          6           0       -0.701988   -0.859766   -0.666679
     10          8           0       -0.993791   -1.182910   -1.817226
     11          6           0        0.696180   -0.498031   -0.331074
     12          6           0        1.160736    0.587325    0.376848
     13          6           0        2.596886    0.699195    0.289451
     14          7           0        3.332643    1.660039    0.864510
     15          6           0        4.647282    1.570726    0.652426
     16          6           0        5.218792    0.542997   -0.119453
     17          7           0        4.492642   -0.410541   -0.711993
     18          6           0        3.180566   -0.317246   -0.507720
     19         16           0        1.976519   -1.386071   -1.186508
     20          7           0        0.438970    1.491300    1.132533
     21          1           0       -5.083577    2.793319   -0.811254
     22          1           0       -3.562928    3.547650   -1.296225
     23          1           0       -3.852265    3.153636    0.406026
     24          1           0       -3.547679    1.088715   -1.867358
     25          1           0       -2.282418    1.516522   -0.736797
     26          1           0       -3.734403    0.720660    1.161015
     27          1           0       -5.536604   -0.349620   -1.082610
     28          1           0       -5.688061   -0.754583    0.635562
     29          1           0       -5.986557    0.899419    0.088744
     30          1           0       -3.464884   -1.729637    0.631260
     31          1           0       -3.078876   -1.304813   -1.039898
     32          1           0       -0.432637   -0.417018    2.049561
     33          1           0       -2.133719   -0.679513    2.354872
     34          1           0       -0.136106   -2.836892    1.444098
     35          1           0       -0.809541   -2.674345    3.077366
     36          1           0       -1.863166   -3.130300    1.724642
     37          1           0        5.275814    2.334137    1.104057
     38          1           0        6.295409    0.497545   -0.263845
     39          1           0        0.939854    2.355456    1.306619
     40          1           0       -0.529009    1.617093    0.862556
 ---------------------------------------------------------------------

 SCF Done:  E(UB3LYP) =  -1238.33699993     A.U. after   27 cycles

 The electronic state is 2-A.
 Alpha  occ. eigenvalues --  -88.72607 -18.95513 -14.22084 -14.20100 -14.15572
 Alpha  occ. eigenvalues --  -14.15139 -10.13958 -10.10124 -10.09891 -10.09096
 Alpha  occ. eigenvalues --  -10.08804 -10.08586 -10.08454 -10.08001 -10.07569
 Alpha  occ. eigenvalues --  -10.06738 -10.05775 -10.05418 -10.04999 -10.04974
 Alpha  occ. eigenvalues --   -7.81218  -5.77531  -5.77209  -5.76717  -0.91080
 Alpha  occ. eigenvalues --   -0.83154  -0.82160  -0.79649  -0.75417  -0.72832
 Alpha  occ. eigenvalues --   -0.70777  -0.66111  -0.65013  -0.61528  -0.59192
 Alpha  occ. eigenvalues --   -0.57839  -0.55391  -0.54224  -0.51765  -0.48073
 Alpha  occ. eigenvalues --   -0.47872  -0.45284  -0.42749  -0.41195  -0.39126
 Alpha  occ. eigenvalues --   -0.38768  -0.37829  -0.36566  -0.35623  -0.35196
 Alpha  occ. eigenvalues --   -0.34382  -0.33670  -0.32436  -0.31687  -0.31083
 Alpha  occ. eigenvalues --   -0.30997  -0.29983  -0.29706  -0.29039  -0.28512
 Alpha  occ. eigenvalues --   -0.27300  -0.26988  -0.25968  -0.25336  -0.24891
 Alpha  occ. eigenvalues --   -0.24535  -0.24032  -0.23521  -0.22383  -0.21753
 Alpha  occ. eigenvalues --   -0.19988  -0.16817  -0.16149  -0.13883  -0.13105
 Alpha  occ. eigenvalues --   -0.10387  -0.09953  -0.07627   0.03096
 Alpha virt. eigenvalues --    0.05597   0.06963   0.07565   0.08468   0.09241
 Alpha virt. eigenvalues --    0.09505   0.10030   0.10249   0.10868   0.11084
 Alpha virt. eigenvalues --    0.11585   0.11786   0.12185   0.12868   0.13250

  Beta  occ. eigenvalues --  -88.72606 -18.95350 -14.22045 -14.20084 -14.15104
  Beta  occ. eigenvalues --  -14.14491 -10.13871 -10.10119 -10.09894 -10.09090
  Beta  occ. eigenvalues --  -10.08896 -10.08585 -10.08454 -10.08001 -10.07464
  Beta  occ. eigenvalues --  -10.06734 -10.05826 -10.05314 -10.04794 -10.04790
  Beta  occ. eigenvalues --   -7.81216  -5.77529  -5.77209  -5.76712  -0.90812
  Beta  occ. eigenvalues --   -0.82570  -0.82004  -0.79440  -0.74464  -0.72814
  Beta  occ. eigenvalues --   -0.70510  -0.66101  -0.64986  -0.61266  -0.58988
  Beta  occ. eigenvalues --   -0.57633  -0.55281  -0.54124  -0.51241  -0.47942
  Beta  occ. eigenvalues --   -0.47756  -0.45025  -0.42668  -0.41062  -0.38982
  Beta  occ. eigenvalues --   -0.38706  -0.37728  -0.36508  -0.35555  -0.35000
  Beta  occ. eigenvalues --   -0.34327  -0.33519  -0.32265  -0.31631  -0.31058
  Beta  occ. eigenvalues --   -0.30943  -0.29701  -0.29094  -0.28914  -0.28377
  Beta  occ. eigenvalues --   -0.27006  -0.26591  -0.25839  -0.25176  -0.24779
  Beta  occ. eigenvalues --   -0.24419  -0.23909  -0.23339  -0.21797  -0.21477
  Beta  occ. eigenvalues --   -0.18634  -0.15410  -0.15231  -0.13606  -0.12650
  Beta  occ. eigenvalues --   -0.09417  -0.09357  -0.06677
  Beta virt. eigenvalues --    0.05576   0.06929   0.07542   0.08427   0.08986
  Beta virt. eigenvalues --    0.09221   0.09511   0.10002   0.10572   0.10960
  Beta virt. eigenvalues --    0.11468   0.11719   0.11952   0.12160   0.12876

 Mulliken charges and spin densities:
               1          2
     1  C   -0.691699  -0.002597
     2  C    0.062501  -0.006419
     3  C    0.647992   0.000596
     4  C   -0.777894   0.008498
     5  C   -0.972260   0.000593
     6  N    0.372062   0.001832
     7  C   -0.036079   0.011692
     8  C   -0.609373  -0.018719
     9  C   -0.339469   0.047451
    10  O   -0.292177   0.054790
    11  C   -0.243565   0.098059
    12  C    0.058670   0.041837
    13  C    0.054093   0.069391
    14  N   -0.193438   0.297792
    15  C    0.021201  -0.014653
    16  C   -0.167268   0.189537
    17  N   -0.087817   0.196907
    18  C   -0.169155  -0.018675
    19  S   -0.380901   0.005510
    20  N   -0.341761   0.012611
    21  H    0.124767   0.000327
    22  H    0.136689   0.000900
    23  H    0.142155   0.000093
    24  H    0.158618   0.000004
    25  H    0.144023   0.007452
    26  H    0.130861  -0.001207
    27  H    0.147283  -0.000418
    28  H    0.118447   0.002776
    29  H    0.128129   0.000122
    30  H    0.107527   0.003848
    31  H    0.216859  -0.001398
    32  H    0.213745   0.008509
    33  H    0.090898   0.018991
    34  H    0.179528  -0.000412
    35  H    0.128674  -0.000969
    36  H    0.116464  -0.001305
    37  H    0.132057   0.000204
    38  H    0.142380  -0.014860
    39  H    0.272256  -0.000175
    40  H    0.254975   0.001484
 Sum of Mulliken charges =  -1.00000   1.00000

 Dipole moment (field-independent basis, Debye):
    X=            -10.8161    Y=              1.3361    Z=              3.5776  Tot=             11.4705
 Quadrupole moment (field-independent basis, Debye-Ang):
   XX=           -189.0437   YY=           -144.3239   ZZ=           -148.6314
   XY=             -2.2766   XZ=             -0.8211   YZ=             -8.2213

 Summary of Natural Population Analysis:

                                       Natural Population
                Natural  -----------------------------------------------
    Atom  No    Charge         Core      Valence    Rydberg      Total
 -----------------------------------------------------------------------
      C    1   -0.28528      0.99967     2.28158    0.00402     3.28528
      C    2   -0.19225      0.99962     2.18490    0.00773     3.19225
      C    3   -0.11311      0.99960     2.10621    0.00730     3.11311
      C    4   -0.28626      0.99965     2.28167    0.00494     3.28626
      C    5   -0.08608      0.99959     2.07612    0.01037     3.08608
      N    6   -0.27067      0.99965     2.75736    0.01366     3.77067
      C    7   -0.08721      0.99962     2.07887    0.00872     3.08721
      C    8   -0.29248      0.99966     2.28905    0.00377     3.29248
      C    9    0.33905      0.99955     1.63694    0.02446     2.66095
      O   10   -0.31409      0.99988     3.30862    0.00559     4.31409
      C   11   -0.13444      0.99938     2.12374    0.01132     3.13444
      C   12    0.08427      0.99937     1.90388    0.01248     2.91573
      C   13    0.05878      0.99941     1.92718    0.01462     2.94122
      N   14   -0.14054      0.99967     2.62871    0.01216     3.64054
      C   15   -0.01962      0.99962     2.00542    0.01459     3.01962
      C   16    0.03434      0.99961     1.95131    0.01473     2.96566
      N   17   -0.17698      0.99965     2.66139    0.01594     3.67698
      C   18    0.00029      0.99944     1.98202    0.01825     2.99971
      S   19    0.18361      4.99946     2.79516    0.02177     7.81639
      N   20   -0.40098      0.99970     2.89207    0.00921     3.90098
      H   21    0.09174      0.00000     0.40735    0.00091     0.40826
      H   22    0.09878      0.00000     0.40038    0.00084     0.40122
      H   23    0.09380      0.00000     0.40527    0.00093     0.40620
      H   24    0.09677      0.00000     0.40210    0.00113     0.40323
      H   25    0.10392      0.00000     0.39468    0.00140     0.39608
      H   26    0.08811      0.00000     0.41010    0.00178     0.41189
      H   27    0.09679      0.00000     0.40226    0.00095     0.40321
      H   28    0.09639      0.00000     0.40272    0.00089     0.40361
      H   29    0.09673      0.00000     0.40248    0.00079     0.40327
      H   30    0.08811      0.00000     0.41081    0.00108     0.41189
      H   31    0.11525      0.00000     0.38331    0.00144     0.38475
      H   32    0.11576      0.00000     0.38283    0.00141     0.38424
      H   33    0.08638      0.00000     0.41253    0.00109     0.41362
      H   34    0.10805      0.00000     0.39082    0.00113     0.39195
      H   35    0.09457      0.00000     0.40446    0.00097     0.40543
      H   36    0.09172      0.00000     0.40727    0.00102     0.40828
      H   37    0.08011      0.00000     0.41838    0.00151     0.41989
      H   38    0.07834      0.00000     0.42004    0.00162     0.42166
      H   39    0.19470      0.00000     0.30337    0.00194     0.30530
      H   40    0.18360      0.00000     0.31458    0.00182     0.31640
 =======================================================================
   * Total *   -0.00000     23.99181    53.74796    0.26023    78.00000

 Normal termination of Gaussian 16 at Sat Dec 12 16:42:59 2020.
