 Gaussian 16, Revision A.03,

 -----------------------------------------------------------
 # opt freq B3LYP/6-31G(d) empiricaldispersion=gd3bj scf=xqc
 -----------------------------------------------------------

 -------------------------------
 CID_152713929_JID_8154_neutraal
 -------------------------------
 Symbolic Z-matrix:
 Charge =  0 Multiplicity = 1

 SCF Done:  E(RB3LYP) =  -927.711486544     A.U. after   18 cycles
 SCF Done:  E(RB3LYP) =  -927.718422745     A.U. after   16 cycles
 SCF Done:  E(RB3LYP) =  -927.721999435     A.U. after   16 cycles
 SCF Done:  E(RB3LYP) =  -927.720339530     A.U. after   15 cycles
 SCF Done:  E(RB3LYP) =  -927.725640288     A.U. after   16 cycles
 SCF Done:  E(RB3LYP) =  -927.727284874     A.U. after   14 cycles
 SCF Done:  E(RB3LYP) =  -927.727961846     A.U. after   15 cycles
 SCF Done:  E(RB3LYP) =  -927.728921476     A.U. after   16 cycles
 SCF Done:  E(RB3LYP) =  -927.728585407     A.U. after   15 cycles
 SCF Done:  E(RB3LYP) =  -927.727750918     A.U. after   14 cycles
 SCF Done:  E(RB3LYP) =  -927.730631133     A.U. after   11 cycles
 SCF Done:  E(RB3LYP) =  -927.730631285     A.U. after    9 cycles
 SCF Done:  E(RB3LYP) =  -927.730631278     A.U. after    9 cycles
 SCF Done:  E(RB3LYP) =  -927.730631410     A.U. after    8 cycles
 Optimization completed.
    -- Stationary point found.
 Normal termination of Gaussian 16 at Fri Dec 11 19:54:00 2020.

 --------------------------------------------------------------------
 #N Geom=AllCheck Guess=TCheck SCRF=Check GenChk RB3LYP/6-31G(d) Freq
 --------------------------------------------------------------------

 Structure from the checkpoint file:  "JID_8154.chk"
 -------------------------------
 CID_152713929_JID_8154_neutraal
 -------------------------------
 Charge =  0 Multiplicity = 1

 SCF Done:  E(RB3LYP) =  -927.730631410     A.U. after    1 cycles

  Exact polarizability: 166.762   8.821 127.441  18.716  -0.370 121.719
 Approx polarizability: 276.104   7.929 184.507  52.745   2.788 201.935

                      1                      2                      3
                      A                      A                      A
 Frequencies --     22.5241                53.3051                53.8094
 Red. masses --      7.9728                 7.0494                 8.9168
 Frc consts  --      0.0024                 0.0118                 0.0152
 IR Inten    --      1.4884                 0.5089                 0.5197

                      4                      5                      6
                      A                      A                      A
 Frequencies --     65.3960                69.3490                73.2110
 Red. masses --      6.5156                 5.7156                 7.4722
 Frc consts  --      0.0164                 0.0162                 0.0236
 IR Inten    --      0.8729                 1.6768                 2.1452

                      7                      8                      9
                      A                      A                      A
 Frequencies --     90.2361               108.2586               128.8451
 Red. masses --      5.7640                 6.6014                 5.7684
 Frc consts  --      0.0277                 0.0456                 0.0564
 IR Inten    --      1.1428                 0.9199                 0.2536

                     10                     11                     12
                      A                      A                      A
 Frequencies --    154.2362               175.4716               205.4812
 Red. masses --      5.1942                 2.6995                 2.7783
 Frc consts  --      0.0728                 0.0490                 0.0691
 IR Inten    --      2.2868                 1.1066                 8.0466

                     13                     14                     15
                      A                      A                      A
 Frequencies --    212.0595               230.2637               248.0447
 Red. masses --      2.9398                 1.7771                 3.3377
 Frc consts  --      0.0779                 0.0555                 0.1210
 IR Inten    --      2.8013                 0.6630                 2.5562

                     16                     17                     18
                      A                      A                      A
 Frequencies --    256.3684               257.3260               272.5342
 Red. masses --      1.3450                 2.0020                 2.4669
 Frc consts  --      0.0521                 0.0781                 0.1080
 IR Inten    --      3.3919                 4.2152                 0.8896

                     19                     20                     21
                      A                      A                      A
 Frequencies --    315.9738               317.0376               346.9195
 Red. masses --      3.3333                 3.0061                 2.4016
 Frc consts  --      0.1961                 0.1780                 0.1703
 IR Inten    --      1.5759                 1.0380                 0.9240

                     22                     23                     24
                      A                      A                      A
 Frequencies --    405.9013               430.3737               456.1282
 Red. masses --      2.2397                 2.3136                 2.9778
 Frc consts  --      0.2174                 0.2525                 0.3650
 IR Inten    --      2.5058                 2.9711                 2.0500

                     25                     26                     27
                      A                      A                      A
 Frequencies --    500.3928               520.5299               550.3739
 Red. masses --      3.4521                 2.1961                 3.4828
 Frc consts  --      0.5093                 0.3506                 0.6216
 IR Inten    --      4.5494                20.4893                27.7228

                     28                     29                     30
                      A                      A                      A
 Frequencies --    569.8737               578.1769               617.7076
 Red. masses --      4.7901                 5.0738                 1.9881
 Frc consts  --      0.9165                 0.9993                 0.4469
 IR Inten    --     15.1092                 1.0787                58.4753

                     31                     32                     33
                      A                      A                      A
 Frequencies --    670.0370               702.9282               724.6186
 Red. masses --      5.9710                 3.3954                 5.0262
 Frc consts  --      1.5794                 0.9885                 1.5549
 IR Inten    --      8.4342                 5.3882                22.8735

                     34                     35                     36
                      A                      A                      A
 Frequencies --    767.8615               777.0262               788.4512
 Red. masses --      8.9502                 2.4264                 3.3933
 Frc consts  --      3.1092                 0.8631                 1.2428
 IR Inten    --     18.4303                 2.2653                 2.4466

                     37                     38                     39
                      A                      A                      A
 Frequencies --    865.3036               896.1636               898.9421
 Red. masses --      2.7599                 3.8710                 4.1592
 Frc consts  --      1.2175                 1.8317                 1.9802
 IR Inten    --     21.7308                64.3294               102.4829

                     40                     41                     42
                      A                      A                      A
 Frequencies --    918.9404               941.1844               948.0306
 Red. masses --      2.4093                 2.0454                 2.0761
 Frc consts  --      1.1987                 1.0675                 1.0994
 IR Inten    --     14.3220                 8.6566                15.2246

                     43                     44                     45
                      A                      A                      A
 Frequencies --    964.4264               966.9670               970.9750
 Red. masses --      3.0776                 1.4651                 2.0002
 Frc consts  --      1.6866                 0.8071                 1.1111
 IR Inten    --     44.2849                 2.8714                 7.4164

                     46                     47                     48
                      A                      A                      A
 Frequencies --   1048.8050              1054.1731              1062.4098
 Red. masses --      1.5869                 1.7250                 2.1664
 Frc consts  --      1.0285                 1.1294                 1.4407
 IR Inten    --      4.0166                 4.7045                25.1964

                     49                     50                     51
                      A                      A                      A
 Frequencies --   1075.6450              1113.1946              1146.5740
 Red. masses --      1.6985                 2.2517                 3.2214
 Frc consts  --      1.1579                 1.6440                 2.4952
 IR Inten    --      0.7082                 1.7566                15.1028

                     52                     53                     54
                      A                      A                      A
 Frequencies --   1212.3713              1220.0526              1230.0836
 Red. masses --      2.4115                 1.5785                 1.6531
 Frc consts  --      2.0884                 1.3843                 1.4737
 IR Inten    --      5.4523                12.4255                 7.7511

                     55                     56                     57
                      A                      A                      A
 Frequencies --   1247.0742              1252.2585              1306.9774
 Red. masses --      1.6067                 1.1808                 1.3303
 Frc consts  --      1.4722                 1.0910                 1.3389
 IR Inten    --      1.0310                 2.3936                 6.7100

                     58                     59                     60
                      A                      A                      A
 Frequencies --   1313.0130              1331.5722              1342.3471
 Red. masses --      1.9339                 3.0137                 1.9087
 Frc consts  --      1.9643                 3.1484                 2.0264
 IR Inten    --      6.8825               131.0378               170.0603

                     61                     62                     63
                      A                      A                      A
 Frequencies --   1352.6673              1380.5478              1388.2394
 Red. masses --      1.7151                 1.6421                 1.4715
 Frc consts  --      1.8490                 1.8439                 1.6709
 IR Inten    --     34.2531                71.4491                 5.1644

                     64                     65                     66
                      A                      A                      A
 Frequencies --   1398.6783              1411.6965              1428.8731
 Red. masses --      1.4915                 1.3753                 1.6953
 Frc consts  --      1.7191                 1.6149                 2.0393
 IR Inten    --     11.4055                 2.2520                18.3762

                     67                     68                     69
                      A                      A                      A
 Frequencies --   1432.0923              1446.2274              1459.0733
 Red. masses --      1.2391                 1.9373                 1.2649
 Frc consts  --      1.4973                 2.3873                 1.5866
 IR Inten    --      6.4309               108.3599                12.5391

                     70                     71                     72
                      A                      A                      A
 Frequencies --   1490.1882              1503.4120              1513.4361
 Red. masses --      1.5523                 1.0862                 1.0663
 Frc consts  --      2.0310                 1.4465                 1.4390
 IR Inten    --     47.5085                 6.5935                 1.8884

                     73                     74                     75
                      A                      A                      A
 Frequencies --   1517.3560              1520.7621              1526.3316
 Red. masses --      1.0599                 1.1532                 1.0615
 Frc consts  --      1.4377                 1.5714                 1.4570
 IR Inten    --      2.4936                28.0540                 5.6989

                     76                     77                     78
                      A                      A                      A
 Frequencies --   1537.1780              1544.2738              1544.9994
 Red. masses --      1.0724                 1.0725                 1.0753
 Frc consts  --      1.4929                 1.5070                 1.5123
 IR Inten    --      7.4635                15.5308                 2.3544

                     79                     80                     81
                      A                      A                      A
 Frequencies --   1557.0235              1733.0445              1777.7277
 Red. masses --      1.0766                13.9804                 7.8878
 Frc consts  --      1.5378                24.7393                14.6871
 IR Inten    --      5.9039               250.4329               332.6754

                     82                     83                     84
                      A                      A                      A
 Frequencies --   2265.6783              3018.5449              3048.9260
 Red. masses --     13.5921                 1.0693                 1.0354
 Frc consts  --     41.1087                 5.7404                 5.6707
 IR Inten    --    477.6283                37.4399                16.2473

                     85                     86                     87
                      A                      A                      A
 Frequencies --   3054.8548              3063.7742              3073.2449
 Red. masses --      1.0382                 1.0558                 1.0622
 Frc consts  --      5.7083                 5.8391                 5.9111
 IR Inten    --     17.0983                34.3088                16.1186

                     88                     89                     90
                      A                      A                      A
 Frequencies --   3083.2850              3100.9216              3101.1042
 Red. masses --      1.0657                 1.0941                 1.0583
 Frc consts  --      5.9692                 6.1983                 5.9966
 IR Inten    --     17.7870                 3.0395                10.5873

                     91                     92                     93
                      A                      A                      A
 Frequencies --   3114.4083              3117.2347              3120.6912
 Red. masses --      1.1080                 1.1029                 1.1020
 Frc consts  --      6.3323                 6.3141                 6.3230
 IR Inten    --      0.2926                 3.9446                 4.4994

                     94                     95                     96
                      A                      A                      A
 Frequencies --   3121.7090              3123.7619              3132.4910
 Red. masses --      1.1030                 1.1026                 1.1010
 Frc consts  --      6.3332                 6.3392                 6.3653
 IR Inten    --     30.9820                53.6807                27.0147

                     97                     98                     99
                      A                      A                      A
 Frequencies --   3148.7881              3162.0206              3607.0705
 Red. masses --      1.0968                 1.1114                 1.0755
 Frc consts  --      6.4069                 6.5471                 8.2448
 IR Inten    --     19.7828                10.8546                31.6572

 - Thermochemistry -
 -------------------
 Temperature   298.150 Kelvin.  Pressure   1.00000 Atm.
 Atom     1 has atomic number  6 and mass  12.00000

 Molecular mass:   259.12805 amu.
 Principal axes and moments of inertia in atomic units:
                           1         2         3
     Eigenvalues --  3566.344154942.817985951.87902
           X            0.99911   0.03862   0.01688
           Y           -0.03823   0.99901  -0.02260
           Z           -0.01774   0.02193   0.99960
 This molecule is an asymmetric top.
 Rotational symmetry number  1.
 Warning -- assumption of classical behavior for rotation
           may cause significant error
 Rotational temperatures (Kelvin)      0.02429     0.01752     0.01455
 Rotational constants (GHZ):           0.50605     0.36512     0.30322
 Zero-point vibrational energy     753449.1 (Joules/Mol)
                                  180.07866 (Kcal/Mol)
 Warning -- explicit consideration of  30 degrees of freedom as
           vibrations may cause significant error
 Vibrational temperatures:     32.41    76.69    77.42    94.09    99.78
          (Kelvin)            105.33   129.83   155.76   185.38   221.91
                              252.46   295.64   305.11   331.30   356.88
                              368.86   370.23   392.12   454.62   456.15
                              499.14   584.00   619.21   656.27   719.95
                              748.93   791.87   819.92   831.87   888.74
                              964.03  1011.36  1042.56  1104.78  1117.97
                             1134.41  1244.98  1289.38  1293.38  1322.15
                             1354.15  1364.00  1387.59  1391.25  1397.02
                             1509.00  1516.72  1528.57  1547.61  1601.64
                             1649.66  1744.33  1755.38  1769.82  1794.26
                             1801.72  1880.45  1889.13  1915.84  1931.34
                             1946.19  1986.30  1997.37  2012.39  2031.12
                             2055.83  2060.46  2080.80  2099.28  2144.05
                             2163.07  2177.50  2183.14  2188.04  2196.05
                             2211.66  2221.87  2222.91  2240.21  2493.46
                             2557.75  3259.81  4343.01  4386.72  4395.25
                             4408.09  4421.71  4436.16  4461.53  4461.80
                             4480.94  4485.01  4489.98  4491.44  4494.40
                             4506.96  4530.40  4549.44  5189.77

 Zero-point correction=                           0.286974 (Hartree/Particle)
 Thermal correction to Energy=                    0.306188
 Thermal correction to Enthalpy=                  0.307133
 Thermal correction to Gibbs Free Energy=         0.238349
 Sum of electronic and zero-point Energies=           -927.443658
 Sum of electronic and thermal Energies=              -927.424443
 Sum of electronic and thermal Enthalpies=            -927.423499
 Sum of electronic and thermal Free Energies=         -927.492283

                     E (Thermal)             CV                S
                      KCal/Mol        Cal/Mol-Kelvin    Cal/Mol-Kelvin
 Total                  192.136             69.316            144.768
 Electronic               0.000              0.000              0.000
 Translational            0.889              2.981             42.556
 Rotational               0.889              2.981             33.017
 Vibrational            190.359             63.355             69.194
 Vibration     1          0.593              1.985              6.398
 Vibration     2          0.596              1.976              4.691
 Vibration     3          0.596              1.976              4.672
 Vibration     4          0.597              1.971              4.287
 Vibration     5          0.598              1.969              4.172
 Vibration     6          0.599              1.967              4.065
 Vibration     7          0.602              1.956              3.655
 Vibration     8          0.606              1.943              3.300
 Vibration     9          0.611              1.924              2.963
 Vibration    10          0.620              1.898              2.619
 Vibration    11          0.627              1.873              2.376
 Vibration    12          0.640              1.832              2.083
 Vibration    13          0.643              1.823              2.026
 Vibration    14          0.652              1.795              1.877
 Vibration    15          0.662              1.766              1.744
 Vibration    16          0.666              1.752              1.686
 Vibration    17          0.667              1.750              1.680
 Vibration    18          0.676              1.724              1.580
 Vibration    19          0.703              1.643              1.331
 Vibration    20          0.704              1.641              1.325
 Vibration    21          0.725              1.582              1.180
 Vibration    22          0.771              1.457              0.941
 Vibration    23          0.792              1.404              0.857
 Vibration    24          0.814              1.347              0.777
 Vibration    25          0.856              1.249              0.657
 Vibration    26          0.876              1.205              0.609
 Vibration    27          0.906              1.139              0.543
 Vibration    28          0.926              1.096              0.504
 Vibration    29          0.935              1.078              0.489
 Vibration    30          0.977              0.994              0.420

 Optimization completed.
    -- Stationary point found.
 Normal termination of Gaussian 16 at Fri Dec 11 20:13:25 2020.

 ----------------------------------------------------------------------
 # B3LYP/6-311++G(d,p) empiricaldispersion=gd3bj scf=xqc pop=npa geom=c
 heck
 ----------------------------------------------------------------------

 ---------------------------------------
 CID_152713929_JID_8154_Energie_neutraal
 ---------------------------------------
 Structure from the checkpoint file:  "JID_8154.chk"
 Charge =  0 Multiplicity = 1

 SCF Done:  E(RB3LYP) =  -928.004103485     A.U. after   17 cycles
 Normal termination of Gaussian 16 at Fri Dec 11 20:22:57 2020.

 ----------------------------------------------------------------------
 # B3LYP/6-311++G(d,p) empiricaldispersion=gd3bj scf=xqc pop=npa geom=c
 heck
 ----------------------------------------------------------------------

 -------------------------------------
 CID_152713929_JID_8154_Energie_kation
 -------------------------------------
 Structure from the checkpoint file:  "JID_8154.chk"
 Charge =  1 Multiplicity = 2

 SCF Done:  E(UB3LYP) =  -927.681392868     A.U. after   33 cycles
 SCF Done:  E(UB3LYP) =  -927.681392868     a.u. after    1 cycles
 Normal termination of Gaussian 16 at Fri Dec 11 20:48:58 2020.
 Gaussian 16:  ES64L-G16RevA.03 25-Dec-2016

 ----------------------------------------------------------------------
 # B3LYP/6-311++G(d,p) empiricaldispersion=gd3bj scf=xqc pop=npa geom=c
 heck
 ----------------------------------------------------------------------

 ------------------------------------
 CID_152713929_JID_8154_Energie_anion
 ------------------------------------
 Structure from the checkpoint file:  "JID_8154.chk"
 Charge = -1 Multiplicity = 2

                         Standard orientation:
 ---------------------------------------------------------------------
 Center     Atomic      Atomic             Coordinates (Angstroms)
 Number     Number       Type             X           Y           Z
 ---------------------------------------------------------------------
      1          6           0       -3.558451    0.962491    0.052690
      2          6           0       -2.485104    0.040269   -0.546677
      3          6           0       -3.017094   -0.590701   -1.846704
      4          6           0       -1.210581    0.826076   -0.923119
      5          7           0       -0.611450    1.530175    0.206743
      6          6           0        0.615617    2.120797    0.285227
      7          8           0        1.022600    2.618469    1.331390
      8          6           0        1.487442    2.127414   -0.965820
      9          6           0        2.857062    1.487854   -0.680013
     10          6           0        2.765247    0.085768   -0.093156
     11          8           0        1.858527   -0.650336   -0.965532
     12          7           0        1.603804   -1.967281   -0.560115
     13          8           0        0.678102   -2.471328   -1.164877
     14          8           0        2.303920   -2.444164    0.305334
     15          6           0       -2.177661   -1.127997    0.415781
     16          7           0       -1.742649   -0.683910    1.764538
     17          7           0       -0.557165   -0.884370    2.035098
     18          7           0        0.519187   -1.014851    2.395060
     19          1           0       -3.762811    1.803698   -0.618877
     20          1           0       -3.265307    1.365311    1.026576
     21          1           0       -4.494027    0.411161    0.199388
     22          1           0       -3.279734    0.185683   -2.573428
     23          1           0       -2.269478   -1.248156   -2.304979
     24          1           0       -3.917448   -1.183146   -1.651035
     25          1           0       -0.484619    0.123389   -1.343319
     26          1           0       -1.478707    1.538816   -1.716061
     27          1           0       -1.134127    1.570920    1.072132
     28          1           0        1.009263    1.633582   -1.812980
     29          1           0        1.641625    3.176319   -1.242136
     30          1           0        3.450328    1.471971   -1.600452
     31          1           0        3.391176    2.098266    0.055127
     32          1           0        3.733947   -0.418046   -0.073177
     33          1           0        2.339534    0.095582    0.912838
     34          1           0       -3.096214   -1.703217    0.570513
     35          1           0       -1.429535   -1.793432   -0.029168
 ---------------------------------------------------------------------

 SCF Done:  E(UB3LYP) =  -928.017641806     A.U. after   33 cycles
 SCF Done:  E(UB3LYP) =  -928.017641807     a.u. after    1 cycles

 The electronic state is 2-A.
 Alpha  occ. eigenvalues --  -19.04464 -18.98577 -18.98129 -18.97940 -14.37452
 Alpha  occ. eigenvalues --  -14.35375 -14.25678 -14.24019 -14.23158 -10.16864
 Alpha  occ. eigenvalues --  -10.10905 -10.10634 -10.10534 -10.09933 -10.07995
 Alpha  occ. eigenvalues --  -10.07906 -10.06975 -10.06961  -1.09456  -1.01888
 Alpha  occ. eigenvalues --   -0.93291  -0.91135  -0.90593  -0.86297  -0.82117
 Alpha  occ. eigenvalues --   -0.73161  -0.69928  -0.61978  -0.61571  -0.60251
 Alpha  occ. eigenvalues --   -0.59443  -0.53638  -0.48526  -0.47400  -0.45700
 Alpha  occ. eigenvalues --   -0.42628  -0.41636  -0.41112  -0.40613  -0.39876
 Alpha  occ. eigenvalues --   -0.39252  -0.38113  -0.37002  -0.36400  -0.35786
 Alpha  occ. eigenvalues --   -0.34129  -0.33684  -0.33035  -0.32506  -0.31345
 Alpha  occ. eigenvalues --   -0.30017  -0.29910  -0.29431  -0.28844  -0.27519
 Alpha  occ. eigenvalues --   -0.26296  -0.25520  -0.25297  -0.24684  -0.24170
 Alpha  occ. eigenvalues --   -0.23958  -0.19000  -0.18393  -0.17529  -0.16737
 Alpha  occ. eigenvalues --   -0.15618  -0.15349  -0.13695  -0.13452   0.04328
 Alpha virt. eigenvalues --    0.06022   0.07438   0.07893   0.08290   0.08614
 Alpha virt. eigenvalues --    0.09762   0.10447   0.10717   0.11296   0.11761
 Alpha virt. eigenvalues --    0.11991   0.12368   0.12608   0.13181   0.13757

  Beta  occ. eigenvalues --  -19.04412 -18.98243 -18.98128 -18.97533 -14.36411
  Beta  occ. eigenvalues --  -14.35245 -14.25534 -14.24037 -14.23155 -10.16862
  Beta  occ. eigenvalues --  -10.10906 -10.10628 -10.10499 -10.09935 -10.07994
  Beta  occ. eigenvalues --  -10.07905 -10.06957 -10.06943  -1.08273  -1.01654
  Beta  occ. eigenvalues --   -0.93286  -0.90871  -0.89884  -0.86192  -0.82107
  Beta  occ. eigenvalues --   -0.73138  -0.69878  -0.61886  -0.61434  -0.60221
  Beta  occ. eigenvalues --   -0.59406  -0.53296  -0.48187  -0.47338  -0.45571
  Beta  occ. eigenvalues --   -0.42558  -0.40753  -0.40463  -0.40191  -0.39235
  Beta  occ. eigenvalues --   -0.38483  -0.37760  -0.36596  -0.36013  -0.35030
  Beta  occ. eigenvalues --   -0.34000  -0.33387  -0.32884  -0.32288  -0.31201
  Beta  occ. eigenvalues --   -0.29926  -0.29853  -0.29362  -0.28752  -0.27371
  Beta  occ. eigenvalues --   -0.26190  -0.25479  -0.25267  -0.24644  -0.24124
  Beta  occ. eigenvalues --   -0.23889  -0.18638  -0.17747  -0.17314  -0.15626
  Beta  occ. eigenvalues --   -0.15343  -0.14176  -0.13556  -0.13199
  Beta virt. eigenvalues --    0.06394   0.07486   0.08412   0.08657   0.09024
  Beta virt. eigenvalues --    0.09766   0.10441   0.10687   0.11285   0.11750
  Beta virt. eigenvalues --    0.12058   0.12416   0.12643   0.13156   0.13483

 Mulliken charges and spin densities:
               1          2
     1  C    0.162451  -0.546999
     2  C   -0.369637   1.211056
     3  C    0.092479  -0.611230
     4  C   -0.567336  -0.577249
     5  N    0.097058   0.039511
     6  C   -0.238769   0.026184
     7  O   -0.298744   0.004637
     8  C    0.167615  -0.164307
     9  C   -0.589426   0.041083
    10  C   -0.207343  -0.023310
    11  O    0.164931   0.015699
    12  N   -0.517017   0.310026
    13  O   -0.117074   0.147648
    14  O   -0.072271   0.139026
    15  C   -0.492030  -0.481047
    16  N   -0.324016  -0.286092
    17  N    0.303860   0.237276
    18  N   -0.068723   0.249671
    19  H   -0.068916   0.228949
    20  H    0.084693   0.035014
    21  H   -0.054590   0.222101
    22  H   -0.109119   0.245566
    23  H    0.092022   0.077891
    24  H   -0.020948   0.170546
    25  H    0.202568  -0.011925
    26  H    0.098113   0.068019
    27  H    0.254575   0.045978
    28  H    0.138774   0.051609
    29  H    0.165186   0.015841
    30  H    0.146669   0.014398
    31  H    0.178791  -0.005011
    32  H    0.168889   0.022113
    33  H    0.242414   0.011506
    34  H    0.084422   0.117030
    35  H    0.270451  -0.041207
 Sum of Mulliken charges =  -1.00000   1.00000

 Dipole moment (field-independent basis, Debye):
    X=             -0.8843    Y=              4.0524    Z=             -1.8606  Tot=              4.5459
 Quadrupole moment (field-independent basis, Debye-Ang):
   XX=           -142.5870   YY=           -147.9334   ZZ=           -136.5068
   XY=             10.3660   XZ=             -7.1418   YZ=             -7.6666

 Summary of Natural Population Analysis:

                                       Natural Population
                Natural  -----------------------------------------------
    Atom  No    Charge         Core      Valence    Rydberg      Total
 -----------------------------------------------------------------------
      C    1   -0.28892      0.99962     2.28171    0.00758     3.28892
      C    2   -0.05071      0.99957     2.03986    0.01128     3.05071
      C    3   -0.28515      0.99962     2.27829    0.00724     3.28515
      C    4   -0.09539      0.99955     2.08351    0.01234     3.09539
      N    5   -0.32044      0.99966     2.81104    0.00974     3.82044
      C    6    0.34412      0.99967     1.63283    0.02337     2.65588
      O    7   -0.33288      0.99988     3.32726    0.00574     4.33288
      C    8   -0.23267      0.99959     2.22518    0.00790     3.23267
      C    9   -0.19561      0.99962     2.18738    0.00862     3.19561
      C   10   -0.02526      0.99958     2.01454    0.01115     3.02526
      O   11   -0.23412      0.99988     3.22472    0.00951     4.23412
      N   12    0.46924      0.99983     2.00366    0.02726     3.03076
      O   13   -0.19784      0.99989     3.19057    0.00738     4.19784
      O   14   -0.19269      0.99989     3.18612    0.00668     4.19269
      C   15   -0.09735      0.99952     2.08436    0.01348     3.09735
      N   16   -0.20792      0.99970     2.69440    0.01382     3.70792
      N   17    0.12480      0.99970     2.35960    0.01591     3.37520
      N   18   -0.01945      0.99982     2.50641    0.01323     3.51945
      H   19    0.09914      0.00000     0.40006    0.00080     0.40086
      H   20    0.10345      0.00000     0.39532    0.00123     0.39655
      H   21    0.10062      0.00000     0.39849    0.00090     0.39938
      H   22    0.10019      0.00000     0.39884    0.00097     0.39981
      H   23    0.10910      0.00000     0.39004    0.00086     0.39090
      H   24    0.10001      0.00000     0.39916    0.00083     0.39999
      H   25    0.11692      0.00000     0.38119    0.00189     0.38308
      H   26    0.08966      0.00000     0.40931    0.00103     0.41034
      H   27    0.19853      0.00000     0.29845    0.00302     0.30147
      H   28    0.10722      0.00000     0.39129    0.00150     0.39278
      H   29    0.10666      0.00000     0.39224    0.00110     0.39334
      H   30    0.09632      0.00000     0.40242    0.00126     0.40368
      H   31    0.10579      0.00000     0.39306    0.00115     0.39421
      H   32    0.09306      0.00000     0.40569    0.00126     0.40694
      H   33    0.10235      0.00000     0.39597    0.00168     0.39765
      H   34    0.09456      0.00000     0.40436    0.00108     0.40544
      H   35    0.11467      0.00000     0.38387    0.00146     0.38533
 =======================================================================
   * Total *   -0.00000     17.99458    50.77118    0.23424    69.00000

 Normal termination of Gaussian 16 at Fri Dec 11 21:14:35 2020.
