 Gaussian 16, Revision A.03,

 -----------------------------------------------------------
 # opt freq B3LYP/6-31G(d) empiricaldispersion=gd3bj scf=xqc
 -----------------------------------------------------------

 ------------------------------
 CID_88845503_JID_3678_neutraal
 ------------------------------
 Symbolic Z-matrix:
 Charge =  0 Multiplicity = 1

 SCF Done:  E(RB3LYP) =  -571.786361198     A.U. after   15 cycles
 SCF Done:  E(RB3LYP) =  -571.790274537     A.U. after   12 cycles
 SCF Done:  E(RB3LYP) =  -571.790947849     A.U. after   12 cycles
 SCF Done:  E(RB3LYP) =  -571.791324126     A.U. after   12 cycles
 SCF Done:  E(RB3LYP) =  -571.791557571     A.U. after   12 cycles
 SCF Done:  E(RB3LYP) =  -571.791632667     A.U. after   11 cycles
 SCF Done:  E(RB3LYP) =  -571.791672173     A.U. after   10 cycles
 SCF Done:  E(RB3LYP) =  -571.791683440     A.U. after   10 cycles
 SCF Done:  E(RB3LYP) =  -571.791686532     A.U. after   10 cycles
 SCF Done:  E(RB3LYP) =  -571.791687086     A.U. after    8 cycles
 SCF Done:  E(RB3LYP) =  -571.791687134     A.U. after    7 cycles
 Optimization completed.
    -- Stationary point found.
 Normal termination of Gaussian 16 at Wed Dec  9 23:26:36 2020.

 --------------------------------------------------------------------
 #N Geom=AllCheck Guess=TCheck SCRF=Check GenChk RB3LYP/6-31G(d) Freq
 --------------------------------------------------------------------

 Structure from the checkpoint file:  "JID_3678.chk"
 ------------------------------
 CID_88845503_JID_3678_neutraal
 ------------------------------
 Charge =  0 Multiplicity = 1

 SCF Done:  E(RB3LYP) =  -571.791687134     A.U. after    1 cycles

  Exact polarizability: 158.622  12.692 119.205   5.646  -5.902  70.230
 Approx polarizability: 225.851  22.195 218.228  15.944 -22.372 113.689

                      1                      2                      3
                      A                      A                      A
 Frequencies --     37.4225                42.6707                99.1059
 Red. masses --      3.9357                 4.3439                 2.0902
 Frc consts  --      0.0032                 0.0047                 0.0121
 IR Inten    --      1.2744                 0.9254                 2.6797

                      4                      5                      6
                      A                      A                      A
 Frequencies --    158.6966               209.7280               226.8321
 Red. masses --      3.3520                 3.7287                 5.6949
 Frc consts  --      0.0497                 0.0966                 0.1726
 IR Inten    --      2.1293                 7.2432                 1.1129

                      7                      8                      9
                      A                      A                      A
 Frequencies --    262.4374               310.0636               371.4424
 Red. masses --      2.8507                 2.3998                 1.8505
 Frc consts  --      0.1157                 0.1359                 0.1504
 IR Inten    --     10.1451                 8.8919                40.8448

                     10                     11                     12
                      A                      A                      A
 Frequencies --    388.5535               436.4847               468.8885
 Red. masses --      2.5166                 3.1149                 4.0976
 Frc consts  --      0.2239                 0.3496                 0.5308
 IR Inten    --     25.8822                 1.1216                 1.2634

                     13                     14                     15
                      A                      A                      A
 Frequencies --    530.7562               559.8078               572.2054
 Red. masses --      4.9473                 4.1596                 4.4160
 Frc consts  --      0.8211                 0.7680                 0.8519
 IR Inten    --      9.3583                 6.2329                 2.0218

                     16                     17                     18
                      A                      A                      A
 Frequencies --    599.4479               666.7990               683.3310
 Red. masses --      5.0975                 2.9849                 1.6922
 Frc consts  --      1.0792                 0.7819                 0.4655
 IR Inten    --     25.4452                82.0211               280.0156

                     19                     20                     21
                      A                      A                      A
 Frequencies --    744.9875               765.3684               778.3915
 Red. masses --      4.2078                 1.3787                 4.0071
 Frc consts  --      1.3760                 0.4758                 1.4305
 IR Inten    --      2.9474                53.3397                 7.3911

                     22                     23                     24
                      A                      A                      A
 Frequencies --    789.9188               817.9819               868.7915
 Red. masses --      3.9770                 2.2490                 1.4619
 Frc consts  --      1.4621                 0.8866                 0.6501
 IR Inten    --     10.7137                60.7499                 0.9792

                     25                     26                     27
                      A                      A                      A
 Frequencies --    879.9659               914.4915               928.4433
 Red. masses --      6.1391                 8.1435                 2.2077
 Frc consts  --      2.8008                 4.0126                 1.1213
 IR Inten    --     31.1080                15.2297                 1.3142

                     28                     29                     30
                      A                      A                      A
 Frequencies --    944.0341               979.6709               981.0536
 Red. masses --      1.3834                 1.1351                 1.2467
 Frc consts  --      0.7264                 0.6419                 0.7070
 IR Inten    --      1.7493                28.4023                 0.0512

                     31                     32                     33
                      A                      A                      A
 Frequencies --   1039.2042              1052.5036              1107.6278
 Red. masses --      2.0584                 1.8857                 4.6471
 Frc consts  --      1.3097                 1.2307                 3.3591
 IR Inten    --      3.7218                 3.1390                 0.2168

                     34                     35                     36
                      A                      A                      A
 Frequencies --   1140.9835              1158.2262              1184.8840
 Red. masses --      1.6860                 1.4807                 1.2875
 Frc consts  --      1.2932                 1.1704                 1.0650
 IR Inten    --     24.6338                 6.2541                 2.9052

                     37                     38                     39
                      A                      A                      A
 Frequencies --   1197.9583              1270.6740              1280.8268
 Red. masses --      1.3831                 1.8050                 3.1908
 Frc consts  --      1.1695                 1.7171                 3.0841
 IR Inten    --      6.3739                90.9730                18.0502

                     40                     41                     42
                      A                      A                      A
 Frequencies --   1313.4867              1338.0302              1354.2233
 Red. masses --      1.6758                 1.3954                 1.2984
 Frc consts  --      1.7034                 1.4719                 1.4029
 IR Inten    --      2.2050                 3.4405                 0.5360

                     43                     44                     45
                      A                      A                      A
 Frequencies --   1399.5549              1408.0441              1411.4267
 Red. masses --      3.7564                 1.6665                 3.8335
 Frc consts  --      4.3351                 1.9466                 4.4995
 IR Inten    --      2.9115                 6.7407                34.1870

                     46                     47                     48
                      A                      A                      A
 Frequencies --   1485.3305              1498.5958              1530.4006
 Red. masses --      2.5468                 1.1049                 2.9773
 Frc consts  --      3.3104                 1.4620                 4.1085
 IR Inten    --     16.0754                 6.9259                 1.7369

                     49                     50                     51
                      A                      A                      A
 Frequencies --   1585.4077              1654.7509              1670.6051
 Red. masses --      6.5401                 7.2463                 6.9567
 Frc consts  --      9.6853                11.6905                11.4394
 IR Inten    --     17.2048                 3.5828                24.3547

                     52                     53                     54
                      A                      A                      A
 Frequencies --   1684.6739              1765.7105              3017.0125
 Red. masses --      1.1569                 4.5953                 1.0697
 Frc consts  --      1.9345                 8.4411                 5.7370
 IR Inten    --     28.7292               149.9927                31.7243

                     55                     56                     57
                      A                      A                      A
 Frequencies --   3105.5006              3153.3136              3174.9614
 Red. masses --      1.0920                 1.0891                 1.0893
 Frc consts  --      6.2049                 6.3806                 6.4696
 IR Inten    --      7.8581                17.6590                17.1570

                     58                     59                     60
                      A                      A                      A
 Frequencies --   3192.6081              3202.6976              3215.3008
 Red. masses --      1.0860                 1.0900                 1.0955
 Frc consts  --      6.5220                 6.5876                 6.6729
 IR Inten    --      0.6317                14.6404                19.8385

                     61                     62                     63
                      A                      A                      A
 Frequencies --   3230.2949              3531.8568              3630.9510
 Red. masses --      1.0946                 1.0479                 1.0975
 Frc consts  --      6.7296                 7.7014                 8.5248
 IR Inten    --      7.2789                 7.2386                 5.7911

 - Thermochemistry -
 -------------------
 Temperature   298.150 Kelvin.  Pressure   1.00000 Atm.
 Atom     1 has atomic number  6 and mass  12.00000

 Molecular mass:   174.07931 amu.
 Principal axes and moments of inertia in atomic units:
                           1         2         3
     Eigenvalues --  1178.361283922.069734616.19090
           X            0.99997   0.00735  -0.00183
           Y           -0.00733   0.99995   0.00703
           Z            0.00188  -0.00701   0.99997
 This molecule is an asymmetric top.
 Rotational symmetry number  1.
 Warning -- assumption of classical behavior for rotation
           may cause significant error
 Rotational temperatures (Kelvin)      0.07350     0.02208     0.01876
 Rotational constants (GHZ):           1.53157     0.46015     0.39096
 Zero-point vibrational energy     484519.9 (Joules/Mol)
                                  115.80303 (Kcal/Mol)
 Warning -- explicit consideration of  16 degrees of freedom as
           vibrations may cause significant error
 Vibrational temperatures:     53.84    61.39   142.59   228.33   301.75
          (Kelvin)            326.36   377.59   446.11   534.42   559.04
                              628.00   674.63   763.64   805.44   823.28
                              862.47   959.38   983.16  1071.87  1101.19
                             1119.93  1136.52  1176.89  1250.00  1266.07
                             1315.75  1335.82  1358.25  1409.53  1411.52
                             1495.18  1514.32  1593.63  1641.62  1666.43
                             1704.78  1723.59  1828.22  1842.82  1889.81
                             1925.13  1948.43  2013.65  2025.86  2030.73
                             2137.06  2156.15  2201.91  2281.05  2380.82
                             2403.63  2423.87  2540.46  4340.81  4468.12
                             4536.91  4568.06  4593.45  4607.97  4626.10
                             4647.67  5081.55  5224.13

 Zero-point correction=                           0.184544 (Hartree/Particle)
 Thermal correction to Energy=                    0.195578
 Thermal correction to Enthalpy=                  0.196523
 Thermal correction to Gibbs Free Energy=         0.146453
 Sum of electronic and zero-point Energies=           -571.607143
 Sum of electronic and thermal Energies=              -571.596109
 Sum of electronic and thermal Enthalpies=            -571.595165
 Sum of electronic and thermal Free Energies=         -571.645234

                     E (Thermal)             CV                S
                      KCal/Mol        Cal/Mol-Kelvin    Cal/Mol-Kelvin
 Total                  122.727             42.682            105.379
 Electronic               0.000              0.000              0.000
 Translational            0.889              2.981             41.370
 Rotational               0.889              2.981             31.434
 Vibrational            120.950             36.720             32.575
 Vibration     1          0.594              1.982              5.391
 Vibration     2          0.595              1.980              5.131
 Vibration     3          0.604              1.950              3.472
 Vibration     4          0.621              1.893              2.565
 Vibration     5          0.642              1.826              2.046
 Vibration     6          0.650              1.800              1.904
 Vibration     7          0.670              1.742              1.646
 Vibration     8          0.699              1.655              1.362
 Vibration     9          0.743              1.531              1.074
 Vibration    10          0.757              1.495              1.006
 Vibration    11          0.797              1.391              0.838
 Vibration    12          0.826              1.319              0.741
 Vibration    13          0.886              1.182              0.586
 Vibration    14          0.915              1.118              0.524
 Vibration    15          0.928              1.091              0.500
 Vibration    16          0.958              1.033              0.451

                           ! Non-Optimized Parameters !
 Normal termination of Gaussian 16 at Wed Dec  9 23:31:35 2020.

 ----------------------------------------------------------------------
 # B3LYP/6-311++G(d,p) empiricaldispersion=gd3bj scf=xqc pop=npa geom=c
 heck
 ----------------------------------------------------------------------

 --------------------------------------
 CID_88845503_JID_3678_Energie_neutraal
 --------------------------------------
 Structure from the checkpoint file:  "JID_3678.chk"
 Charge =  0 Multiplicity = 1

 SCF Done:  E(RB3LYP) =  -571.950300067     A.U. after   15 cycles
 Normal termination of Gaussian 16 at Wed Dec  9 23:33:18 2020.

 ----------------------------------------------------------------------
 # B3LYP/6-311++G(d,p) empiricaldispersion=gd3bj scf=xqc pop=npa geom=c
 heck
 ----------------------------------------------------------------------

 ------------------------------------
 CID_88845503_JID_3678_Energie_kation
 ------------------------------------
 Structure from the checkpoint file:  "JID_3678.chk"
 Charge =  1 Multiplicity = 2

 SCF Done:  E(UB3LYP) =  -571.657336407     A.U. after   28 cycles
 Normal termination of Gaussian 16 at Wed Dec  9 23:37:33 2020.
 Gaussian 16:  ES64L-G16RevA.03 25-Dec-2016

 ----------------------------------------------------------------------
 # B3LYP/6-311++G(d,p) empiricaldispersion=gd3bj scf=xqc pop=npa geom=c
 heck
 ----------------------------------------------------------------------

 -----------------------------------
 CID_88845503_JID_3678_Energie_anion
 -----------------------------------
 Structure from the checkpoint file:  "JID_3678.chk"
 Charge = -1 Multiplicity = 2

                         Standard orientation:
 ---------------------------------------------------------------------
 Center     Atomic      Atomic             Coordinates (Angstroms)
 Number     Number       Type             X           Y           Z
 ---------------------------------------------------------------------
      1          6           0       -2.347285   -1.924149    0.233196
      2          6           0       -3.298853   -1.105323   -0.410369
      3          6           0       -3.046287    0.234171   -0.690206
      4          6           0       -1.798565    0.719840   -0.299907
      5          6           0       -0.837180   -0.073995    0.336506
      6          6           0       -1.109495   -1.420598    0.613588
      7          6           0        0.261854    0.833610    0.545648
      8          7           0       -0.013799    2.026928    0.089772
      9          8           0       -1.325188    1.978747   -0.456424
     10          6           0        1.600992    0.539555    1.163604
     11          6           0        2.406779   -0.432392    0.338011
     12          6           0        3.563107   -0.102060   -0.252392
     13          7           0        4.414243   -0.958544   -0.952148
     14          1           0       -2.591440   -2.962962    0.433034
     15          1           0       -4.256489   -1.532228   -0.693927
     16          1           0       -3.773845    0.870175   -1.181826
     17          1           0       -0.378545   -2.049603    1.112627
     18          1           0        2.141675    1.484931    1.272571
     19          1           0        1.434271    0.145528    2.177298
     20          1           0        2.008048   -1.439823    0.221216
     21          1           0        3.956087    0.908026   -0.147117
     22          1           0        4.908294   -0.519697   -1.720226
     23          1           0        3.979934   -1.824950   -1.251700
 ---------------------------------------------------------------------

 SCF Done:  E(UB3LYP) =  -571.946768285     A.U. after   31 cycles

 The electronic state is 2-A.
 Alpha  occ. eigenvalues --  -19.05829 -14.20968 -14.20605 -10.10128 -10.08856
 Alpha  occ. eigenvalues --  -10.07189 -10.06715 -10.05045 -10.04846 -10.04596
 Alpha  occ. eigenvalues --  -10.04550 -10.04538 -10.04500  -0.99078  -0.79922
 Alpha  occ. eigenvalues --   -0.74595  -0.73141  -0.66232  -0.63119  -0.62140
 Alpha  occ. eigenvalues --   -0.57054  -0.50692  -0.48506  -0.46635  -0.44627
 Alpha  occ. eigenvalues --   -0.40092  -0.38926  -0.37808  -0.36439  -0.33855
 Alpha  occ. eigenvalues --   -0.33558  -0.31942  -0.30274  -0.29564  -0.27846
 Alpha  occ. eigenvalues --   -0.26340  -0.25425  -0.24434  -0.23195  -0.22719
 Alpha  occ. eigenvalues --   -0.21700  -0.17729  -0.17148  -0.12606  -0.11757
 Alpha  occ. eigenvalues --   -0.09864   0.04756
 Alpha virt. eigenvalues --    0.06380   0.08098   0.09104   0.09386   0.10142
 Alpha virt. eigenvalues --    0.11345   0.11742   0.11996   0.12430   0.13504
 Alpha virt. eigenvalues --    0.14425   0.14758   0.14869   0.16242   0.16610

  Beta  occ. eigenvalues --  -19.05765 -14.20558 -14.20542 -10.10175 -10.08835
  Beta  occ. eigenvalues --  -10.07127 -10.06721 -10.05107 -10.04682 -10.04541
  Beta  occ. eigenvalues --  -10.04497 -10.04381 -10.04293  -0.98856  -0.79833
  Beta  occ. eigenvalues --   -0.74230  -0.72863  -0.66112  -0.62802  -0.61795
  Beta  occ. eigenvalues --   -0.56954  -0.50215  -0.48388  -0.46554  -0.44469
  Beta  occ. eigenvalues --   -0.39983  -0.38747  -0.37708  -0.36303  -0.33673
  Beta  occ. eigenvalues --   -0.33004  -0.31791  -0.30205  -0.29473  -0.27757
  Beta  occ. eigenvalues --   -0.26246  -0.25359  -0.24343  -0.22642  -0.22332
  Beta  occ. eigenvalues --   -0.21596  -0.16699  -0.16640  -0.11528  -0.10647
  Beta  occ. eigenvalues --   -0.09763
  Beta virt. eigenvalues --    0.07673   0.08128   0.09052   0.09236   0.09814
  Beta virt. eigenvalues --    0.10200   0.11476   0.11916   0.12302   0.12575
  Beta virt. eigenvalues --    0.13605   0.14360   0.14792   0.15012   0.16575

 Mulliken charges and spin densities:
               1          2
     1  C   -0.352773  -0.126307
     2  C   -0.298245   0.135328
     3  C   -0.567326   0.135519
     4  C   -0.296332   0.009389
     5  C    0.404715   0.158189
     6  C   -1.084366   0.259568
     7  C    1.121282   0.010603
     8  N   -0.472513   0.201779
     9  O    0.124618   0.007908
    10  C    0.351508  -0.717745
    11  C    0.355870  -0.027157
    12  C   -0.274425  -0.229164
    13  N   -0.211818  -0.085456
    14  H    0.108086   0.017143
    15  H    0.106916  -0.006245
    16  H    0.133477  -0.007223
    17  H    0.062115   0.024011
    18  H    0.154908  -0.006373
    19  H    0.081265   0.051216
    20  H    0.089490   0.052784
    21  H   -0.068789   0.197786
    22  H   -0.408402   0.661857
    23  H   -0.059261   0.282587
 Sum of Mulliken charges =  -1.00000   1.00000

 Dipole moment (field-independent basis, Debye):
    X=             -4.6775    Y=             -1.2972    Z=              2.7263  Tot=              5.5673
 Quadrupole moment (field-independent basis, Debye-Ang):
   XX=           -142.1697   YY=            -99.6784   ZZ=            -96.7961
   XY=              7.1181   XZ=             14.2993   YZ=             -2.0039

 Summary of Natural Population Analysis:

                                       Natural Population
                Natural  -----------------------------------------------
    Atom  No    Charge         Core      Valence    Rydberg      Total
 -----------------------------------------------------------------------
      C    1   -0.13291      0.99959     2.12428    0.00904     3.13291
      C    2   -0.07226      0.99959     2.06350    0.00917     3.07226
      C    3   -0.10504      0.99952     2.09676    0.00875     3.10504
      C    4    0.15621      0.99938     1.83037    0.01404     2.84379
      C    5   -0.07144      0.99944     2.06398    0.00802     3.07144
      C    6   -0.04631      0.99955     2.03885    0.00791     3.04631
      C    7    0.09524      0.99955     1.88961    0.01559     2.90476
      N    8   -0.02477      0.99965     2.51351    0.01162     3.52477
      O    9   -0.18044      0.99985     3.17149    0.00909     4.18044
      C   10   -0.20971      0.99959     2.20073    0.00940     3.20971
      C   11   -0.14233      0.99952     2.13229    0.01052     3.14233
      C   12    0.01297      0.99951     1.97435    0.01318     2.98703
      N   13   -0.40335      0.99974     2.89205    0.01156     3.90335
      H   14    0.09286      0.00000     0.40619    0.00095     0.40714
      H   15    0.08983      0.00000     0.40921    0.00096     0.41017
      H   16    0.09740      0.00000     0.40120    0.00141     0.40260
      H   17    0.09285      0.00000     0.40557    0.00159     0.40715
      H   18    0.10456      0.00000     0.39250    0.00294     0.39544
      H   19    0.10090      0.00000     0.39779    0.00131     0.39910
      H   20    0.09112      0.00000     0.40757    0.00132     0.40888
      H   21    0.08578      0.00000     0.41288    0.00133     0.41422
      H   22    0.18743      0.00000     0.30441    0.00816     0.31257
      H   23    0.18143      0.00000     0.31654    0.00203     0.31857
 =======================================================================
   * Total *   -0.00000     12.99447    32.84564    0.15989    46.00000

 Normal termination of Gaussian 16 at Wed Dec  9 23:42:17 2020.
