 Gaussian 16, Revision A.03,

 -----------------------------------------------------------
 # opt freq B3LYP/6-31G(d) empiricaldispersion=gd3bj scf=xqc
 -----------------------------------------------------------

 ------------------------------
 CID_61609488_JID_4864_neutraal
 ------------------------------
 Symbolic Z-matrix:
 Charge =  0 Multiplicity = 1

 SCF Done:  E(RB3LYP) =  -669.357677212     A.U. after   14 cycles
 SCF Done:  E(RB3LYP) =  -669.365775204     A.U. after   12 cycles
 SCF Done:  E(RB3LYP) =  -669.366080092     A.U. after   11 cycles
 SCF Done:  E(RB3LYP) =  -669.366157935     A.U. after   12 cycles
 SCF Done:  E(RB3LYP) =  -669.366191786     A.U. after   10 cycles
 SCF Done:  E(RB3LYP) =  -669.366193089     A.U. after    8 cycles
 SCF Done:  E(RB3LYP) =  -669.366193470     A.U. after    7 cycles
 SCF Done:  E(RB3LYP) =  -669.366193553     A.U. after    7 cycles
 Optimization completed.
    -- Stationary point found.
 Normal termination of Gaussian 16 at Thu Dec 10 10:40:23 2020.

 --------------------------------------------------------------------
 #N Geom=AllCheck Guess=TCheck SCRF=Check GenChk RB3LYP/6-31G(d) Freq
 --------------------------------------------------------------------

 Structure from the checkpoint file:  "JID_4864.chk"
 ------------------------------
 CID_61609488_JID_4864_neutraal
 ------------------------------
 Charge =  0 Multiplicity = 1

 SCF Done:  E(RB3LYP) =  -669.366193553     A.U. after    1 cycles

  Exact polarizability: 128.925  -4.885 120.467  10.991  -4.311  81.261
 Approx polarizability: 160.959 -18.359 230.282  18.135 -22.082 124.230

                      1                      2                      3
                      A                      A                      A
 Frequencies --     30.0203                62.1731                74.4016
 Red. masses --      4.8591                 5.3527                 4.2972
 Frc consts  --      0.0026                 0.0122                 0.0140
 IR Inten    --      0.3722                 0.2949                 1.3667

                      4                      5                      6
                      A                      A                      A
 Frequencies --    127.2762               142.0976               190.1657
 Red. masses --      4.2736                 7.5266                 3.1764
 Frc consts  --      0.0408                 0.0895                 0.0677
 IR Inten    --      2.9301                 7.9671                 0.4648

                      7                      8                      9
                      A                      A                      A
 Frequencies --    256.6267               295.0273               297.7415
 Red. masses --      2.9403                 3.4673                 4.1651
 Frc consts  --      0.1141                 0.1778                 0.2175
 IR Inten    --      2.2706                 2.9323                 0.2508

                     10                     11                     12
                      A                      A                      A
 Frequencies --    319.1518               355.7180               414.7753
 Red. masses --      2.7551                 2.6082                 3.2183
 Frc consts  --      0.1653                 0.1944                 0.3262
 IR Inten    --      5.9337                 3.3719                17.0118

                     13                     14                     15
                      A                      A                      A
 Frequencies --    426.8498               479.0134               512.6889
 Red. masses --      2.9909                 4.4951                 2.3921
 Frc consts  --      0.3211                 0.6077                 0.3705
 IR Inten    --      3.2432                 7.6161                 3.8782

                     16                     17                     18
                      A                      A                      A
 Frequencies --    568.5884               622.6834               630.1027
 Red. masses --      3.8270                 2.6651                 2.0711
 Frc consts  --      0.7290                 0.6088                 0.4845
 IR Inten    --      0.2059                 1.1515                 1.3535

                     19                     20                     21
                      A                      A                      A
 Frequencies --    646.6723               709.6111               764.8564
 Red. masses --      4.4648                 7.6741                 8.5392
 Frc consts  --      1.1001                 2.2768                 2.9433
 IR Inten    --     12.0814                34.0504                 0.1682

                     22                     23                     24
                      A                      A                      A
 Frequencies --    782.9303               797.8212               835.4324
 Red. masses --      4.6826                 3.0400                 1.7291
 Frc consts  --      1.6912                 1.1401                 0.7110
 IR Inten    --      4.7125                 1.8118                11.7144

                     25                     26                     27
                      A                      A                      A
 Frequencies --    836.9703               854.8005               892.1650
 Red. masses --      1.9185                 2.5276                 2.5981
 Frc consts  --      0.7918                 1.0882                 1.2184
 IR Inten    --     52.6183                 0.3609                11.0458

                     28                     29                     30
                      A                      A                      A
 Frequencies --    905.0818               952.9667               964.8586
 Red. masses --      1.7623                 1.7655                 1.2735
 Frc consts  --      0.8505                 0.9446                 0.6985
 IR Inten    --      7.2745                 3.5585                 0.0066

                     31                     32                     33
                      A                      A                      A
 Frequencies --    987.1102              1041.4091              1060.3534
 Red. masses --      2.5054                 1.7816                 1.7407
 Frc consts  --      1.4383                 1.1384                 1.1531
 IR Inten    --     16.0754                15.9059                17.0187

                     34                     35                     36
                      A                      A                      A
 Frequencies --   1062.8961              1074.2457              1083.4053
 Red. masses --      1.6176                 2.5541                 1.7894
 Frc consts  --      1.0767                 1.7366                 1.2375
 IR Inten    --      5.0322                11.7266                42.9815

                     37                     38                     39
                      A                      A                      A
 Frequencies --   1136.9826              1143.1373              1153.2800
 Red. masses --      3.7123                 2.4909                 2.4805
 Frc consts  --      2.8275                 1.9178                 1.9438
 IR Inten    --     51.3140                43.9492                 2.3304

                     40                     41                     42
                      A                      A                      A
 Frequencies --   1192.0896              1229.4511              1241.6050
 Red. masses --      2.3911                 1.4419                 1.6694
 Frc consts  --      2.0020                 1.2842                 1.5163
 IR Inten    --      8.9125                14.2542                31.0097

                     43                     44                     45
                      A                      A                      A
 Frequencies --   1302.5629              1324.6114              1334.2549
 Red. masses --      1.2367                 1.1687                 1.7745
 Frc consts  --      1.2362                 1.2082                 1.8612
 IR Inten    --      8.6698                 2.9961                 1.2577

                     46                     47                     48
                      A                      A                      A
 Frequencies --   1345.7312              1366.3273              1375.7026
 Red. masses --      1.5217                 1.3399                 1.2932
 Frc consts  --      1.6236                 1.4738                 1.4420
 IR Inten    --     18.1369                13.3486                 2.0120

                     49                     50                     51
                      A                      A                      A
 Frequencies --   1397.6957              1402.4027              1415.0532
 Red. masses --      1.4366                 1.4917                 1.4469
 Frc consts  --      1.6536                 1.7286                 1.7070
 IR Inten    --      3.2662                 2.8415                 9.5604

                     52                     53                     54
                      A                      A                      A
 Frequencies --   1428.5086              1434.3895              1444.0045
 Red. masses --      1.2974                 2.2782                 2.1285
 Frc consts  --      1.5599                 2.7616                 2.6149
 IR Inten    --     29.7384               130.7295               132.9244

                     55                     56                     57
                      A                      A                      A
 Frequencies --   1505.1935              1506.1363              1518.0478
 Red. masses --      1.1065                 1.0985                 1.0887
 Frc consts  --      1.4771                 1.4682                 1.4782
 IR Inten    --     16.6729                 0.6279                11.3298

                     58                     59                     60
                      A                      A                      A
 Frequencies --   1533.6517              1544.6862              1658.2888
 Red. masses --      1.0904                 1.0918                 6.7269
 Frc consts  --      1.5110                 1.5348                10.8989
 IR Inten    --      2.9382                 4.4840                 2.2885

                     61                     62                     63
                      A                      A                      A
 Frequencies --   1801.8534              1858.2779              2999.6626
 Red. masses --     12.2586                11.7799                 1.0719
 Frc consts  --     23.4492                23.9669                 5.6825
 IR Inten    --    523.1883                 5.9644                49.9288

                     64                     65                     66
                      A                      A                      A
 Frequencies --   3042.3309              3051.4512              3054.4342
 Red. masses --      1.0608                 1.0646                 1.0626
 Frc consts  --      5.7847                 5.8403                 5.8411
 IR Inten    --     28.5501                17.3547                15.8301

                     67                     68                     69
                      A                      A                      A
 Frequencies --   3083.9019              3090.2438              3091.8813
 Red. masses --      1.1002                 1.0869                 1.0992
 Frc consts  --      6.1648                 6.1154                 6.1913
 IR Inten    --     41.7626                11.4690                37.3010

                     70                     71                     72
                      A                      A                      A
 Frequencies --   3099.9371              3103.3597              3108.9892
 Red. masses --      1.1008                 1.0639                 1.0937
 Frc consts  --      6.2327                 6.0369                 6.2284
 IR Inten    --     44.1321                32.4206                47.9657

                     73                     74                     75
                      A                      A                      A
 Frequencies --   3160.6832              3257.4373              3277.8549
 Red. masses --      1.1049                 1.0889                 1.1080
 Frc consts  --      6.5035                 6.8077                 7.0139
 IR Inten    --      5.5147                 0.2064                 0.4769

 - Thermochemistry -
 -------------------
 Temperature   298.150 Kelvin.  Pressure   1.00000 Atm.
 Atom     1 has atomic number  6 and mass  12.00000

 Molecular mass:   195.08954 amu.
 Principal axes and moments of inertia in atomic units:
                           1         2         3
     Eigenvalues --  1341.346273789.258354552.69783
           X            0.99997  -0.00626   0.00355
           Y            0.00618   0.99971   0.02323
           Z           -0.00369  -0.02321   0.99972
 This molecule is an asymmetric top.
 Rotational symmetry number  1.
 Warning -- assumption of classical behavior for rotation
           may cause significant error
 Rotational temperatures (Kelvin)      0.06457     0.02286     0.01902
 Rotational constants (GHZ):           1.34547     0.47628     0.39641
 Zero-point vibrational energy     592598.8 (Joules/Mol)
                                  141.63451 (Kcal/Mol)
 Warning -- explicit consideration of  16 degrees of freedom as
           vibrations may cause significant error
 Vibrational temperatures:     43.19    89.45   107.05   183.12   204.45
          (Kelvin)            273.61   369.23   424.48   428.38   459.19
                              511.80   596.77   614.14   689.19   737.65
                              818.07   895.90   906.58   930.42  1020.97
                             1100.46  1126.46  1147.89  1202.00  1204.21
                             1229.87  1283.63  1302.21  1371.11  1388.22
                             1420.23  1498.36  1525.61  1529.27  1545.60
                             1558.78  1635.86  1644.72  1659.31  1715.15
                             1768.91  1786.39  1874.10  1905.82  1919.70
                             1936.21  1965.84  1979.33  2010.97  2017.74
                             2035.95  2055.31  2063.77  2077.60  2165.64
                             2166.99  2184.13  2206.58  2222.46  2385.91
                             2592.47  2673.65  4315.85  4377.24  4390.36
                             4394.65  4437.05  4446.17  4448.53  4460.12
                             4465.04  4473.14  4547.52  4686.73  4716.10

 Zero-point correction=                           0.225709 (Hartree/Particle)
 Thermal correction to Energy=                    0.237823
 Thermal correction to Enthalpy=                  0.238767
 Thermal correction to Gibbs Free Energy=         0.186353
 Sum of electronic and zero-point Energies=           -669.140485
 Sum of electronic and thermal Energies=              -669.128370
 Sum of electronic and thermal Enthalpies=            -669.127426
 Sum of electronic and thermal Free Energies=         -669.179841

                     E (Thermal)             CV                S
                      KCal/Mol        Cal/Mol-Kelvin    Cal/Mol-Kelvin
 Total                  149.236             46.767            110.316
 Electronic               0.000              0.000              0.000
 Translational            0.889              2.981             41.710
 Rotational               0.889              2.981             31.515
 Vibrational            147.459             40.806             37.090
 Vibration     1          0.594              1.984              5.828
 Vibration     2          0.597              1.972              4.387
 Vibration     3          0.599              1.966              4.033
 Vibration     4          0.611              1.926              2.987
 Vibration     5          0.616              1.911              2.775
 Vibration     6          0.633              1.853              2.226
 Vibration     7          0.666              1.752              1.685
 Vibration     8          0.689              1.683              1.445
 Vibration     9          0.691              1.678              1.430
 Vibration    10          0.705              1.637              1.314
 Vibration    11          0.731              1.564              1.141
 Vibration    12          0.778              1.438              0.910
 Vibration    13          0.789              1.412              0.869
 Vibration    14          0.835              1.297              0.713
 Vibration    15          0.868              1.222              0.627
 Vibration    16          0.925              1.099              0.507

                           ! Non-Optimized Parameters !
 Normal termination of Gaussian 16 at Thu Dec 10 10:47:59 2020.

 ----------------------------------------------------------------------
 # B3LYP/6-311++G(d,p) empiricaldispersion=gd3bj scf=xqc pop=npa geom=c
 heck
 ----------------------------------------------------------------------

 --------------------------------------
 CID_61609488_JID_4864_Energie_neutraal
 --------------------------------------
 Structure from the checkpoint file:  "JID_4864.chk"
 Charge =  0 Multiplicity = 1

 SCF Done:  E(RB3LYP) =  -669.555727146     A.U. after   14 cycles
 Normal termination of Gaussian 16 at Thu Dec 10 10:50:42 2020.

 ----------------------------------------------------------------------
 # B3LYP/6-311++G(d,p) empiricaldispersion=gd3bj scf=xqc pop=npa geom=c
 heck
 ----------------------------------------------------------------------

 ------------------------------------
 CID_61609488_JID_4864_Energie_kation
 ------------------------------------
 Structure from the checkpoint file:  "JID_4864.chk"
 Charge =  1 Multiplicity = 2

 SCF Done:  E(UB3LYP) =  -669.227251421     A.U. after   24 cycles
 Normal termination of Gaussian 16 at Thu Dec 10 10:57:22 2020.
 Gaussian 16:  ES64L-G16RevA.03 25-Dec-2016

 ----------------------------------------------------------------------
 # B3LYP/6-311++G(d,p) empiricaldispersion=gd3bj scf=xqc pop=npa geom=c
 heck
 ----------------------------------------------------------------------

 -----------------------------------
 CID_61609488_JID_4864_Energie_anion
 -----------------------------------
 Structure from the checkpoint file:  "JID_4864.chk"
 Charge = -1 Multiplicity = 2

                         Standard orientation:
 ---------------------------------------------------------------------
 Center     Atomic      Atomic             Coordinates (Angstroms)
 Number     Number       Type             X           Y           Z
 ---------------------------------------------------------------------
      1          6           0       -2.131196    1.326100    0.684708
      2          6           0       -3.420425    0.676273    0.167357
      3          6           0       -3.086446   -0.474727   -0.779626
      4          8           0       -2.225741   -1.441378   -0.175831
      5          6           0       -0.996395   -0.920239    0.328739
      6          6           0       -1.228893    0.247678    1.296761
      7          6           0       -0.056413   -0.589622   -0.849371
      8          7           0        1.255258   -0.144750   -0.410954
      9          6           0        2.257171   -0.984149    0.083635
     10          8           0        2.177542   -2.189479    0.199336
     11          6           0        3.414830   -0.088238    0.427537
     12          6           0        3.075718    1.174237    0.149715
     13          6           0        1.675030    1.187159   -0.394730
     14          8           0        1.018063    2.143684   -0.754115
     15          1           0       -1.604701    1.832051   -0.134195
     16          1           0       -2.357948    2.094941    1.432218
     17          1           0       -3.999497    0.282240    1.012888
     18          1           0       -4.053018    1.406146   -0.353026
     19          1           0       -3.983221   -1.032561   -1.064218
     20          1           0       -2.637829   -0.077991   -1.704432
     21          1           0       -0.546769   -1.757045    0.872110
     22          1           0       -0.267876    0.669166    1.612314
     23          1           0       -1.708904   -0.158743    2.195777
     24          1           0        0.063881   -1.487872   -1.459919
     25          1           0       -0.456614    0.210034   -1.474484
     26          1           0        4.338963   -0.480517    0.831372
     27          1           0        3.649929    2.083952    0.266804
 ---------------------------------------------------------------------

 SCF Done:  E(UB3LYP) =  -669.596603675     A.U. after   19 cycles

 The electronic state is 2-A.
 Alpha  occ. eigenvalues --  -19.01462 -18.92483 -18.92280 -14.18561 -10.11643
 Alpha  occ. eigenvalues --  -10.10076 -10.09256 -10.09160 -10.07243 -10.07160
 Alpha  occ. eigenvalues --  -10.05923 -10.05299  -9.99862  -9.99775  -0.92754
 Alpha  occ. eigenvalues --   -0.88946  -0.86927  -0.78569  -0.69514  -0.67483
 Alpha  occ. eigenvalues --   -0.63716  -0.56781  -0.53646  -0.51496  -0.48849
 Alpha  occ. eigenvalues --   -0.44489  -0.42741  -0.39602  -0.38668  -0.36781
 Alpha  occ. eigenvalues --   -0.35221  -0.32905  -0.31883  -0.31210  -0.30609
 Alpha  occ. eigenvalues --   -0.28971  -0.27790  -0.27662  -0.27010  -0.25671
 Alpha  occ. eigenvalues --   -0.25423  -0.24248  -0.23457  -0.22609  -0.22520
 Alpha  occ. eigenvalues --   -0.21808  -0.18680  -0.15525  -0.13098  -0.11447
 Alpha  occ. eigenvalues --   -0.10219  -0.08909   0.03229
 Alpha virt. eigenvalues --    0.07259   0.09034   0.09786   0.10511   0.11112
 Alpha virt. eigenvalues --    0.12087   0.12550   0.12742   0.13198   0.14103
 Alpha virt. eigenvalues --    0.15010   0.15650   0.16350   0.17106   0.18394

  Beta  occ. eigenvalues --  -19.01463 -18.92004 -18.91796 -14.18663 -10.11643
  Beta  occ. eigenvalues --  -10.10080 -10.09036 -10.08954 -10.07241 -10.07160
  Beta  occ. eigenvalues --  -10.05923 -10.05299  -9.99562  -9.99467  -0.92755
  Beta  occ. eigenvalues --   -0.88300  -0.86089  -0.78257  -0.69507  -0.67326
  Beta  occ. eigenvalues --   -0.63320  -0.56565  -0.53645  -0.51447  -0.47731
  Beta  occ. eigenvalues --   -0.44437  -0.42236  -0.39525  -0.38542  -0.36747
  Beta  occ. eigenvalues --   -0.35189  -0.32872  -0.31770  -0.30652  -0.30456
  Beta  occ. eigenvalues --   -0.28374  -0.27696  -0.27459  -0.26465  -0.25272
  Beta  occ. eigenvalues --   -0.25207  -0.23849  -0.22999  -0.22511  -0.22025
  Beta  occ. eigenvalues --   -0.19956  -0.18613  -0.15398  -0.10982  -0.10371
  Beta  occ. eigenvalues --   -0.09270  -0.08428
  Beta virt. eigenvalues --    0.07253   0.09027   0.09777   0.10496   0.10864
  Beta virt. eigenvalues --    0.11093   0.12084   0.12556   0.12738   0.13198
  Beta virt. eigenvalues --    0.14101   0.15010   0.15664   0.16384   0.17113

 Mulliken charges and spin densities:
               1          2
     1  C   -0.315872   0.000840
     2  C   -0.329844  -0.000804
     3  C   -0.250337  -0.000271
     4  O   -0.081616  -0.000070
     5  C   -0.491965   0.000016
     6  C   -0.111265   0.004696
     7  C   -0.179685  -0.015198
     8  N    0.182287  -0.057037
     9  C   -0.192689   0.134209
    10  O   -0.432643   0.164526
    11  C   -0.091730   0.257411
    12  C   -0.139872   0.240991
    13  C   -0.209105   0.147798
    14  O   -0.424109   0.159935
    15  H    0.214181   0.000003
    16  H    0.136110   0.000242
    17  H    0.130296   0.000196
    18  H    0.118754   0.000127
    19  H    0.159644   0.000290
    20  H    0.114692  -0.000096
    21  H    0.242595   0.002302
    22  H    0.202931  -0.001181
    23  H    0.129041   0.000279
    24  H    0.209984  -0.001633
    25  H    0.181953  -0.001118
    26  H    0.113654  -0.018766
    27  H    0.114607  -0.017685
 Sum of Mulliken charges =  -1.00000   1.00000

 Dipole moment (field-independent basis, Debye):
    X=             -7.7583    Y=              1.0583    Z=              0.5105  Tot=              7.8468
 Quadrupole moment (field-independent basis, Debye-Ang):
   XX=           -113.3642   YY=           -115.7285   ZZ=            -89.2743
   XY=              0.8505   XZ=              1.3042   YZ=              4.6254

 Summary of Natural Population Analysis:

                                       Natural Population
                Natural  -----------------------------------------------
    Atom  No    Charge         Core      Valence    Rydberg      Total
 -----------------------------------------------------------------------
      C    1   -0.19895      0.99963     2.19143    0.00788     3.19895
      C    2   -0.20333      0.99964     2.19742    0.00627     3.20333
      C    3   -0.01035      0.99958     1.99926    0.01151     3.01035
      O    4   -0.30945      0.99989     3.29796    0.01160     4.30945
      C    5    0.06235      0.99955     1.92549    0.01261     2.93765
      C    6   -0.20465      0.99961     2.19733    0.00771     3.20465
      C    7   -0.09834      0.99960     2.08709    0.01165     3.09834
      N    8   -0.29623      0.99960     2.78556    0.01107     3.79623
      C    9    0.35964      0.99968     1.61811    0.02257     2.64036
      O   10   -0.27201      0.99987     3.26529    0.00685     4.27201
      C   11   -0.07436      0.99951     2.06574    0.00911     3.07436
      C   12   -0.07981      0.99950     2.07109    0.00921     3.07981
      C   13    0.36149      0.99967     1.61630    0.02253     2.63851
      O   14   -0.27788      0.99987     3.27123    0.00678     4.27788
      H   15    0.11156      0.00000     0.38702    0.00142     0.38844
      H   16    0.09377      0.00000     0.40502    0.00122     0.40623
      H   17    0.09061      0.00000     0.40792    0.00147     0.40939
      H   18    0.09457      0.00000     0.40429    0.00114     0.40543
      H   19    0.08486      0.00000     0.41398    0.00115     0.41514
      H   20    0.07657      0.00000     0.42186    0.00157     0.42343
      H   21    0.10144      0.00000     0.39721    0.00136     0.39856
      H   22    0.11453      0.00000     0.38455    0.00092     0.38547
      H   23    0.09148      0.00000     0.40735    0.00117     0.40852
      H   24    0.10270      0.00000     0.39594    0.00135     0.39730
      H   25    0.10192      0.00000     0.39664    0.00144     0.39808
      H   26    0.08889      0.00000     0.40993    0.00118     0.41111
      H   27    0.08897      0.00000     0.40983    0.00119     0.41103
 =======================================================================
   * Total *    0.00000     13.99521    37.83085    0.17394    52.00000

 Normal termination of Gaussian 16 at Thu Dec 10 11:03:15 2020.
