 Gaussian 16, Revision A.03,

 -----------------------------------------------------------
 # opt freq B3LYP/6-31G(d) empiricaldispersion=gd3bj scf=xqc
 -----------------------------------------------------------

 ------------------------------
 CID_43106833_JID_4360_neutraal
 ------------------------------
 Symbolic Z-matrix:
 Charge =  0 Multiplicity = 1

 SCF Done:  E(RB3LYP) =  -629.554379416     A.U. after   15 cycles
 SCF Done:  E(RB3LYP) =  -629.559747252     A.U. after   12 cycles
 SCF Done:  E(RB3LYP) =  -629.560196161     A.U. after   11 cycles
 SCF Done:  E(RB3LYP) =  -629.560281954     A.U. after   11 cycles
 SCF Done:  E(RB3LYP) =  -629.560326014     A.U. after    9 cycles
 SCF Done:  E(RB3LYP) =  -629.560332737     A.U. after    9 cycles
 SCF Done:  E(RB3LYP) =  -629.560333813     A.U. after    8 cycles
 SCF Done:  E(RB3LYP) =  -629.560334190     A.U. after    7 cycles
 SCF Done:  E(RB3LYP) =  -629.560334497     A.U. after    8 cycles
 SCF Done:  E(RB3LYP) =  -629.560335316     A.U. after    9 cycles
 SCF Done:  E(RB3LYP) =  -629.560345625     A.U. after    7 cycles
 SCF Done:  E(RB3LYP) =  -629.560347478     A.U. after   11 cycles
 SCF Done:  E(RB3LYP) =  -629.560350029     A.U. after   10 cycles
 SCF Done:  E(RB3LYP) =  -629.560350186     A.U. after    7 cycles
 SCF Done:  E(RB3LYP) =  -629.560350227     A.U. after    7 cycles
 Optimization completed.
    -- Stationary point found.
 Normal termination of Gaussian 16 at Thu Dec 10 09:30:55 2020.

 --------------------------------------------------------------------
 #N Geom=AllCheck Guess=TCheck SCRF=Check GenChk RB3LYP/6-31G(d) Freq
 --------------------------------------------------------------------

 Structure from the checkpoint file:  "JID_4360.chk"
 ------------------------------
 CID_43106833_JID_4360_neutraal
 ------------------------------
 Charge =  0 Multiplicity = 1

 SCF Done:  E(RB3LYP) =  -629.560350227     A.U. after    1 cycles

  Exact polarizability: 163.540   2.633 101.891   0.934   3.198  99.256
 Approx polarizability: 196.322   6.886 165.053   3.766  20.308 155.664

                      1                      2                      3
                      A                      A                      A
 Frequencies --     13.5853                71.6493                73.9135
 Red. masses --      3.8405                 2.9940                 3.3295
 Frc consts  --      0.0004                 0.0091                 0.0107
 IR Inten    --      0.0629                 0.2064                 0.3419

                      4                      5                      6
                      A                      A                      A
 Frequencies --     90.6118               143.3334               166.3761
 Red. masses --      6.4156                 3.6035                 3.2341
 Frc consts  --      0.0310                 0.0436                 0.0527
 IR Inten    --      0.0447                 0.5706                 0.9076

                      7                      8                      9
                      A                      A                      A
 Frequencies --    234.1284               243.1895               313.4400
 Red. masses --      3.9000                 1.9285                 3.5185
 Frc consts  --      0.1260                 0.0672                 0.2037
 IR Inten    --      0.9947                 1.5092                 0.5812

                     10                     11                     12
                      A                      A                      A
 Frequencies --    340.9822               366.9723               434.7123
 Red. masses --      4.1449                 2.2116                 4.9067
 Frc consts  --      0.2839                 0.1755                 0.5463
 IR Inten    --      1.2397                 0.6240                 5.9492

                     13                     14                     15
                      A                      A                      A
 Frequencies --    438.0019               456.3598               501.7560
 Red. masses --      4.4781                 3.9965                 3.1742
 Frc consts  --      0.5062                 0.4904                 0.4708
 IR Inten    --      3.4692                 2.6512                 1.6890

                     16                     17                     18
                      A                      A                      A
 Frequencies --    542.4284               672.9751               721.3254
 Red. masses --      1.5807                 2.7613                 7.5003
 Frc consts  --      0.2740                 0.7368                 2.2993
 IR Inten    --     15.5694                 3.4441                 1.2884

                     19                     20                     21
                      A                      A                      A
 Frequencies --    778.2838               784.2091               791.9797
 Red. masses --      2.6337                 2.5923                 2.0885
 Frc consts  --      0.9399                 0.9393                 0.7718
 IR Inten    --     34.0078                20.5360                28.6848

                     22                     23                     24
                      A                      A                      A
 Frequencies --    806.2604               839.5426               842.3697
 Red. masses --      1.1157                 1.7635                 2.7666
 Frc consts  --      0.4273                 0.7323                 1.1567
 IR Inten    --      0.8107                 9.8846                 1.6165

                     25                     26                     27
                      A                      A                      A
 Frequencies --    865.3061               895.5429               906.9965
 Red. masses --      1.6339                 2.0847                 6.6832
 Frc consts  --      0.7208                 0.9851                 3.2393
 IR Inten    --     10.2366                 3.8652                10.9554

                     28                     29                     30
                      A                      A                      A
 Frequencies --    924.4358               930.2720               940.9350
 Red. masses --      2.7729                 4.2965                 2.4579
 Frc consts  --      1.3962                 2.1907                 1.2822
 IR Inten    --      0.1131                26.3867                 1.7861

                     31                     32                     33
                      A                      A                      A
 Frequencies --    956.1552              1023.5477              1032.7484
 Red. masses --      1.6722                 8.8498                 3.4449
 Frc consts  --      0.9007                 5.4626                 2.1648
 IR Inten    --      3.4615                 1.3635                25.5098

                     34                     35                     36
                      A                      A                      A
 Frequencies --   1061.9173              1073.1783              1073.8978
 Red. masses --      2.3056                 1.9413                 1.3892
 Frc consts  --      1.5319                 1.3173                 0.9439
 IR Inten    --      2.5665                 3.8922                16.5871

                     37                     38                     39
                      A                      A                      A
 Frequencies --   1086.1085              1095.1366              1096.0561
 Red. masses --      1.5819                 1.5331                 1.3440
 Frc consts  --      1.0994                 1.0833                 0.9513
 IR Inten    --      0.6432                19.2364                 3.0413

                     40                     41                     42
                      A                      A                      A
 Frequencies --   1137.5826              1141.1170              1156.5619
 Red. masses --      1.1019                 3.2103                 2.3588
 Frc consts  --      0.8401                 2.4629                 1.8590
 IR Inten    --      1.9746                35.5274                 9.2580

                     43                     44                     45
                      A                      A                      A
 Frequencies --   1187.9505              1218.1345              1231.6438
 Red. masses --      1.2337                 1.3716                 2.1770
 Frc consts  --      1.0258                 1.1991                 1.9457
 IR Inten    --      2.2132                 0.5702                 2.4048

                     46                     47                     48
                      A                      A                      A
 Frequencies --   1241.5509              1284.6425              1307.9690
 Red. masses --      1.4834                 1.5770                 1.2798
 Frc consts  --      1.3472                 1.5333                 1.2900
 IR Inten    --      2.3834                17.4114                 2.8224

                     49                     50                     51
                      A                      A                      A
 Frequencies --   1331.3484              1347.8053              1365.6558
 Red. masses --      2.2458                 1.3989                 1.7447
 Frc consts  --      2.3453                 1.4972                 1.9171
 IR Inten    --     10.9571                12.3234                20.6952

                     52                     53                     54
                      A                      A                      A
 Frequencies --   1368.9753              1381.7060              1398.0465
 Red. masses --      1.3516                 1.3833                 1.4126
 Frc consts  --      1.4924                 1.5560                 1.6267
 IR Inten    --     89.4947                10.9656                 4.1773

                     55                     56                     57
                      A                      A                      A
 Frequencies --   1403.7297              1421.1549              1428.4605
 Red. masses --      1.4665                 6.8526                 1.4552
 Frc consts  --      1.7026                 8.1543                 1.7495
 IR Inten    --      1.4960                66.4274                 7.6138

                     58                     59                     60
                      A                      A                      A
 Frequencies --   1486.2906              1503.4810              1512.4185
 Red. masses --      1.0880                 1.1367                 1.2515
 Frc consts  --      1.4161                 1.5139                 1.6866
 IR Inten    --      2.1015                 8.6386                 3.3535

                     61                     62                     63
                      A                      A                      A
 Frequencies --   1514.1692              1522.9845              1523.1330
 Red. masses --      1.0857                 1.1086                 1.2929
 Frc consts  --      1.4665                 1.5150                 1.7673
 IR Inten    --      6.3831                 5.1101                 4.0326

                     64                     65                     66
                      A                      A                      A
 Frequencies --   1535.1546              1584.3587              1637.5325
 Red. masses --      1.1053                 7.9401                 8.7957
 Frc consts  --      1.5347                11.7432                13.8964
 IR Inten    --      1.7746                23.5572               122.0788

                     67                     68                     69
                      A                      A                      A
 Frequencies --   2926.0186              2957.9025              3029.7791
 Red. masses --      1.0737                 1.0815                 1.0672
 Frc consts  --      5.4160                 5.5752                 5.7718
 IR Inten    --     78.7477                38.7470                30.3365

                     70                     71                     72
                      A                      A                      A
 Frequencies --   3051.9673              3062.1270              3084.7420
 Red. masses --      1.0610                 1.0611                 1.0938
 Frc consts  --      5.8227                 5.8619                 6.1323
 IR Inten    --     21.9350                15.9274                49.5407

                     73                     74                     75
                      A                      A                      A
 Frequencies --   3090.5668              3097.4567              3110.7213
 Red. masses --      1.0884                 1.1054                 1.1057
 Frc consts  --      6.1250                 6.2486                 6.3037
 IR Inten    --     50.2566                34.7769                31.3292

                     76                     77                     78
                      A                      A                      A
 Frequencies --   3158.0759              3160.3175              3202.5048
 Red. masses --      1.0504                 1.0582                 1.0904
 Frc consts  --      6.1724                 6.2271                 6.5891
 IR Inten    --     15.3702                 9.8624                 3.2344

                     79                     80                     81
                      A                      A                      A
 Frequencies --   3239.6209              3252.6126              3497.7779
 Red. masses --      1.1203                 1.1165                 1.0748
 Frc consts  --      6.9271                 6.9597                 7.7474
 IR Inten    --      0.3208                13.1077                 0.2259

 - Thermochemistry -
 -------------------
 Temperature   298.150 Kelvin.  Pressure   1.00000 Atm.
 Atom     1 has atomic number  6 and mass  12.00000

 Molecular mass:   193.12151 amu.
 Principal axes and moments of inertia in atomic units:
                           1         2         3
     Eigenvalues --   905.896155792.879735879.26031
           X            0.99999   0.00229   0.00266
           Y           -0.00156   0.96914  -0.24650
           Z           -0.00314   0.24650   0.96914
 This molecule is an asymmetric top.
 Rotational symmetry number  1.
 Warning -- assumption of classical behavior for rotation
           may cause significant error
 Rotational temperatures (Kelvin)      0.09561     0.01495     0.01473
 Rotational constants (GHZ):           1.99222     0.31154     0.30697
 Zero-point vibrational energy     656309.4 (Joules/Mol)
                                  156.86172 (Kcal/Mol)
 Warning -- explicit consideration of  16 degrees of freedom as
           vibrations may cause significant error
 Vibrational temperatures:     19.55   103.09   106.35   130.37   206.22
          (Kelvin)            239.38   336.86   349.90   450.97   490.60
                              527.99   625.45   630.19   656.60   721.92
                              780.43   968.26  1037.83  1119.78  1128.30
                             1139.48  1160.03  1207.91  1211.98  1244.98
                             1288.49  1304.97  1330.06  1338.45  1353.80
                             1375.69  1472.66  1485.89  1527.86  1544.06
                             1545.10  1562.67  1575.66  1576.98  1636.73
                             1641.81  1664.03  1709.20  1752.62  1772.06
                             1786.31  1848.31  1881.88  1915.51  1939.19
                             1964.87  1969.65  1987.97  2011.48  2019.65
                             2044.72  2055.24  2138.44  2163.17  2176.03
                             2178.55  2191.24  2191.45  2208.75  2279.54
                             2356.04  4209.89  4255.76  4359.18  4391.10
                             4405.72  4438.26  4446.64  4456.55  4475.63
                             4543.77  4546.99  4607.69  4661.09  4679.78
                             5032.52

 Zero-point correction=                           0.249975 (Hartree/Particle)
 Thermal correction to Energy=                    0.262201
 Thermal correction to Enthalpy=                  0.263146
 Thermal correction to Gibbs Free Energy=         0.209543
 Sum of electronic and zero-point Energies=           -629.310375
 Sum of electronic and thermal Energies=              -629.298149
 Sum of electronic and thermal Enthalpies=            -629.297205
 Sum of electronic and thermal Free Energies=         -629.350807

                     E (Thermal)             CV                S
                      KCal/Mol        Cal/Mol-Kelvin    Cal/Mol-Kelvin
 Total                  164.534             47.260            112.815
 Electronic               0.000              0.000              0.000
 Translational            0.889              2.981             41.680
 Rotational               0.889              2.981             31.801
 Vibrational            162.756             41.298             39.335
 Vibration     1          0.593              1.986              7.402
 Vibration     2          0.598              1.968              4.108
 Vibration     3          0.599              1.966              4.046
 Vibration     4          0.602              1.956              3.647
 Vibration     5          0.616              1.910              2.759
 Vibration     6          0.624              1.884              2.476
 Vibration     7          0.654              1.789              1.847
 Vibration     8          0.659              1.774              1.779
 Vibration     9          0.701              1.648              1.344
 Vibration    10          0.720              1.594              1.208
 Vibration    11          0.740              1.540              1.092
 Vibration    12          0.795              1.395              0.843
 Vibration    13          0.798              1.387              0.833
 Vibration    14          0.815              1.347              0.777
 Vibration    15          0.857              1.246              0.654
 Vibration    16          0.898              1.156              0.560

                           ! Non-Optimized Parameters !
 Normal termination of Gaussian 16 at Thu Dec 10 09:38:47 2020.

 ----------------------------------------------------------------------
 # B3LYP/6-311++G(d,p) empiricaldispersion=gd3bj scf=xqc pop=npa geom=c
 heck
 ----------------------------------------------------------------------

 --------------------------------------
 CID_43106833_JID_4360_Energie_neutraal
 --------------------------------------
 Structure from the checkpoint file:  "JID_4360.chk"
 Charge =  0 Multiplicity = 1

 SCF Done:  E(RB3LYP) =  -629.730212524     A.U. after   14 cycles
 Normal termination of Gaussian 16 at Thu Dec 10 09:42:20 2020.

 ----------------------------------------------------------------------
 # B3LYP/6-311++G(d,p) empiricaldispersion=gd3bj scf=xqc pop=npa geom=c
 heck
 ----------------------------------------------------------------------

 ------------------------------------
 CID_43106833_JID_4360_Energie_kation
 ------------------------------------
 Structure from the checkpoint file:  "JID_4360.chk"
 Charge =  1 Multiplicity = 2

 SCF Done:  E(UB3LYP) =  -629.413854522     A.U. after   24 cycles
 Normal termination of Gaussian 16 at Thu Dec 10 09:51:06 2020.
 Gaussian 16:  ES64L-G16RevA.03 25-Dec-2016

 ----------------------------------------------------------------------
 # B3LYP/6-311++G(d,p) empiricaldispersion=gd3bj scf=xqc pop=npa geom=c
 heck
 ----------------------------------------------------------------------

 -----------------------------------
 CID_43106833_JID_4360_Energie_anion
 -----------------------------------
 Structure from the checkpoint file:  "JID_4360.chk"
 Charge = -1 Multiplicity = 2

                         Standard orientation:
 ---------------------------------------------------------------------
 Center     Atomic      Atomic             Coordinates (Angstroms)
 Number     Number       Type             X           Y           Z
 ---------------------------------------------------------------------
      1          6           0       -3.416978    1.258341   -0.571263
      2          6           0       -4.170259    0.060833    0.020858
      3          6           0       -3.385321   -0.533277    1.191312
      4          7           0       -2.043355   -0.914564    0.743392
      5          6           0       -1.270280    0.241596    0.281692
      6          6           0       -1.980073    0.867844   -0.935904
      7          6           0        0.122407   -0.176365   -0.069890
      8          7           0        1.238160    0.346814    0.351986
      9          6           0        2.192150   -0.395290   -0.323711
     10          7           0        1.700291   -1.322493   -1.110737
     11          8           0        0.302890   -1.178878   -0.943657
     12          6           0        3.635212   -0.168676   -0.172284
     13          6           0        4.133959    1.248370    0.045778
     14          6           0        4.169810    0.269711    1.179076
     15          1           0       -3.936362    1.645756   -1.455406
     16          1           0       -3.394258    2.073981    0.165814
     17          1           0       -5.169508    0.360757    0.358006
     18          1           0       -4.295622   -0.713095   -0.746277
     19          1           0       -3.358450    0.204826    2.017546
     20          1           0       -3.881938   -1.432182    1.571570
     21          1           0       -1.544818   -1.375486    1.501720
     22          1           0       -1.161947    1.020878    1.057889
     23          1           0       -1.982318    0.128325   -1.744451
     24          1           0       -1.410836    1.739643   -1.277720
     25          1           0        4.250113   -0.835392   -0.767529
     26          1           0        5.065192    1.524516   -0.439621
     27          1           0        3.380873    2.029200    0.078775
     28          1           0        3.441055    0.393170    1.973795
     29          1           0        5.126262   -0.140700    1.488672
 ---------------------------------------------------------------------

 SCF Done:  E(UB3LYP) =  -629.716521392     A.U. after   33 cycles
 SCF Done:  E(UB3LYP) =  -629.716521392     a.u. after    1 cycles

 The electronic state is 2-A.
 Alpha  occ. eigenvalues --  -19.11343 -14.26199 -14.22073 -14.20657 -10.17411
 Alpha  occ. eigenvalues --  -10.14415 -10.12298 -10.10358 -10.09507 -10.09000
 Alpha  occ. eigenvalues --  -10.08902 -10.07810 -10.07327 -10.06863  -1.06102
 Alpha  occ. eigenvalues --   -0.84354  -0.82982  -0.78378  -0.76198  -0.69615
 Alpha  occ. eigenvalues --   -0.67081  -0.57778  -0.57040  -0.54007  -0.51752
 Alpha  occ. eigenvalues --   -0.50628  -0.48979  -0.46117  -0.43598  -0.39918
 Alpha  occ. eigenvalues --   -0.39817  -0.39327  -0.37544  -0.36092  -0.34335
 Alpha  occ. eigenvalues --   -0.33448  -0.31966  -0.31421  -0.30237  -0.29058
 Alpha  occ. eigenvalues --   -0.28542  -0.26364  -0.25962  -0.24696  -0.24002
 Alpha  occ. eigenvalues --   -0.23091  -0.22748  -0.22263  -0.20937  -0.20210
 Alpha  occ. eigenvalues --   -0.17387  -0.13985   0.04287
 Alpha virt. eigenvalues --    0.05574   0.06588   0.07111   0.07809   0.08100
 Alpha virt. eigenvalues --    0.08417   0.08924   0.10090   0.10305   0.10962
 Alpha virt. eigenvalues --    0.11355   0.11799   0.12534   0.12649   0.13023

  Beta  occ. eigenvalues --  -19.11284 -14.26145 -14.22064 -14.20619 -10.17343
  Beta  occ. eigenvalues --  -10.14404 -10.12294 -10.10355 -10.09477 -10.08986
  Beta  occ. eigenvalues --  -10.08876 -10.07803 -10.07304 -10.06846  -1.06006
  Beta  occ. eigenvalues --   -0.84296  -0.82923  -0.78330  -0.76131  -0.69569
  Beta  occ. eigenvalues --   -0.67028  -0.57736  -0.56949  -0.53935  -0.51694
  Beta  occ. eigenvalues --   -0.50568  -0.48932  -0.46058  -0.43536  -0.39860
  Beta  occ. eigenvalues --   -0.39756  -0.39098  -0.37500  -0.36044  -0.34287
  Beta  occ. eigenvalues --   -0.33406  -0.31910  -0.31364  -0.30177  -0.29023
  Beta  occ. eigenvalues --   -0.28495  -0.26317  -0.25847  -0.24619  -0.23960
  Beta  occ. eigenvalues --   -0.23021  -0.22680  -0.22231  -0.20818  -0.20163
  Beta  occ. eigenvalues --   -0.17160  -0.13924
  Beta virt. eigenvalues --    0.06485   0.06782   0.07270   0.07863   0.08152
  Beta virt. eigenvalues --    0.08602   0.08910   0.09168   0.10586   0.10705
  Beta virt. eigenvalues --    0.11212   0.11569   0.12245   0.12704   0.12759

 Mulliken charges and spin densities:
               1          2
     1  C    0.262576  -0.519556
     2  C   -0.208209  -0.173401
     3  C    1.038445  -1.272714
     4  N   -0.184030   0.180436
     5  C   -0.181170  -0.123028
     6  C   -0.521626   0.374774
     7  C   -0.103268  -0.976787
     8  N   -0.038108   0.094626
     9  C    1.529591  -1.215273
    10  N   -0.365948   0.003482
    11  O    0.227673   0.030334
    12  C   -1.396630   1.925761
    13  C    0.449531  -0.924117
    14  C    0.401974  -0.883088
    15  H   -0.458401   0.636343
    16  H    0.025925   0.101586
    17  H   -0.478606   0.650874
    18  H    0.227513  -0.099334
    19  H   -0.239151   0.361385
    20  H   -0.367157   0.536483
    21  H   -0.076540   0.341843
    22  H    0.013257   0.174266
    23  H    0.116755   0.050656
    24  H    0.078586   0.064919
    25  H   -0.217233   0.494862
    26  H   -0.408552   0.564290
    27  H    0.050437   0.111111
    28  H   -0.033926   0.197609
    29  H   -0.143706   0.291659
 Sum of Mulliken charges =  -1.00000   1.00000

 Dipole moment (field-independent basis, Debye):
    X=              1.0534    Y=             -0.0657    Z=             -1.2234  Tot=              1.6158
 Quadrupole moment (field-independent basis, Debye-Ang):
   XX=           -192.8696   YY=           -119.0016   ZZ=           -116.6284
   XY=              0.7513   XZ=              7.4759   YZ=             -0.3970

 Summary of Natural Population Analysis:

                                       Natural Population
                Natural  -----------------------------------------------
    Atom  No    Charge         Core      Valence    Rydberg      Total
 -----------------------------------------------------------------------
      C    1   -0.19110      0.99963     2.18255    0.00892     3.19110
      C    2   -0.19458      0.99963     2.18592    0.00903     3.19458
      C    3   -0.08571      0.99962     2.07452    0.01156     3.08571
      N    4   -0.33436      0.99973     2.82315    0.01148     3.83436
      C    5   -0.03826      0.99954     2.02612    0.01260     3.03826
      C    6   -0.18696      0.99961     2.17811    0.00924     3.18696
      C    7    0.30346      0.99959     1.67659    0.02036     2.69654
      N    8   -0.27319      0.99967     2.76495    0.00858     3.77319
      C    9    0.17533      0.99961     1.80637    0.01868     2.82467
      N   10   -0.08854      0.99967     2.57754    0.01134     3.58854
      O   11   -0.16211      0.99985     3.15450    0.00777     4.16211
      C   12   -0.13726      0.99955     2.12617    0.01154     3.13726
      C   13   -0.18902      0.99963     2.18025    0.00914     3.18902
      C   14   -0.18927      0.99963     2.18198    0.00765     3.18927
      H   15    0.10145      0.00000     0.39728    0.00127     0.39855
      H   16    0.09488      0.00000     0.40358    0.00154     0.40512
      H   17    0.10192      0.00000     0.39647    0.00162     0.39808
      H   18    0.09584      0.00000     0.40281    0.00135     0.40416
      H   19    0.07862      0.00000     0.41912    0.00226     0.42138
      H   20    0.09757      0.00000     0.40114    0.00129     0.40243
      H   21    0.17937      0.00000     0.31778    0.00285     0.32063
      H   22    0.09523      0.00000     0.40250    0.00228     0.40477
      H   23    0.10180      0.00000     0.39664    0.00156     0.39820
      H   24    0.10159      0.00000     0.39757    0.00084     0.39841
      H   25    0.11530      0.00000     0.38344    0.00125     0.38470
      H   26    0.10540      0.00000     0.39296    0.00164     0.39460
      H   27    0.10948      0.00000     0.38941    0.00111     0.39052
      H   28    0.10938      0.00000     0.38940    0.00122     0.39062
      H   29    0.10374      0.00000     0.39518    0.00108     0.39626
 =======================================================================
   * Total *    0.00000     13.99494    37.82401    0.18105    52.00000

 Normal termination of Gaussian 16 at Thu Dec 10 10:03:17 2020.
