 Gaussian 16, Revision A.03,

 -----------------------------------------------------------
 # opt freq B3LYP/6-31G(d) empiricaldispersion=gd3bj scf=xqc
 -----------------------------------------------------------

 ------------------------------
 CID_130515760_JID_253_neutraal
 ------------------------------
 Symbolic Z-matrix:
 Charge =  0 Multiplicity = 1

 SCF Done:  E(RB3LYP) =  -463.658723386     A.U. after   14 cycles
 SCF Done:  E(RB3LYP) =  -463.677274795     A.U. after   13 cycles
 SCF Done:  E(RB3LYP) =  -463.678416515     A.U. after   12 cycles
 SCF Done:  E(RB3LYP) =  -463.677508662     A.U. after   14 cycles
 SCF Done:  E(RB3LYP) =  -463.678730014     A.U. after   11 cycles
 SCF Done:  E(RB3LYP) =  -463.678722080     A.U. after   11 cycles
 SCF Done:  E(RB3LYP) =  -463.678827198     A.U. after   11 cycles
 SCF Done:  E(RB3LYP) =  -463.678828169     A.U. after   10 cycles
 SCF Done:  E(RB3LYP) =  -463.678839908     A.U. after   10 cycles
 SCF Done:  E(RB3LYP) =  -463.678841380     A.U. after    8 cycles
 SCF Done:  E(RB3LYP) =  -463.678842119     A.U. after    8 cycles
 SCF Done:  E(RB3LYP) =  -463.678842269     A.U. after    7 cycles
 Optimization completed.
    -- Stationary point found.

 1\1\GINC-NODE115\FOpt\RB3LYP\6-31G(d)\C8H14O2\VSC10255\08-Dec-2020\0\\
 # opt freq B3LYP/6-31G(d) empiricaldispersion=gd3bj scf=xqc\\CID_13051
 5760_JID_253_neutraal\\0,1\C,1.0290304937,-0.052495752,0.0453637006\C,
 0.5412655045,-0.8488959908,1.1673865671\C,0.1404538092,-1.5162510517,2
 .0934341087\C,-0.3506443039,-2.301870242,3.239400905\C,-1.5364155592,-
 1.5825273806,3.8987213389\C,-0.7710694038,-3.7220556212,2.7476078247\C
 ,0.4135047828,-4.5287387216,2.2181990228\O,-1.5547044419,-4.4168461486
 ,3.7097384916\C,-0.871000976,-5.0013059588,4.8110523\O,0.7098185903,-2

 Normal termination of Gaussian 16 at Tue Dec  8 10:22:14 2020.

 --------------------------------------------------------------------
 #N Geom=AllCheck Guess=TCheck SCRF=Check GenChk RB3LYP/6-31G(d) Freq
 --------------------------------------------------------------------

 Structure from the checkpoint file:  "JID_253.chk"
 ------------------------------
 CID_130515760_JID_253_neutraal
 ------------------------------
 Charge =  0 Multiplicity = 1

 SCF Done:  E(RB3LYP) =  -463.678842269     A.U. after    1 cycles

  Exact polarizability: 123.349  -5.616  78.651   2.570  -0.708  70.172
 Approx polarizability: 164.095 -11.502 102.845   4.871  -2.439 104.609

                      1                      2                      3
                      A                      A                      A
 Frequencies --     15.6817                57.9713                75.5401
 Red. masses --      1.0184                 3.3023                 3.3181
 Frc consts  --      0.0001                 0.0065                 0.0112
 IR Inten    --      0.0111                 1.2060                 1.0134

                      4                      5                      6
                      A                      A                      A
 Frequencies --    101.3566               126.7661               193.0984
 Red. masses --      1.9018                 2.5226                 1.5341
 Frc consts  --      0.0115                 0.0239                 0.0337
 IR Inten    --      0.9453                 1.1889                 1.9551

                      7                      8                      9
                      A                      A                      A
 Frequencies --    234.5120               245.6551               251.7712
 Red. masses --      1.2455                 1.7331                 1.1234
 Frc consts  --      0.0404                 0.0616                 0.0420
 IR Inten    --      2.7028                38.6814                22.1418

                     10                     11                     12
                      A                      A                      A
 Frequencies --    267.3673               278.9891               299.4949
 Red. masses --      1.7688                 2.3787                 3.1337
 Frc consts  --      0.0745                 0.1091                 0.1656
 IR Inten    --     30.6793                14.7205                 0.4099

                     13                     14                     15
                      A                      A                      A
 Frequencies --    315.3055               324.2701               366.1811
 Red. masses --      2.8950                 2.6245                 3.6857
 Frc consts  --      0.1696                 0.1626                 0.2912
 IR Inten    --     13.7027                 8.8505                10.5149

                     16                     17                     18
                      A                      A                      A
 Frequencies --    418.9289               422.0484               539.3380
 Red. masses --      4.0534                 3.8312                 3.8985
 Frc consts  --      0.4191                 0.4021                 0.6681
 IR Inten    --      7.3447                 6.5021                 7.5563

                     19                     20                     21
                      A                      A                      A
 Frequencies --    551.5973               600.0112               733.9802
 Red. masses --      5.5742                 3.9072                 3.0087
 Frc consts  --      0.9993                 0.8288                 0.9550
 IR Inten    --      9.2056                 3.1253                14.9695

                     22                     23                     24
                      A                      A                      A
 Frequencies --    811.3607               880.0447               934.2861
 Red. masses --      2.7123                 2.4042                 2.4203
 Frc consts  --      1.0520                 1.0971                 1.2447
 IR Inten    --     14.0865                 8.4427                27.0883

                     25                     26                     27
                      A                      A                      A
 Frequencies --   1020.1351              1033.6476              1067.7595
 Red. masses --      1.7989                 2.2756                 2.1820
 Frc consts  --      1.1030                 1.4325                 1.4657
 IR Inten    --     18.1398                44.1130                35.2378

                     28                     29                     30
                      A                      A                      A
 Frequencies --   1069.0559              1070.8007              1105.7663
 Red. masses --      1.4020                 1.3981                 2.5405
 Frc consts  --      0.9441                 0.9445                 1.8302
 IR Inten    --      2.3686                 2.6419                15.1349

                     31                     32                     33
                      A                      A                      A
 Frequencies --   1127.8633              1178.3174              1192.0317
 Red. masses --      2.1839                 2.5330                 1.4369
 Frc consts  --      1.6368                 2.0721                 1.2030
 IR Inten    --     17.3334                12.6620                58.5247

                     34                     35                     36
                      A                      A                      A
 Frequencies --   1199.1567              1236.7752              1249.9193
 Red. masses --      2.2969                 2.0709                 2.5715
 Frc consts  --      1.9460                 1.8663                 2.3670
 IR Inten    --    171.9338                 4.6219                40.1757

                     37                     38                     39
                      A                      A                      A
 Frequencies --   1345.6939              1386.3220              1415.5323
 Red. masses --      1.4068                 1.4621                 1.2373
 Frc consts  --      1.5009                 1.6556                 1.4607
 IR Inten    --     23.3477                22.0734                 8.5286

                     40                     41                     42
                      A                      A                      A
 Frequencies --   1428.9996              1433.4974              1443.4275
 Red. masses --      1.2510                 1.2587                 1.2386
 Frc consts  --      1.5051                 1.5239                 1.5205
 IR Inten    --     20.1708                 2.8681                 5.5217

                     43                     44                     45
                      A                      A                      A
 Frequencies --   1499.3136              1507.2073              1508.5603
 Red. masses --      1.1346                 1.0403                 1.0405
 Frc consts  --      1.5027                 1.3923                 1.3951
 IR Inten    --      0.0375                 6.3172                 7.6906

                     46                     47                     48
                      A                      A                      A
 Frequencies --   1511.1809              1515.2933              1519.8586
 Red. masses --      1.0511                 1.0491                 1.0489
 Frc consts  --      1.4143                 1.4193                 1.4276
 IR Inten    --      2.4221                 0.2350                 8.4135

                     49                     50                     51
                      A                      A                      A
 Frequencies --   1522.3063              1539.8976              1551.0382
 Red. masses --      1.0557                 1.0626                 1.0489
 Frc consts  --      1.4415                 1.4846                 1.4867
 IR Inten    --      1.1888                 3.3208                 7.0251

                     52                     53                     54
                      A                      A                      A
 Frequencies --   2363.8844              3033.8973              3040.5902
 Red. masses --     11.8829                 1.0381                 1.0345
 Frc consts  --     39.1222                 5.6299                 5.6352
 IR Inten    --      8.0743                69.3406                31.1503

                     55                     56                     57
                      A                      A                      A
 Frequencies --   3061.8599              3070.5295              3074.2131
 Red. masses --      1.0385                 1.0514                 1.0687
 Frc consts  --      5.7364                 5.8405                 5.9505
 IR Inten    --     16.9183                24.6643                13.4733

                     58                     59                     60
                      A                      A                      A
 Frequencies --   3102.0345              3102.8889              3105.2369
 Red. masses --      1.1018                 1.1014                 1.0948
 Frc consts  --      6.2464                 6.2476                 6.2197
 IR Inten    --     11.6928                10.8275                42.2554

                     61                     62                     63
                      A                      A                      A
 Frequencies --   3128.1461              3139.4260              3140.8997
 Red. masses --      1.1018                 1.1065                 1.1021
 Frc consts  --      6.3521                 6.4255                 6.4057
 IR Inten    --     23.0504                25.8053                25.2092

                     64                     65                     66
                      A                      A                      A
 Frequencies --   3159.5371              3167.6903              3739.2283
 Red. masses --      1.1014                 1.1010                 1.0663
 Frc consts  --      6.4777                 6.5093                 8.7844
 IR Inten    --     16.0836                16.5910                13.1344

 - Thermochemistry -
 -------------------
 Temperature   298.150 Kelvin.  Pressure   1.00000 Atm.
 Atom     1 has atomic number  6 and mass  12.00000

 Molecular mass:   142.09938 amu.
 Principal axes and moments of inertia in atomic units:
                           1         2         3
     Eigenvalues --   750.450552422.883622674.98196
           X            0.99995  -0.00358   0.00951
           Y            0.00326   0.99942   0.03390
           Z           -0.00963  -0.03387   0.99938
 This molecule is an asymmetric top.
 Rotational symmetry number  1.
 Warning -- assumption of classical behavior for rotation
           may cause significant error
 Rotational temperatures (Kelvin)      0.11542     0.03575     0.03238
 Rotational constants (GHZ):           2.40488     0.74487     0.67467
 Zero-point vibrational energy     545227.8 (Joules/Mol)
                                  130.31258 (Kcal/Mol)
 Warning -- explicit consideration of  20 degrees of freedom as
           vibrations may cause significant error
 Vibrational temperatures:     22.56    83.41   108.69   145.83   182.39
          (Kelvin)            277.83   337.41   353.44   362.24   384.68
                              401.40   430.91   453.65   466.55   526.85
                              602.75   607.23   775.99   793.63   863.28
                             1056.03  1167.37  1266.19  1344.23  1467.75
                             1487.19  1536.27  1538.13  1540.64  1590.95
                             1622.74  1695.34  1715.07  1725.32  1779.44
                             1798.36  1936.15  1994.61  2036.64  2056.01
                             2062.48  2076.77  2157.18  2168.54  2170.48
                             2174.25  2180.17  2186.74  2190.26  2215.57
                             2231.60  3401.10  4365.10  4374.73  4405.33
                             4417.81  4423.11  4463.14  4464.37  4467.74
                             4500.70  4516.93  4519.05  4545.87  4557.60
                             5379.92

 Zero-point correction=                           0.207666 (Hartree/Particle)
 Thermal correction to Energy=                    0.220717
 Thermal correction to Enthalpy=                  0.221661
 Thermal correction to Gibbs Free Energy=         0.167692
 Sum of electronic and zero-point Energies=           -463.471176
 Sum of electronic and thermal Energies=              -463.458126
 Sum of electronic and thermal Enthalpies=            -463.457182
 Sum of electronic and thermal Free Energies=         -463.511151

                     E (Thermal)             CV                S
                      KCal/Mol        Cal/Mol-Kelvin    Cal/Mol-Kelvin
 Total                  138.502             45.824            113.588
 Electronic               0.000              0.000              0.000
 Translational            0.889              2.981             40.765
 Rotational               0.889              2.981             29.965
 Vibrational            136.724             39.862             42.857
 Vibration     1          0.593              1.986              7.117
 Vibration     2          0.596              1.974              4.525
 Vibration     3          0.599              1.965              4.004
 Vibration     4          0.604              1.948              3.428
 Vibration     5          0.611              1.926              2.995
 Vibration     6          0.635              1.849              2.198
 Vibration     7          0.654              1.788              1.844
 Vibration     8          0.660              1.770              1.762
 Vibration     9          0.664              1.760              1.718
 Vibration    10          0.672              1.733              1.613
 Vibration    11          0.679              1.712              1.540
 Vibration    12          0.692              1.675              1.420
 Vibration    13          0.703              1.644              1.334
 Vibration    14          0.709              1.627              1.288
 Vibration    15          0.739              1.542              1.096
 Vibration    16          0.782              1.429              0.896
 Vibration    17          0.784              1.422              0.885
 Vibration    18          0.894              1.163              0.567
 Vibration    19          0.907              1.136              0.541
 Vibration    20          0.958              1.032              0.450

                           ! Non-Optimized Parameters !

 1\1\GINC-NODE115\Freq\RB3LYP\6-31G(d)\C8H14O2\VSC10255\08-Dec-2020\0\\
 #N Geom=AllCheck Guess=TCheck SCRF=Check GenChk RB3LYP/6-31G(d) Freq\\
 CID_130515760_JID_253_neutraal\\0,1\C,1.0290304937,-0.052495752,0.0453
 637006\C,0.5412655045,-0.8488959908,1.1673865671\C,0.1404538092,-1.516
 2510517,2.0934341087\C,-0.3506443039,-2.301870242,3.239400905\C,-1.536
 4155592,-1.5825273806,3.8987213389\C,-0.7710694038,-3.7220556212,2.747
 6078247\C,0.4135047828,-4.5287387216,2.2181990228\O,-1.5547044419,-4.4
 168461486,3.7097384916\C,-0.871000976,-5.0013059588,4.8110523\O,0.7098

 Normal termination of Gaussian 16 at Tue Dec  8 10:26:44 2020.

 ----------------------------------------------------------------------
 # B3LYP/6-311++G(d,p) empiricaldispersion=gd3bj scf=xqc pop=npa geom=c
 heck
 ----------------------------------------------------------------------

 --------------------------------------
 CID_130515760_JID_253_Energie_neutraal
 --------------------------------------
 Structure from the checkpoint file:  "JID_253.chk"
 Charge =  0 Multiplicity = 1

 SCF Done:  E(RB3LYP) =  -463.824946521     A.U. after   13 cycles
 Normal termination of Gaussian 16 at Tue Dec  8 10:28:35 2020.

 ----------------------------------------------------------------------
 # B3LYP/6-311++G(d,p) empiricaldispersion=gd3bj scf=xqc pop=npa geom=c
 heck
 ----------------------------------------------------------------------

 ------------------------------------
 CID_130515760_JID_253_Energie_kation
 ------------------------------------
 Structure from the checkpoint file:  "JID_253.chk"
 Charge =  1 Multiplicity = 2

 SCF Done:  E(UB3LYP) =  -463.506003027     A.U. after   22 cycles
 Normal termination of Gaussian 16 at Tue Dec  8 10:33:39 2020.
 Gaussian 16:  ES64L-G16RevA.03 25-Dec-2016

 -----------------------------------
 CID_130515760_JID_253_Energie_anion
 -----------------------------------
 Structure from the checkpoint file:  "JID_253.chk"
 Charge = -1 Multiplicity = 2

                         Standard orientation:
 ---------------------------------------------------------------------
 Center     Atomic      Atomic             Coordinates (Angstroms)
 Number     Number       Type             X           Y           Z
 ---------------------------------------------------------------------
      1          6           0       -4.049896    0.421439   -0.121085
      2          6           0       -2.631906    0.082209   -0.048077
      3          6           0       -1.454783   -0.190215    0.013105
      4          6           0       -0.028845   -0.552878    0.095516
      5          6           0        0.205256   -1.915221   -0.573385
      6          6           0        0.824999    0.555366   -0.596069
      7          6           0        0.735219    1.896766    0.129749
      8          8           0        2.157400    0.129429   -0.852584
      9          6           0        3.062544    0.117253    0.244002
     10          8           0        0.382869   -0.604641    1.475144
     11          1           0       -4.663948   -0.464239   -0.323542
     12          1           0       -4.240399    1.148102   -0.919917
     13          1           0       -4.400266    0.863524    0.819288
     14          1           0       -0.084182   -1.884148   -1.628529
     15          1           0        1.262294   -2.178323   -0.507265
     16          1           0       -0.396354   -2.684684   -0.077388
     17          1           0        0.398464    0.667664   -1.598982
     18          1           0        1.047614    1.811285    1.172638
     19          1           0        1.364288    2.635161   -0.377420
     20          1           0       -0.299389    2.250784    0.118909
     21          1           0        3.234649    1.125040    0.645186
     22          1           0        2.718937   -0.531389    1.055701
     23          1           0        4.006474   -0.262371   -0.156708
     24          1           0       -0.245849   -1.183025    1.935016
 ---------------------------------------------------------------------

 SCF Done:  E(UB3LYP) =  -463.810451400     A.U. after   28 cycles

 The electronic state is 2-A.
 Alpha  occ. eigenvalues --  -19.02143 -19.01878 -10.14427 -10.12133 -10.10575
 Alpha  occ. eigenvalues --  -10.07484 -10.06086 -10.05597 -10.05328 -10.04809
 Alpha  occ. eigenvalues --   -0.93712  -0.91759  -0.69869  -0.66328  -0.63463
 Alpha  occ. eigenvalues --   -0.59479  -0.58456  -0.53487  -0.47337  -0.44312
 Alpha  occ. eigenvalues --   -0.38729  -0.36370  -0.35999  -0.35172  -0.32856
 Alpha  occ. eigenvalues --   -0.32568  -0.31686  -0.31642  -0.30369  -0.29121
 Alpha  occ. eigenvalues --   -0.28839  -0.26857  -0.25156  -0.24757  -0.20536
 Alpha  occ. eigenvalues --   -0.18740  -0.16744  -0.15302  -0.14274   0.04706
 Alpha virt. eigenvalues --    0.06977   0.07925   0.08763   0.08948   0.10146
 Alpha virt. eigenvalues --    0.10628   0.10849   0.11489   0.12240   0.12343
 Alpha virt. eigenvalues --    0.13292   0.14313   0.14560   0.14778   0.15685

  Beta  occ. eigenvalues --  -19.02141 -19.01843 -10.14423 -10.12126 -10.10557
  Beta  occ. eigenvalues --  -10.07407 -10.06077 -10.05572 -10.05309 -10.04805
  Beta  occ. eigenvalues --   -0.93689  -0.91702  -0.69835  -0.66262  -0.63427
  Beta  occ. eigenvalues --   -0.59426  -0.58397  -0.53427  -0.47300  -0.44254
  Beta  occ. eigenvalues --   -0.38710  -0.36337  -0.35962  -0.35094  -0.32820
  Beta  occ. eigenvalues --   -0.32540  -0.31613  -0.31563  -0.30339  -0.29097
  Beta  occ. eigenvalues --   -0.28815  -0.26825  -0.25131  -0.24725  -0.20520
  Beta  occ. eigenvalues --   -0.18702  -0.16729  -0.15268  -0.14245
  Beta virt. eigenvalues --    0.06876   0.07856   0.08551   0.09347   0.09386
  Beta virt. eigenvalues --    0.10838   0.11109   0.11185   0.11954   0.12644
  Beta virt. eigenvalues --    0.12709   0.13572   0.14470   0.14709   0.14978

 Mulliken charges and spin densities:
               1          2
     1  C    2.791185  -3.427186
     2  C   -1.524703   1.471934
     3  C    0.426868  -0.110699
     4  C   -1.229110   1.007831
     5  C    0.837998  -1.324508
     6  C   -0.464537   0.457794
     7  C    0.377523  -1.076928
     8  O   -0.095870  -0.003889
     9  C    0.333537  -0.596416
    10  O   -0.196121   0.027986
    11  H   -0.588204   0.755743
    12  H   -0.480450   0.640019
    13  H   -0.523372   0.685492
    14  H   -0.058297   0.216847
    15  H    0.038214   0.095860
    16  H   -0.267949   0.420430
    17  H   -0.286257   0.509485
    18  H    0.027778   0.163110
    19  H   -0.069207   0.206058
    20  H    0.141365  -0.002611
    21  H   -0.068268   0.189371
    22  H    0.029428   0.145121
    23  H   -0.040454   0.179562
    24  H   -0.111096   0.369596
 Sum of Mulliken charges =  -1.00000   1.00000

 Dipole moment (field-independent basis, Debye):
    X=              7.2583    Y=              0.3532    Z=             -0.2503  Tot=              7.2712
 Quadrupole moment (field-independent basis, Debye-Ang):
   XX=           -136.0619   YY=            -93.9846   ZZ=            -93.8755
   XY=              0.8467   XZ=              1.0803   YZ=              1.7238

 Summary of Natural Population Analysis:

                                       Natural Population
                Natural  -----------------------------------------------
    Atom  No    Charge         Core      Valence    Rydberg      Total
 -----------------------------------------------------------------------
      C    1   -0.31852      0.99961     2.31283    0.00608     3.31852
      C    2    0.02096      0.99924     1.97260    0.00720     2.97904
      C    3   -0.04408      0.99923     2.03171    0.01314     3.04408
      C    4    0.08869      0.99945     1.89400    0.01786     2.91131
      C    5   -0.28618      0.99962     2.27864    0.00792     3.28618
      C    6    0.07256      0.99950     1.91051    0.01743     2.92744
      C    7   -0.30426      0.99964     2.29986    0.00477     3.30426
      O    8   -0.30551      0.99988     3.29535    0.01027     4.30551
      C    9   -0.10256      0.99959     2.09455    0.00841     3.10256
      O   10   -0.37547      0.99989     3.36830    0.00728     4.37547
      H   11    0.11412      0.00000     0.38214    0.00374     0.38588
      H   12    0.11263      0.00000     0.38497    0.00240     0.38737
      H   13    0.11424      0.00000     0.38252    0.00324     0.38576
      H   14    0.10401      0.00000     0.39489    0.00110     0.39599
      H   15    0.10519      0.00000     0.39353    0.00128     0.39481
      H   16    0.10171      0.00000     0.39704    0.00125     0.39829
      H   17    0.09564      0.00000     0.40247    0.00189     0.40436
      H   18    0.10571      0.00000     0.39270    0.00159     0.39429
      H   19    0.09873      0.00000     0.40026    0.00101     0.40127
      H   20    0.11249      0.00000     0.38637    0.00114     0.38751
      H   21    0.07766      0.00000     0.42073    0.00161     0.42234
      H   22    0.09178      0.00000     0.40648    0.00174     0.40822
      H   23    0.08456      0.00000     0.41429    0.00115     0.41544
      H   24    0.23588      0.00000     0.25906    0.00506     0.26412
 =======================================================================
   * Total *   -0.00000      9.99567    28.87579    0.12854    39.00000

 Normal termination of Gaussian 16 at Tue Dec  8 10:42:30 2020.
