 Gaussian 16, Revision A.03,

 -----------------------------------------------------------
 # opt freq B3LYP/6-31G(d) empiricaldispersion=gd3bj scf=xqc
 -----------------------------------------------------------

 ----------------------------
 CID_276791_JID_7000_neutraal
 ----------------------------
 Symbolic Z-matrix:
 Charge =  0 Multiplicity = 1

 SCF Done:  E(RB3LYP) =  -859.100987092     A.U. after   14 cycles
 SCF Done:  E(RB3LYP) =  -859.104774140     A.U. after   12 cycles
 SCF Done:  E(RB3LYP) =  -859.103978599     A.U. after   13 cycles
 SCF Done:  E(RB3LYP) =  -859.104449643     A.U. after   12 cycles
 SCF Done:  E(RB3LYP) =  -859.105209041     A.U. after    9 cycles
 SCF Done:  E(RB3LYP) =  -859.105558814     A.U. after   13 cycles
 SCF Done:  E(RB3LYP) =  -859.105522594     A.U. after   12 cycles
 SCF Done:  E(RB3LYP) =  -859.105896091     A.U. after   11 cycles
 SCF Done:  E(RB3LYP) =  -859.105986001     A.U. after   12 cycles
 SCF Done:  E(RB3LYP) =  -859.106004175     A.U. after   10 cycles
 SCF Done:  E(RB3LYP) =  -859.106009382     A.U. after    9 cycles
 SCF Done:  E(RB3LYP) =  -859.106009629     A.U. after    8 cycles
 SCF Done:  E(RB3LYP) =  -859.106009811     A.U. after    8 cycles
 SCF Done:  E(RB3LYP) =  -859.106009864     A.U. after    7 cycles
 SCF Done:  E(RB3LYP) =  -859.106009890     A.U. after    7 cycles
 Optimization completed.
    -- Stationary point found.
 Normal termination of Gaussian 16 at Fri Dec 11 11:54:11 2020.

 --------------------------------------------------------------------
 #N Geom=AllCheck Guess=TCheck SCRF=Check GenChk RB3LYP/6-31G(d) Freq
 --------------------------------------------------------------------

 Structure from the checkpoint file:  "JID_7000.chk"
 ----------------------------
 CID_276791_JID_7000_neutraal
 ----------------------------
 Charge =  0 Multiplicity = 1

 SCF Done:  E(RB3LYP) =  -859.106009890     A.U. after    1 cycles

  Exact polarizability: 145.836   2.026 165.587  15.200   1.238  97.395
 Approx polarizability: 209.013   0.838 255.437  33.502   0.613 147.431

                      1                      2                      3
                      A                      A                      A
 Frequencies --     12.3702                28.3538                58.1793
 Red. masses --      5.9335                 6.9570                 5.7282
 Frc consts  --      0.0005                 0.0033                 0.0114
 IR Inten    --      0.4656                 1.9096                 1.5363

                      4                      5                      6
                      A                      A                      A
 Frequencies --     70.1681                95.7890               107.2227
 Red. masses --      3.5417                 3.7343                 3.9776
 Frc consts  --      0.0103                 0.0202                 0.0269
 IR Inten    --      5.9738                 0.0179                 0.0014

                      7                      8                      9
                      A                      A                      A
 Frequencies --    159.9902               185.4248               204.9357
 Red. masses --      4.6026                 3.7406                 1.7555
 Frc consts  --      0.0694                 0.0758                 0.0434
 IR Inten    --      2.4176                 4.9294                 0.5062

                     10                     11                     12
                      A                      A                      A
 Frequencies --    205.1622               230.9352               250.8060
 Red. masses --      3.6978                 2.5143                 3.0185
 Frc consts  --      0.0917                 0.0790                 0.1119
 IR Inten    --      3.3084                 2.1918                 3.6545

                     13                     14                     15
                      A                      A                      A
 Frequencies --    270.5343               271.5691               293.7006
 Red. masses --      1.7748                 3.2202                 1.6407
 Frc consts  --      0.0765                 0.1399                 0.0834
 IR Inten    --      5.5102                 1.3628                 0.0382

                     16                     17                     18
                      A                      A                      A
 Frequencies --    314.6830               323.9636               340.2586
 Red. masses --      2.8301                 5.2907                 2.0572
 Frc consts  --      0.1651                 0.3272                 0.1403
 IR Inten    --      9.9693                 1.5073                17.9102

                     19                     20                     21
                      A                      A                      A
 Frequencies --    373.5408               379.1746               439.7534
 Red. masses --      3.7460                 3.4353                 5.2665
 Frc consts  --      0.3080                 0.2910                 0.6001
 IR Inten    --      7.3932                 7.9796                10.8684

                     22                     23                     24
                      A                      A                      A
 Frequencies --    496.1262               528.5114               577.1114
 Red. masses --      5.9384                 4.9690                 4.0419
 Frc consts  --      0.8612                 0.8178                 0.7932
 IR Inten    --      1.2283                16.8568                20.9176

                     25                     26                     27
                      A                      A                      A
 Frequencies --    593.6072               623.0891               627.2273
 Red. masses --      4.1212                 3.3031                 3.2503
 Frc consts  --      0.8556                 0.7556                 0.7534
 IR Inten    --      7.5009                50.9031                20.8005

                     28                     29                     30
                      A                      A                      A
 Frequencies --    654.0352               663.0292               693.3367
 Red. masses --      1.3254                 1.4444                 2.7422
 Frc consts  --      0.3340                 0.3741                 0.7767
 IR Inten    --     67.8735               177.7340                 5.3232

                     31                     32                     33
                      A                      A                      A
 Frequencies --    736.1845               745.3800               806.3135
 Red. masses --      3.4749                 3.1091                 2.8847
 Frc consts  --      1.1096                 1.0178                 1.1050
 IR Inten    --     23.1003                59.9303                20.0254

                     34                     35                     36
                      A                      A                      A
 Frequencies --    832.3603               834.9814               857.4521
 Red. masses --      3.0789                 1.7728                 1.5192
 Frc consts  --      1.2568                 0.7282                 0.6581
 IR Inten    --     31.0134                28.4223                35.7779

                     37                     38                     39
                      A                      A                      A
 Frequencies --    861.0097               892.1180               948.4372
 Red. masses --      1.4953                 1.6385                 5.4511
 Frc consts  --      0.6531                 0.7683                 2.8890
 IR Inten    --      5.4273               118.9719                 6.5717

                     40                     41                     42
                      A                      A                      A
 Frequencies --    984.7022              1014.5393              1022.6585
 Red. masses --      3.3507                 4.6058                 4.3769
 Frc consts  --      1.9142                 2.7931                 2.6970
 IR Inten    --     53.0774                 6.0258                 0.9494

                     43                     44                     45
                      A                      A                      A
 Frequencies --   1080.2390              1095.0248              1100.3660
 Red. masses --      2.8082                 4.3276                 1.8256
 Frc consts  --      1.9307                 3.0573                 1.3023
 IR Inten    --     20.3875                 2.8269                30.9754

                     46                     47                     48
                      A                      A                      A
 Frequencies --   1139.4300              1182.0888              1186.2809
 Red. masses --      2.9324                 2.2212                 1.2707
 Frc consts  --      2.2431                 1.8287                 1.0536
 IR Inten    --     31.4768               257.2799                 0.7712

                     49                     50                     51
                      A                      A                      A
 Frequencies --   1186.4884              1193.9626              1204.1259
 Red. masses --      1.2705                 1.5922                 1.9047
 Frc consts  --      1.0538                 1.3373                 1.6272
 IR Inten    --      0.1580                10.5042               212.4171

                     52                     53                     54
                      A                      A                      A
 Frequencies --   1219.2022              1227.9974              1237.2352
 Red. masses --      1.3712                 1.4167                 2.1721
 Frc consts  --      1.2009                 1.2587                 1.9590
 IR Inten    --     25.6896                 7.3685               271.5455

                     55                     56                     57
                      A                      A                      A
 Frequencies --   1279.3379              1302.0927              1324.7893
 Red. masses --      1.3991                 1.4625                 1.4355
 Frc consts  --      1.3492                 1.4609                 1.4844
 IR Inten    --      6.7052                18.9117                10.7755

                     58                     59                     60
                      A                      A                      A
 Frequencies --   1337.9975              1371.1755              1391.0563
 Red. masses --      1.5144                 4.7196                 4.6165
 Frc consts  --      1.5973                 5.2281                 5.2632
 IR Inten    --      9.8144                91.0141                41.8718

                     61                     62                     63
                      A                      A                      A
 Frequencies --   1411.4522              1428.2335              1477.5071
 Red. masses --      1.3627                 2.0413                 1.6303
 Frc consts  --      1.5995                 2.4534                 2.0970
 IR Inten    --      5.0640                60.2880                69.0019

                     64                     65                     66
                      A                      A                      A
 Frequencies --   1488.4574              1506.6044              1519.7386
 Red. masses --      1.2326                 1.3253                 1.9029
 Frc consts  --      1.6089                 1.7724                 2.5894
 IR Inten    --    124.1253                 1.5531                43.6667

                     67                     68                     69
                      A                      A                      A
 Frequencies --   1520.7497              1521.1706              1523.7118
 Red. masses --      1.0506                 1.0479                 2.0995
 Frc consts  --      1.4316                 1.4287                 2.8719
 IR Inten    --      3.6695                 7.4087                27.3513

                     70                     71                     72
                      A                      A                      A
 Frequencies --   1536.0922              1541.8117              1652.3196
 Red. masses --      1.0506                 1.2632                 5.7526
 Frc consts  --      1.4606                 1.7692                 9.2535
 IR Inten    --     46.8350                 1.9983                95.2111

                     73                     74                     75
                      A                      A                      A
 Frequencies --   1670.4301              1676.4459              1801.2275
 Red. masses --      4.6918                 1.1633                 8.6799
 Frc consts  --      7.7134                 1.9262                16.5921
 IR Inten    --    222.0164                66.5856               190.3242

                     76                     77                     78
                      A                      A                      A
 Frequencies --   3024.3593              3029.1526              3079.1667
 Red. masses --      1.0349                 1.0344                 1.0855
 Frc consts  --      5.5772                 5.5919                 6.0636
 IR Inten    --     51.1683                46.4346                14.3225

                     79                     80                     81
                      A                      A                      A
 Frequencies --   3082.4864              3088.9750              3117.5110
 Red. masses --      1.1065                 1.1067                 1.0856
 Frc consts  --      6.1945                 6.2219                 6.2163
 IR Inten    --     44.4942                40.1184                14.9398

                     82                     83                     84
                      A                      A                      A
 Frequencies --   3157.9407              3158.3038              3220.8945
 Red. masses --      1.0996                 1.1003                 1.0889
 Frc consts  --      6.4609                 6.4663                 6.6554
 IR Inten    --     29.7910                29.9832                 7.0909

                     85                     86                     87
                      A                      A                      A
 Frequencies --   3234.3643              3261.8796              3481.2292
 Red. masses --      1.0914                 1.0886                 1.0485
 Frc consts  --      6.7268                 6.8243                 7.4869
 IR Inten    --      0.9879                 2.6781                 2.5963

                     88                     89                     90
                      A                      A                      A
 Frequencies --   3574.2498              3608.7259              3660.9419
 Red. masses --      1.0941                 1.0655                 1.0637
 Frc consts  --      8.2352                 8.1756                 8.3996
 IR Inten    --      3.9598               117.3725                36.4638

 - Thermochemistry -
 -------------------
 Temperature   298.150 Kelvin.  Pressure   1.00000 Atm.
 Atom     1 has atomic number  6 and mass  12.00000

 Molecular mass:   241.09502 amu.
 Principal axes and moments of inertia in atomic units:
                           1         2         3
     Eigenvalues --  3404.381875045.215106924.39710
           X            0.99993   0.01066   0.00499
           Y           -0.01068   0.99993   0.00523
           Z           -0.00493  -0.00528   0.99997
 This molecule is an asymmetric top.
 Rotational symmetry number  1.
 Warning -- assumption of classical behavior for rotation
           may cause significant error
 Rotational temperatures (Kelvin)      0.02544     0.01717     0.01251
 Rotational constants (GHZ):           0.53012     0.35771     0.26064
 Zero-point vibrational energy     686200.4 (Joules/Mol)
                                  164.00583 (Kcal/Mol)
 Warning -- explicit consideration of  25 degrees of freedom as
           vibrations may cause significant error
 Vibrational temperatures:     17.80    40.79    83.71   100.96   137.82
          (Kelvin)            154.27   230.19   266.78   294.86   295.18
                              332.26   360.85   389.24   390.73   422.57
                              452.76   466.11   489.56   537.44   545.55
                              632.71   713.81   760.41   830.33   854.07
                              896.49   902.44   941.01   953.95   997.56
                             1059.21  1072.44  1160.11  1197.58  1201.35
                             1233.68  1238.80  1283.56  1364.59  1416.77
                             1459.70  1471.38  1554.22  1575.50  1583.18
                             1639.39  1700.76  1706.79  1707.09  1717.85
                             1732.47  1754.16  1766.81  1780.11  1840.68
                             1873.42  1906.08  1925.08  1972.82  2001.42
                             2030.76  2054.91  2125.80  2141.56  2167.67
                             2186.56  2188.02  2188.63  2192.28  2210.09
                             2218.32  2377.32  2403.38  2412.03  2591.56
                             4351.38  4358.27  4430.23  4435.01  4444.35
                             4485.40  4543.57  4544.09  4634.15  4653.53
                             4693.12  5008.71  5142.55  5192.15  5267.28

 Zero-point correction=                           0.261360 (Hartree/Particle)
 Thermal correction to Energy=                    0.278362
 Thermal correction to Enthalpy=                  0.279306
 Thermal correction to Gibbs Free Energy=         0.214967
 Sum of electronic and zero-point Energies=           -858.844650
 Sum of electronic and thermal Energies=              -858.827648
 Sum of electronic and thermal Enthalpies=            -858.826704
 Sum of electronic and thermal Free Energies=         -858.891043

                     E (Thermal)             CV                S
                      KCal/Mol        Cal/Mol-Kelvin    Cal/Mol-Kelvin
 Total                  174.675             63.394            135.412
 Electronic               0.000              0.000              0.000
 Translational            0.889              2.981             42.341
 Rotational               0.889              2.981             33.142
 Vibrational            172.897             57.433             59.930
 Vibration     1          0.593              1.987              7.588
 Vibration     2          0.593              1.984              5.941
 Vibration     3          0.596              1.974              4.518
 Vibration     4          0.598              1.968              4.149
 Vibration     5          0.603              1.952              3.538
 Vibration     6          0.606              1.943              3.319
 Vibration     7          0.622              1.891              2.550
 Vibration     8          0.631              1.860              2.273
 Vibration     9          0.640              1.833              2.088
 Vibration    10          0.640              1.833              2.086
 Vibration    11          0.653              1.794              1.872
 Vibration    12          0.663              1.761              1.725
 Vibration    13          0.674              1.727              1.593
 Vibration    14          0.675              1.726              1.586
 Vibration    15          0.688              1.685              1.453
 Vibration    16          0.702              1.646              1.338
 Vibration    17          0.709              1.628              1.290
 Vibration    18          0.720              1.595              1.211
 Vibration    19          0.745              1.526              1.065
 Vibration    20          0.749              1.515              1.042
 Vibration    21          0.800              1.383              0.827
 Vibration    22          0.852              1.259              0.668
 Vibration    23          0.883              1.187              0.591
 Vibration    24          0.934              1.081              0.491
 Vibration    25          0.951              1.045              0.461

 Optimization completed.
    -- Stationary point found.
 Normal termination of Gaussian 16 at Fri Dec 11 12:06:53 2020.

 ----------------------------------------------------------------------
 # B3LYP/6-311++G(d,p) empiricaldispersion=gd3bj scf=xqc pop=npa geom=c
 heck
 ----------------------------------------------------------------------

 ------------------------------------
 CID_276791_JID_7000_Energie_neutraal
 ------------------------------------
 Structure from the checkpoint file:  "JID_7000.chk"
 Charge =  0 Multiplicity = 1

 SCF Done:  E(RB3LYP) =  -859.374661100     A.U. after   16 cycles
 Normal termination of Gaussian 16 at Fri Dec 11 12:12:16 2020.

 ----------------------------------------------------------------------
 # B3LYP/6-311++G(d,p) empiricaldispersion=gd3bj scf=xqc pop=npa geom=c
 heck
 ----------------------------------------------------------------------

 ----------------------------------
 CID_276791_JID_7000_Energie_kation
 ----------------------------------
 Structure from the checkpoint file:  "JID_7000.chk"
 Charge =  1 Multiplicity = 2

 SCF Done:  E(UB3LYP) =  -859.081803124     A.U. after   26 cycles
 Normal termination of Gaussian 16 at Fri Dec 11 12:23:03 2020.
 Gaussian 16:  ES64L-G16RevA.03 25-Dec-2016

 ----------------------------------------------------------------------
 # B3LYP/6-311++G(d,p) empiricaldispersion=gd3bj scf=xqc pop=npa geom=c
 heck
 ----------------------------------------------------------------------

 ---------------------------------
 CID_276791_JID_7000_Energie_anion
 ---------------------------------
 Structure from the checkpoint file:  "JID_7000.chk"
 Charge = -1 Multiplicity = 2

                         Standard orientation:
 ---------------------------------------------------------------------
 Center     Atomic      Atomic             Coordinates (Angstroms)
 Number     Number       Type             X           Y           Z
 ---------------------------------------------------------------------
      1          6           0        2.067682   -3.634309   -0.074539
      2          8           0        2.688689   -2.391109    0.202041
      3          6           0        1.974088   -1.252080   -0.034278
      4          6           0        2.633773   -0.057871    0.262200
      5          6           0        1.988628    1.158830    0.046452
      6          6           0        0.680693    1.191497   -0.458250
      7          6           0        0.027828   -0.005878   -0.740805
      8          6           0        0.667668   -1.233941   -0.536874
      9          6           0       -1.408880    0.006150   -1.250505
     10          6           0       -2.354270   -0.710959   -0.255539
     11          6           0       -2.340697    0.039092    1.074424
     12          8           0       -2.418261    1.251616    1.193058
     13          8           0       -2.301909   -0.781876    2.140772
     14          7           0       -3.692593   -0.769733   -0.839248
     15          8           0       -1.904618    1.303840   -1.536300
     16          8           0        2.711868    2.272902    0.357629
     17          6           0        2.099652    3.537390    0.161594
     18          1           0        2.799496   -4.400054    0.188345
     19          1           0        1.809247   -3.729116   -1.137502
     20          1           0        1.161154   -3.775450    0.529000
     21          1           0        3.644815   -0.077969    0.651621
     22          1           0        0.172228    2.124224   -0.655121
     23          1           0        0.153279   -2.155840   -0.780636
     24          1           0       -1.472252   -0.548885   -2.192695
     25          1           0       -2.000578   -1.728883   -0.077088
     26          1           0       -2.329225   -0.211292    2.933773
     27          1           0       -4.375713   -1.103788   -0.162880
     28          1           0       -3.960892    0.169347   -1.128193
     29          1           0       -2.051134    1.730554   -0.668479
     30          1           0        1.843708    3.702233   -0.892914
     31          1           0        1.193326    3.644705    0.771568
     32          1           0        2.837558    4.277842    0.475056
 ---------------------------------------------------------------------

 SCF Done:  E(UB3LYP) =  -859.365675170     A.U. after   33 cycles
 SCF Done:  E(UB3LYP) =  -859.365675170     a.u. after    1 cycles

 The electronic state is 2-A.
 Alpha  occ. eigenvalues --  -19.07975 -19.06948 -19.06544 -19.03092 -19.03053
 Alpha  occ. eigenvalues --  -14.21203 -10.21705 -10.14841 -10.14813 -10.14402
 Alpha  occ. eigenvalues --  -10.14094 -10.13207 -10.12654 -10.09768 -10.07880
 Alpha  occ. eigenvalues --  -10.07668 -10.07570  -1.02278  -0.98583  -0.98149
 Alpha  occ. eigenvalues --   -0.94555  -0.92835  -0.80716  -0.76845  -0.69453
 Alpha  occ. eigenvalues --   -0.66902  -0.64613  -0.61943  -0.60448  -0.57997
 Alpha  occ. eigenvalues --   -0.52194  -0.50075  -0.49781  -0.45986  -0.43549
 Alpha  occ. eigenvalues --   -0.42202  -0.40961  -0.40535  -0.40326  -0.40214
 Alpha  occ. eigenvalues --   -0.39196  -0.38771  -0.38022  -0.36430  -0.35566
 Alpha  occ. eigenvalues --   -0.34456  -0.32646  -0.32438  -0.31703  -0.30929
 Alpha  occ. eigenvalues --   -0.30001  -0.29689  -0.28712  -0.25960  -0.25824
 Alpha  occ. eigenvalues --   -0.25537  -0.24601  -0.23972  -0.21640  -0.20625
 Alpha  occ. eigenvalues --   -0.19732  -0.15954  -0.14133  -0.13545   0.03990
 Alpha virt. eigenvalues --    0.05735   0.05994   0.06927   0.07361   0.08260
 Alpha virt. eigenvalues --    0.08538   0.08738   0.09225   0.09885   0.10076
 Alpha virt. eigenvalues --    0.10377   0.11097   0.11428   0.12115   0.12377

  Beta  occ. eigenvalues --  -19.07903 -19.06945 -19.06538 -19.03084 -19.03023
  Beta  occ. eigenvalues --  -14.21166 -10.21688 -10.14840 -10.14813 -10.14396
  Beta  occ. eigenvalues --  -10.14074 -10.13166 -10.12635 -10.09767 -10.07871
  Beta  occ. eigenvalues --  -10.07661 -10.07569  -1.02183  -0.98577  -0.98136
  Beta  occ. eigenvalues --   -0.94513  -0.92769  -0.80652  -0.76838  -0.69432
  Beta  occ. eigenvalues --   -0.66882  -0.64553  -0.61909  -0.60392  -0.57936
  Beta  occ. eigenvalues --   -0.52140  -0.50041  -0.49714  -0.45961  -0.43506
  Beta  occ. eigenvalues --   -0.42177  -0.40932  -0.40494  -0.40281  -0.40187
  Beta  occ. eigenvalues --   -0.39155  -0.38755  -0.37997  -0.36353  -0.35534
  Beta  occ. eigenvalues --   -0.34415  -0.32604  -0.32374  -0.31675  -0.30879
  Beta  occ. eigenvalues --   -0.29982  -0.29670  -0.28696  -0.25941  -0.25799
  Beta  occ. eigenvalues --   -0.25516  -0.24581  -0.23852  -0.21621  -0.20592
  Beta  occ. eigenvalues --   -0.19715  -0.15904  -0.14126  -0.13536
  Beta virt. eigenvalues --    0.05957   0.06504   0.06922   0.07287   0.08033
  Beta virt. eigenvalues --    0.08539   0.08917   0.09032   0.09308   0.09916
  Beta virt. eigenvalues --    0.10441   0.10818   0.11351   0.11569   0.12178

 Mulliken charges and spin densities:
               1          2
     1  C    0.579904  -0.960467
     2  O   -0.196386   0.040949
     3  C   -1.251992   0.680771
     4  C   -0.757996   0.332889
     5  C   -1.273309   0.406978
     6  C    0.349213  -0.237949
     7  C    1.704146  -0.469338
     8  C    0.636393  -0.489531
     9  C    0.122222  -0.438001
    10  C    0.946298  -1.395013
    11  C   -0.265041   0.081419
    12  O   -0.282131   0.036068
    13  O   -0.138274   0.069525
    14  N   -0.274566   0.133545
    15  O   -0.215189   0.014158
    16  O   -0.175031   0.015180
    17  C    0.111918  -0.486441
    18  H   -0.372169   0.540475
    19  H   -0.223679   0.375775
    20  H   -0.204992   0.381646
    21  H    0.109542   0.074656
    22  H    0.234492  -0.063343
    23  H    0.314194  -0.162485
    24  H    0.121602   0.139020
    25  H    0.027189   0.249622
    26  H   -0.582519   0.874373
    27  H   -0.252131   0.495161
    28  H    0.173203   0.071050
    29  H    0.195787   0.045882
    30  H    0.015928   0.135592
    31  H   -0.037011   0.201549
    32  H   -0.139614   0.306281
 Sum of Mulliken charges =  -1.00000   1.00000

 Dipole moment (field-independent basis, Debye):
    X=              3.0930    Y=              3.7027    Z=             -3.4026  Tot=              5.9038
 Quadrupole moment (field-independent basis, Debye-Ang):
   XX=           -163.6540   YY=           -154.6038   ZZ=           -143.0253
   XY=              0.3102   XZ=              6.0308   YZ=              1.0898

 Summary of Natural Population Analysis:

                                       Natural Population
                Natural  -----------------------------------------------
    Atom  No    Charge         Core      Valence    Rydberg      Total
 -----------------------------------------------------------------------
      C    1   -0.10165      0.99960     2.09299    0.00905     3.10165
      O    2   -0.27244      0.99985     3.26307    0.00952     4.27244
      C    3    0.17224      0.99939     1.81447    0.01389     2.82776
      C    4   -0.14379      0.99948     2.13505    0.00925     3.14379
      C    5    0.17177      0.99939     1.81658    0.01226     2.82823
      C    6   -0.15813      0.99946     2.14930    0.00937     3.15813
      C    7   -0.01200      0.99951     2.00168    0.01081     3.01200
      C    8   -0.15907      0.99947     2.15156    0.00805     3.15907
      C    9    0.06128      0.99950     1.92341    0.01581     2.93872
      C   10   -0.06414      0.99953     2.04979    0.01481     3.06414
      C   11    0.40644      0.99969     1.56650    0.02737     2.59356
      O   12   -0.32476      0.99986     3.31770    0.00719     4.32476
      O   13   -0.33203      0.99987     3.32501    0.00714     4.33203
      N   14   -0.41145      0.99977     2.90152    0.01016     3.91145
      O   15   -0.37818      0.99990     3.37247    0.00582     4.37818
      O   16   -0.27305      0.99985     3.26402    0.00918     4.27305
      C   17   -0.10033      0.99960     2.09280    0.00792     3.10033
      H   18    0.09410      0.00000     0.40472    0.00118     0.40590
      H   19    0.08414      0.00000     0.41441    0.00145     0.41586
      H   20    0.08865      0.00000     0.40964    0.00171     0.41135
      H   21    0.11007      0.00000     0.38829    0.00164     0.38993
      H   22    0.11169      0.00000     0.38664    0.00167     0.38831
      H   23    0.10703      0.00000     0.39111    0.00186     0.39297
      H   24    0.09973      0.00000     0.39834    0.00193     0.40027
      H   25    0.10956      0.00000     0.38800    0.00244     0.39044
      H   26    0.24615      0.00000     0.22924    0.02461     0.25385
      H   27    0.18172      0.00000     0.31586    0.00242     0.31828
      H   28    0.18174      0.00000     0.31611    0.00215     0.31826
      H   29    0.24148      0.00000     0.25519    0.00333     0.25852
      H   30    0.08379      0.00000     0.41467    0.00154     0.41621
      H   31    0.08755      0.00000     0.41079    0.00165     0.41245
      H   32    0.09188      0.00000     0.40700    0.00112     0.40812
 =======================================================================
   * Total *   -0.00000     16.99376    46.76793    0.23832    64.00000

 Normal termination of Gaussian 16 at Fri Dec 11 12:38:48 2020.
