 Gaussian 16, Revision A.03,

 -----------------------------------------------------------
 # opt freq B3LYP/6-31G(d) empiricaldispersion=gd3bj scf=xqc
 -----------------------------------------------------------

 -------------------------------
 CID_107440258_JID_9286_neutraal
 -------------------------------
 Symbolic Z-matrix:
 Charge =  0 Multiplicity = 1

 SCF Done:  E(RB3LYP) =  -1000.70171280     A.U. after   14 cycles
 SCF Done:  E(RB3LYP) =  -1000.71017717     A.U. after   13 cycles
 SCF Done:  E(RB3LYP) =  -1000.71081004     A.U. after   14 cycles
 SCF Done:  E(RB3LYP) =  -1000.71136897     A.U. after   13 cycles
 SCF Done:  E(RB3LYP) =  -1000.71163774     A.U. after   13 cycles
 SCF Done:  E(RB3LYP) =  -1000.71222595     A.U. after   12 cycles
 SCF Done:  E(RB3LYP) =  -1000.71246484     A.U. after   12 cycles
 SCF Done:  E(RB3LYP) =  -1000.71270975     A.U. after   15 cycles
 SCF Done:  E(RB3LYP) =  -1000.71319508     A.U. after   12 cycles
 SCF Done:  E(RB3LYP) =  -1000.71355776     A.U. after   13 cycles
 SCF Done:  E(RB3LYP) =  -1000.71433790     A.U. after   10 cycles
 SCF Done:  E(RB3LYP) =  -1000.71433874     A.U. after    8 cycles
 SCF Done:  E(RB3LYP) =  -1000.71433913     A.U. after    8 cycles
 SCF Done:  E(RB3LYP) =  -1000.71433944     A.U. after    8 cycles
 SCF Done:  E(RB3LYP) =  -1000.71433959     A.U. after    8 cycles
 Optimization completed.
    -- Stationary point found.
 Normal termination of Gaussian 16 at Sat Dec 12 09:38:41 2020.

 --------------------------------------------------------------------
 #N Geom=AllCheck Guess=TCheck SCRF=Check GenChk RB3LYP/6-31G(d) Freq
 --------------------------------------------------------------------

 Structure from the checkpoint file:  "JID_9286.chk"
 -------------------------------
 CID_107440258_JID_9286_neutraal
 -------------------------------
 Charge =  0 Multiplicity = 1

 SCF Done:  E(RB3LYP) =  -1000.71433959     A.U. after    1 cycles

  Exact polarizability: 139.053 -13.818 134.793   9.150  -0.561 124.148
 Approx polarizability: 183.287 -21.570 197.735  20.562  -3.759 228.104

                      1                      2                      3
                      A                      A                      A
 Frequencies --     23.1540                36.7244                39.4540
 Red. masses --      7.2317                 6.5903                 6.0167
 Frc consts  --      0.0023                 0.0052                 0.0055
 IR Inten    --      0.7635                 0.9996                 1.6884

                      4                      5                      6
                      A                      A                      A
 Frequencies --     52.3127                61.1745                64.5475
 Red. masses --      6.5309                 4.8338                 6.1596
 Frc consts  --      0.0105                 0.0107                 0.0151
 IR Inten    --      2.4046                 3.9849                14.8331

                      7                      8                      9
                      A                      A                      A
 Frequencies --     82.2281                89.7484               119.4989
 Red. masses --      4.9756                 4.8667                 8.2071
 Frc consts  --      0.0198                 0.0231                 0.0691
 IR Inten    --      8.5080                 2.1457                 1.1286

                     10                     11                     12
                      A                      A                      A
 Frequencies --    138.6696               149.9916               156.1591
 Red. masses --      1.4929                 3.0926                 2.8522
 Frc consts  --      0.0169                 0.0410                 0.0410
 IR Inten    --      0.0516                 1.8954                 0.6292

                     13                     14                     15
                      A                      A                      A
 Frequencies --    191.4923               243.0360               292.0076
 Red. masses --      7.1691                 4.3415                 4.8514
 Frc consts  --      0.1549                 0.1511                 0.2437
 IR Inten    --      6.4356                 2.6974                 3.3628

                     16                     17                     18
                      A                      A                      A
 Frequencies --    298.4044               341.1833               355.5967
 Red. masses --      3.0703                 3.7712                 4.6198
 Frc consts  --      0.1611                 0.2586                 0.3442
 IR Inten    --      5.0419                 4.3357                 5.4636

                     19                     20                     21
                      A                      A                      A
 Frequencies --    395.0678               430.8286               441.6578
 Red. masses --      2.9259                 2.5076                 3.0098
 Frc consts  --      0.2691                 0.2742                 0.3459
 IR Inten    --      0.5390                21.4357                56.5549

                     22                     23                     24
                      A                      A                      A
 Frequencies --    454.5085               462.9134               485.7673
 Red. masses --      2.3073                 1.3262                 3.8128
 Frc consts  --      0.2808                 0.1674                 0.5301
 IR Inten    --     21.7035               100.4170                 2.2850

                     25                     26                     27
                      A                      A                      A
 Frequencies --    496.8439               498.6447               545.3105
 Red. masses --      1.8800                 1.8597                 2.5409
 Frc consts  --      0.2734                 0.2724                 0.4452
 IR Inten    --     53.3739                26.8106                54.4802

                     28                     29                     30
                      A                      A                      A
 Frequencies --    557.3698               586.9188               636.1855
 Red. masses --      3.3099                 1.5750                 3.3464
 Frc consts  --      0.6058                 0.3197                 0.7980
 IR Inten    --     73.0484               129.5785                18.9792

                     31                     32                     33
                      A                      A                      A
 Frequencies --    661.4129               668.3642               676.6761
 Red. masses --      4.5644                 3.8215                 1.9009
 Frc consts  --      1.1765                 1.0058                 0.5128
 IR Inten    --     33.7980                40.2659                62.8834

                     34                     35                     36
                      A                      A                      A
 Frequencies --    693.0958               704.8076               762.4267
 Red. masses --      4.9516                 6.6407                 4.1887
 Frc consts  --      1.4015                 1.9436                 1.4346
 IR Inten    --     15.2408                12.4745                42.0308

                     37                     38                     39
                      A                      A                      A
 Frequencies --    838.8474               859.8399               880.1539
 Red. masses --      5.7590                 3.9476                 4.5471
 Frc consts  --      2.3876                 1.7196                 2.0754
 IR Inten    --     41.9329                 9.8044                10.3220

                     40                     41                     42
                      A                      A                      A
 Frequencies --    896.4675               918.1329               969.8530
 Red. masses --      4.3095                 3.8315                 3.1050
 Frc consts  --      2.0406                 1.9030                 1.7208
 IR Inten    --      2.1274                 3.9797                 3.2383

                     43                     44                     45
                      A                      A                      A
 Frequencies --    975.7941               994.1416              1009.7025
 Red. masses --      2.2429                 9.7640                 2.6065
 Frc consts  --      1.2583                 5.6856                 1.5657
 IR Inten    --     18.7258                27.8692                17.6099

                     46                     47                     48
                      A                      A                      A
 Frequencies --   1021.8260              1028.6902              1081.6046
 Red. masses --      2.4409                 2.4478                 1.5580
 Frc consts  --      1.5016                 1.5261                 1.0739
 IR Inten    --      8.1302                 9.5124                 4.3034

                     49                     50                     51
                      A                      A                      A
 Frequencies --   1090.6784              1123.3822              1173.2970
 Red. masses --      3.9142                 1.8806                 2.3036
 Frc consts  --      2.7434                 1.3983                 1.8684
 IR Inten    --     15.8995                39.5531               230.3870

                     52                     53                     54
                      A                      A                      A
 Frequencies --   1177.1806              1195.9155              1248.1233
 Red. masses --      2.1519                 1.8878                 1.2402
 Frc consts  --      1.7570                 1.5908                 1.1383
 IR Inten    --     77.7128                15.3733                31.2554

                     55                     56                     57
                      A                      A                      A
 Frequencies --   1263.9453              1309.3200              1336.8242
 Red. masses --      5.2304                 2.3835                 1.6005
 Frc consts  --      4.9231                 2.4074                 1.6853
 IR Inten    --     82.0317                56.4731                19.2216

                     58                     59                     60
                      A                      A                      A
 Frequencies --   1339.5699              1369.4662              1380.5756
 Red. masses --      1.7150                 1.6591                 1.4838
 Frc consts  --      1.8132                 1.8332                 1.6663
 IR Inten    --    139.2863                20.6179                19.2184

                     61                     62                     63
                      A                      A                      A
 Frequencies --   1402.4422              1410.1312              1415.5456
 Red. masses --      1.7964                 3.2587                 2.0771
 Frc consts  --      2.0818                 3.8178                 2.4522
 IR Inten    --     42.0254                28.5401                41.9334

                     64                     65                     66
                      A                      A                      A
 Frequencies --   1426.6519              1435.7175              1446.6263
 Red. masses --      1.5743                 1.7574                 1.6230
 Frc consts  --      1.8878                 2.1343                 2.0012
 IR Inten    --     17.2626                21.5850                 6.8131

                     67                     68                     69
                      A                      A                      A
 Frequencies --   1477.6858              1500.7222              1504.3326
 Red. masses --      1.1265                 1.0726                 1.0585
 Frc consts  --      1.4493                 1.4233                 1.4114
 IR Inten    --     16.6949                 4.0022                11.8961

                     70                     71                     72
                      A                      A                      A
 Frequencies --   1510.4403              1520.7622              1632.7116
 Red. masses --      1.1338                 1.0932                 8.1719
 Frc consts  --      1.5241                 1.4896                12.8349
 IR Inten    --      7.7998                 7.2669               139.2652

                     73                     74                     75
                      A                      A                      A
 Frequencies --   1660.1201              1664.8151              1808.0047
 Red. masses --      1.2186                 8.5369                 8.3659
 Frc consts  --      1.9787                13.9406                16.1125
 IR Inten    --     74.0630               184.5874               250.1091

                     76                     77                     78
                      A                      A                      A
 Frequencies --   1823.0268              1841.4894              3052.4255
 Red. masses --      9.7440                 9.6910                 1.0674
 Frc consts  --     19.0798                19.3624                 5.8595
 IR Inten    --    343.9369               234.0338                15.3836

                     79                     80                     81
                      A                      A                      A
 Frequencies --   3058.0555              3061.7075              3065.1548
 Red. masses --      1.0589                 1.0387                 1.0591
 Frc consts  --      5.8345                 5.7370                 5.8628
 IR Inten    --     11.8878                 9.7854                23.6688

                     82                     83                     84
                      A                      A                      A
 Frequencies --   3112.2326              3115.9753              3118.5741
 Red. masses --      1.1037                 1.1074                 1.1011
 Frc consts  --      6.2987                 6.3349                 6.3093
 IR Inten    --      8.9273                14.1952                 8.6974

                     85                     86                     87
                      A                      A                      A
 Frequencies --   3126.1536              3172.7746              3564.8349
 Red. masses --      1.0949                 1.1003                 1.0469
 Frc consts  --      6.3042                 6.5257                 7.8383
 IR Inten    --      2.0666                 1.6099                23.8487

                     88                     89                     90
                      A                      A                      A
 Frequencies --   3599.1796              3681.2421              3682.6718
 Red. masses --      1.0762                 1.1012                 1.0643
 Frc consts  --      8.2141                 8.7921                 8.5041
 IR Inten    --     69.9515                18.2212                57.1828

 - Thermochemistry -
 -------------------
 Temperature   298.150 Kelvin.  Pressure   1.00000 Atm.
 Atom     1 has atomic number  6 and mass  12.00000

 Molecular mass:   271.09167 amu.
 Principal axes and moments of inertia in atomic units:
                           1         2         3
     Eigenvalues --  3494.839646162.782147545.71227
           X            0.99964  -0.02680  -0.00234
           Y            0.02686   0.99915   0.03142
           Z            0.00149  -0.03147   0.99950
 This molecule is an asymmetric top.
 Rotational symmetry number  1.
 Warning -- assumption of classical behavior for rotation
           may cause significant error
 Rotational temperatures (Kelvin)      0.02478     0.01405     0.01148
 Rotational constants (GHZ):           0.51640     0.29285     0.23917
 Zero-point vibrational energy     647596.8 (Joules/Mol)
                                  154.77934 (Kcal/Mol)
 Warning -- explicit consideration of  29 degrees of freedom as
           vibrations may cause significant error
 Vibrational temperatures:     33.31    52.84    56.77    75.27    88.02
          (Kelvin)             92.87   118.31   129.13   171.93   199.51
                              215.80   224.68   275.51   349.67   420.13
                              429.34   490.89   511.62   568.41   619.87
                              635.45   653.94   666.03   698.91   714.85
                              717.44   784.58   801.93   844.45   915.33
                              951.63   961.63   973.59   997.21  1014.06
                             1096.96  1206.91  1237.12  1266.35  1289.82
                             1320.99  1395.40  1403.95  1430.35  1452.74
                             1470.18  1480.06  1556.19  1569.24  1616.30
                             1688.11  1693.70  1720.66  1795.77  1818.54
                             1883.82  1923.39  1927.34  1970.36  1986.34
                             2017.80  2028.86  2036.65  2052.63  2065.68
                             2081.37  2126.06  2159.20  2164.40  2173.19
                             2188.04  2349.11  2388.54  2395.30  2601.32
                             2622.93  2649.49  4391.76  4399.86  4405.11
                             4410.07  4477.81  4483.19  4486.93  4497.84
                             4564.91  5129.00  5178.42  5296.49  5298.54

 Zero-point correction=                           0.246657 (Hartree/Particle)
 Thermal correction to Energy=                    0.265598
 Thermal correction to Enthalpy=                  0.266542
 Thermal correction to Gibbs Free Energy=         0.196858
 Sum of electronic and zero-point Energies=          -1000.467683
 Sum of electronic and thermal Energies=             -1000.448741
 Sum of electronic and thermal Enthalpies=           -1000.447797
 Sum of electronic and thermal Free Energies=        -1000.517481

                     E (Thermal)             CV                S
                      KCal/Mol        Cal/Mol-Kelvin    Cal/Mol-Kelvin
 Total                  166.665             68.172            146.663
 Electronic               0.000              0.000              0.000
 Translational            0.889              2.981             42.691
 Rotational               0.889              2.981             33.452
 Vibrational            164.888             62.211             70.520
 Vibration     1          0.593              1.985              6.343
 Vibration     2          0.594              1.982              5.428
 Vibration     3          0.594              1.981              5.286
 Vibration     4          0.596              1.977              4.728
 Vibration     5          0.597              1.973              4.419
 Vibration     6          0.597              1.971              4.313
 Vibration     7          0.600              1.961              3.837
 Vibration     8          0.602              1.956              3.666
 Vibration     9          0.609              1.933              3.108
 Vibration    10          0.614              1.915              2.822
 Vibration    11          0.618              1.903              2.672
 Vibration    12          0.620              1.896              2.596
 Vibration    13          0.634              1.852              2.213
 Vibration    14          0.659              1.774              1.781
 Vibration    15          0.687              1.689              1.462
 Vibration    16          0.691              1.677              1.426
 Vibration    17          0.721              1.593              1.207
 Vibration    18          0.731              1.564              1.141
 Vibration    19          0.762              1.481              0.981
 Vibration    20          0.792              1.403              0.856
 Vibration    21          0.801              1.379              0.821
 Vibration    22          0.813              1.351              0.782
 Vibration    23          0.821              1.332              0.758
 Vibration    24          0.842              1.282              0.695
 Vibration    25          0.852              1.257              0.666
 Vibration    26          0.854              1.253              0.662
 Vibration    27          0.900              1.150              0.554
 Vibration    28          0.913              1.124              0.529
 Vibration    29          0.944              1.060              0.473

                           ! Non-Optimized Parameters !
 Normal termination of Gaussian 16 at Sat Dec 12 09:55:01 2020.

 ----------------------------------------------------------------------
 # B3LYP/6-311++G(d,p) empiricaldispersion=gd3bj scf=xqc pop=npa geom=c
 heck
 ----------------------------------------------------------------------

 ---------------------------------------
 CID_107440258_JID_9286_Energie_neutraal
 ---------------------------------------
 Structure from the checkpoint file:  "JID_9286.chk"
 Charge =  0 Multiplicity = 1

 SCF Done:  E(RB3LYP) =  -1001.02324307     A.U. after   15 cycles
 Normal termination of Gaussian 16 at Sat Dec 12 10:01:47 2020.

 ----------------------------------------------------------------------
 # B3LYP/6-311++G(d,p) empiricaldispersion=gd3bj scf=xqc pop=npa geom=c
 heck
 ----------------------------------------------------------------------

 -------------------------------------
 CID_107440258_JID_9286_Energie_kation
 -------------------------------------
 Structure from the checkpoint file:  "JID_9286.chk"
 Charge =  1 Multiplicity = 2

 SCF Done:  E(UB3LYP) =  -1000.71776424     A.U. after   22 cycles
 Normal termination of Gaussian 16 at Sat Dec 12 10:15:24 2020.
 Gaussian 16:  ES64L-G16RevA.03 25-Dec-2016

 ----------------------------------------------------------------------
 # B3LYP/6-311++G(d,p) empiricaldispersion=gd3bj scf=xqc pop=npa geom=c
 heck
 ----------------------------------------------------------------------

 ------------------------------------
 CID_107440258_JID_9286_Energie_anion
 ------------------------------------
 Structure from the checkpoint file:  "JID_9286.chk"
 Charge = -1 Multiplicity = 2

                         Standard orientation:
 ---------------------------------------------------------------------
 Center     Atomic      Atomic             Coordinates (Angstroms)
 Number     Number       Type             X           Y           Z
 ---------------------------------------------------------------------
      1          6           0       -3.556604    2.316036    0.226442
      2          6           0       -3.122124    0.989761   -0.273684
      3          7           0       -3.241480    0.484692   -1.458653
      4          7           0       -2.623167   -0.775528   -1.428618
      5          6           0       -2.183776   -0.921369   -0.219961
      6          8           0       -2.482827    0.135194    0.591792
      7          7           0       -1.564339   -2.028243    0.322685
      8          6           0       -0.381770   -2.072612    1.059237
      9          8           0        0.031244   -3.128732    1.494228
     10          6           0        0.344113   -0.744007    1.270065
     11          7           0        0.356939    0.056586    0.055776
     12          6           0        0.445276    1.504881    0.213572
     13          6           0        1.879621    2.032421    0.361109
     14          8           0        2.536777    2.343190   -0.621712
     15          7           0        2.359208    2.120611    1.641474
     16          6           0        1.085463   -0.493602   -1.067321
     17          6           0        2.576711   -0.729319   -0.842860
     18          8           0        3.163930   -0.633729    0.213126
     19          8           0        3.176124   -1.111396   -1.988734
     20          1           0       -4.229270    2.214007    1.084661
     21          1           0       -2.695524    2.916590    0.541582
     22          1           0       -4.077054    2.838879   -0.577729
     23          1           0       -1.927133   -2.933696    0.048802
     24          1           0       -0.206980   -0.185743    2.036321
     25          1           0        1.334800   -0.995550    1.661896
     26          1           0        0.037616    1.975467   -0.686868
     27          1           0       -0.179310    1.790092    1.066898
     28          1           0        1.911345    1.582432    2.370567
     29          1           0        3.366235    2.197638    1.719699
     30          1           0        0.642033   -1.454397   -1.361428
     31          1           0        0.972108    0.172358   -1.927370
     32          1           0        4.117557   -1.254256   -1.774871
 ---------------------------------------------------------------------

 SCF Done:  E(UB3LYP) =  -1001.02363009     A.U. after   33 cycles
 SCF Done:  E(UB3LYP) =  -1001.02363009     a.u. after    1 cycles

 The electronic state is 2-A.
 Alpha  occ. eigenvalues --  -19.10589 -19.09426 -19.03312 -18.99684 -18.99417
 Alpha  occ. eigenvalues --  -14.26260 -14.23727 -14.23356 -14.23200 -14.23019
 Alpha  occ. eigenvalues --  -10.22347 -10.19791 -10.17606 -10.17047 -10.16945
 Alpha  occ. eigenvalues --  -10.12588 -10.10855 -10.10477 -10.09341  -1.06037
 Alpha  occ. eigenvalues --   -1.03305  -0.95029  -0.94683  -0.94081  -0.87992
 Alpha  occ. eigenvalues --   -0.85783  -0.84311  -0.80770  -0.73648  -0.66987
 Alpha  occ. eigenvalues --   -0.65558  -0.64303  -0.57954  -0.56571  -0.53196
 Alpha  occ. eigenvalues --   -0.51625  -0.48924  -0.47897  -0.45752  -0.43764
 Alpha  occ. eigenvalues --   -0.42262  -0.41958  -0.41367  -0.40422  -0.39709
 Alpha  occ. eigenvalues --   -0.38336  -0.37255  -0.36586  -0.34601  -0.34278
 Alpha  occ. eigenvalues --   -0.33784  -0.33089  -0.32374  -0.31866  -0.31628
 Alpha  occ. eigenvalues --   -0.31442  -0.30672  -0.29207  -0.28237  -0.27781
 Alpha  occ. eigenvalues --   -0.24725  -0.24480  -0.23055  -0.21751  -0.20873
 Alpha  occ. eigenvalues --   -0.18716  -0.18700  -0.17257  -0.16950  -0.15668
 Alpha  occ. eigenvalues --   -0.12550   0.03953
 Alpha virt. eigenvalues --    0.06187   0.06567   0.07283   0.07891   0.08490
 Alpha virt. eigenvalues --    0.09100   0.09499   0.09649   0.10513   0.11044
 Alpha virt. eigenvalues --    0.11082   0.11911   0.12568   0.13089   0.13336

  Beta  occ. eigenvalues --  -19.10509 -19.09421 -19.03309 -18.99674 -18.99232
  Beta  occ. eigenvalues --  -14.26300 -14.23743 -14.23306 -14.23167 -14.23010
  Beta  occ. eigenvalues --  -10.22344 -10.19692 -10.17597 -10.16885 -10.16825
  Beta  occ. eigenvalues --  -10.12577 -10.10813 -10.10473 -10.09302  -1.05916
  Beta  occ. eigenvalues --   -1.03295  -0.94750  -0.94603  -0.94069  -0.87924
  Beta  occ. eigenvalues --   -0.85683  -0.84272  -0.80692  -0.73550  -0.66944
  Beta  occ. eigenvalues --   -0.65417  -0.64234  -0.57831  -0.56447  -0.53056
  Beta  occ. eigenvalues --   -0.51554  -0.48798  -0.47785  -0.45687  -0.43689
  Beta  occ. eigenvalues --   -0.42134  -0.41925  -0.41309  -0.40332  -0.39487
  Beta  occ. eigenvalues --   -0.38249  -0.37141  -0.36481  -0.34396  -0.34225
  Beta  occ. eigenvalues --   -0.33627  -0.32941  -0.32240  -0.31592  -0.31548
  Beta  occ. eigenvalues --   -0.31370  -0.30597  -0.29141  -0.28181  -0.27497
  Beta  occ. eigenvalues --   -0.24568  -0.24385  -0.22911  -0.21460  -0.20759
  Beta  occ. eigenvalues --   -0.18679  -0.18634  -0.17220  -0.16784  -0.15426
  Beta  occ. eigenvalues --   -0.12479
  Beta virt. eigenvalues --    0.06182   0.06900   0.07593   0.08080   0.08137
  Beta virt. eigenvalues --    0.08812   0.09469   0.09820   0.10470   0.10830
  Beta virt. eigenvalues --    0.11130   0.11775   0.11911   0.12717   0.13343

 Mulliken charges and spin densities:
               1          2
     1  C    0.926753  -1.569122
     2  C   -0.498397   0.829456
     3  N   -0.035433  -0.034268
     4  N   -0.028693   0.029792
     5  C   -0.303150  -0.043675
     6  O    0.084871   0.017161
     7  N   -0.242408   0.023591
     8  C   -0.089602   0.077668
     9  O   -0.313375   0.070922
    10  C    0.194410  -0.670125
    11  N    0.216745   0.092708
    12  C   -0.094089   0.032946
    13  C    0.138736  -0.466169
    14  O   -0.274188   0.003875
    15  N   -0.169723  -0.030728
    16  C   -0.108424  -0.315351
    17  C   -0.240900   0.158564
    18  O   -0.230279   0.006095
    19  O   -0.088654  -0.001266
    20  H   -0.132568   0.302117
    21  H   -0.586168   0.765529
    22  H    0.050968   0.116932
    23  H    0.314178  -0.002811
    24  H   -0.425137   0.631671
    25  H    0.336831  -0.096334
    26  H    0.271421  -0.092382
    27  H   -0.146871   0.344443
    28  H   -0.211766   0.474967
    29  H    0.063301   0.213375
    30  H    0.255342  -0.017720
    31  H    0.169206   0.093027
    32  H    0.197066   0.055109
 Sum of Mulliken charges =  -1.00000   1.00000

 Dipole moment (field-independent basis, Debye):
    X=              1.3670    Y=             -3.1112    Z=             -3.1084  Tot=              4.6055
 Quadrupole moment (field-independent basis, Debye-Ang):
   XX=           -150.9139   YY=           -156.5216   ZZ=           -153.0002
   XY=             -0.8719   XZ=             -7.8624   YZ=              1.2078

 Summary of Natural Population Analysis:

                                       Natural Population
                Natural  -----------------------------------------------
    Atom  No    Charge         Core      Valence    Rydberg      Total
 -----------------------------------------------------------------------
      C    1   -0.31419      0.99962     2.30908    0.00549     3.31419
      C    2    0.26268      0.99961     1.71777    0.01994     2.73732
      N    3   -0.17235      0.99966     2.66063    0.01206     3.67235
      N    4   -0.17740      0.99965     2.66598    0.01177     3.67740
      C    5    0.34788      0.99959     1.63037    0.02216     2.65212
      O    6   -0.23870      0.99985     3.23075    0.00811     4.23870
      N    7   -0.33662      0.99962     2.82832    0.00868     3.83662
      C    8    0.37115      0.99969     1.60543    0.02372     2.62885
      O    9   -0.29114      0.99987     3.28555    0.00571     4.29114
      C   10   -0.13701      0.99956     2.12570    0.01176     3.13701
      N   11   -0.27650      0.99973     2.76184    0.01493     3.77650
      C   12   -0.12091      0.99956     2.10857    0.01278     3.12091
      C   13    0.33205      0.99971     1.64433    0.02391     2.66795
      O   14   -0.32399      0.99987     3.31789    0.00623     4.32399
      N   15   -0.39545      0.99970     2.88734    0.00841     3.89545
      C   16   -0.13689      0.99955     2.12652    0.01082     3.13689
      C   17    0.40566      0.99974     1.57061    0.02399     2.59434
      O   18   -0.30718      0.99987     3.30011    0.00721     4.30718
      O   19   -0.34417      0.99987     3.33811    0.00619     4.34417
      H   20    0.11100      0.00000     0.38800    0.00100     0.38900
      H   21    0.11741      0.00000     0.38023    0.00236     0.38259
      H   22    0.11384      0.00000     0.38510    0.00106     0.38616
      H   23    0.20632      0.00000     0.29211    0.00157     0.29368
      H   24    0.11862      0.00000     0.37812    0.00326     0.38138
      H   25    0.11048      0.00000     0.38803    0.00149     0.38952
      H   26    0.10364      0.00000     0.39515    0.00121     0.39636
      H   27    0.10994      0.00000     0.38713    0.00293     0.39006
      H   28    0.19747      0.00000     0.29773    0.00480     0.30253
      H   29    0.19227      0.00000     0.30588    0.00185     0.30773
      H   30    0.11461      0.00000     0.38423    0.00116     0.38539
      H   31    0.11938      0.00000     0.37959    0.00103     0.38062
      H   32    0.23811      0.00000     0.25811    0.00378     0.26189
 =======================================================================
   * Total *    0.00000     18.99431    51.73432    0.27136    71.00000

 Normal termination of Gaussian 16 at Sat Dec 12 10:35:26 2020.
