 Gaussian 16, Revision A.03,

 -----------------------------------------------------------
 # opt freq B3LYP/6-31G(d) empiricaldispersion=gd3bj scf=xqc
 -----------------------------------------------------------

 ------------------------------
 CID_64894499_JID_4033_neutraal
 ------------------------------
 Symbolic Z-matrix:
 Charge =  0 Multiplicity = 1

 SCF Done:  E(RB3LYP) =  -687.796585689     A.U. after   14 cycles
 SCF Done:  E(RB3LYP) =  -687.798609247     A.U. after   13 cycles
 SCF Done:  E(RB3LYP) =  -687.798906584     A.U. after   13 cycles
 SCF Done:  E(RB3LYP) =  -687.799713004     A.U. after   13 cycles
 SCF Done:  E(RB3LYP) =  -687.801057383     A.U. after   12 cycles
 SCF Done:  E(RB3LYP) =  -687.801375115     A.U. after   12 cycles
 SCF Done:  E(RB3LYP) =  -687.801413742     A.U. after   11 cycles
 SCF Done:  E(RB3LYP) =  -687.801578595     A.U. after   11 cycles
 SCF Done:  E(RB3LYP) =  -687.801606023     A.U. after   10 cycles
 SCF Done:  E(RB3LYP) =  -687.801621446     A.U. after   10 cycles
 SCF Done:  E(RB3LYP) =  -687.801646947     A.U. after    7 cycles
 SCF Done:  E(RB3LYP) =  -687.801646958     A.U. after    7 cycles
 SCF Done:  E(RB3LYP) =  -687.801646956     A.U. after    7 cycles
 SCF Done:  E(RB3LYP) =  -687.801646955     A.U. after    7 cycles
 SCF Done:  E(RB3LYP) =  -687.801646953     A.U. after    7 cycles
 Optimization completed.
    -- Stationary point found.
 Normal termination of Gaussian 16 at Thu Dec 10 09:24:12 2020.

 --------------------------------------------------------------------
 #N Geom=AllCheck Guess=TCheck SCRF=Check GenChk RB3LYP/6-31G(d) Freq
 --------------------------------------------------------------------

 Structure from the checkpoint file:  "JID_4033.chk"
 ------------------------------
 CID_64894499_JID_4033_neutraal
 ------------------------------
 Charge =  0 Multiplicity = 1

 SCF Done:  E(RB3LYP) =  -687.801646953     A.U. after    1 cycles

  Exact polarizability: 122.988  -8.631 109.221  -5.104  -0.671 103.127
 Approx polarizability: 155.290 -17.738 162.771 -12.841  10.050 160.634

                      1                      2                      3
                      A                      A                      A
 Frequencies --     17.1440                35.4219                45.8631
 Red. masses --      6.4812                 4.2729                 4.2502
 Frc consts  --      0.0011                 0.0032                 0.0053
 IR Inten    --      0.8076                 0.3514                 1.2288

                      4                      5                      6
                      A                      A                      A
 Frequencies --     57.4439                69.9215                88.1908
 Red. masses --      4.9458                 3.4148                 5.4495
 Frc consts  --      0.0096                 0.0098                 0.0250
 IR Inten    --      4.3573                 0.7948                 1.2525

                      7                      8                      9
                      A                      A                      A
 Frequencies --    161.9582               194.1952               231.4919
 Red. masses --      3.6634                 4.2978                 1.6400
 Frc consts  --      0.0566                 0.0955                 0.0518
 IR Inten    --      2.1120                 0.4184                 1.0644

                     10                     11                     12
                      A                      A                      A
 Frequencies --    256.1825               264.3146               277.2234
 Red. masses --      3.3155                 2.3655                 2.5382
 Frc consts  --      0.1282                 0.0974                 0.1149
 IR Inten    --      4.0700                 1.1497                 2.5288

                     13                     14                     15
                      A                      A                      A
 Frequencies --    307.4790               327.8015               339.8776
 Red. masses --      2.4511                 4.0240                 1.0937
 Frc consts  --      0.1365                 0.2548                 0.0744
 IR Inten    --      7.4938                 3.4512                44.3484

                     16                     17                     18
                      A                      A                      A
 Frequencies --    371.7575               443.3867               457.7209
 Red. masses --      4.0451                 2.9391                 3.5446
 Frc consts  --      0.3294                 0.3404                 0.4375
 IR Inten    --      1.8433                 1.9743                 7.6006

                     19                     20                     21
                      A                      A                      A
 Frequencies --    525.4928               551.1168               567.0227
 Red. masses --      2.7221                 2.4517                 3.0315
 Frc consts  --      0.4429                 0.4387                 0.5743
 IR Inten    --      1.3589                16.0286                33.5861

                     22                     23                     24
                      A                      A                      A
 Frequencies --    615.3890               640.2334               682.4454
 Red. masses --      2.6817                 2.0900                 1.4325
 Frc consts  --      0.5984                 0.5047                 0.3931
 IR Inten    --     57.2806                21.2325                92.1822

                     25                     26                     27
                      A                      A                      A
 Frequencies --    739.9315               764.3606               766.8946
 Red. masses --      2.7697                 2.3203                 2.0046
 Frc consts  --      0.8934                 0.7987                 0.6946
 IR Inten    --     21.0531                15.7973                18.0544

                     28                     29                     30
                      A                      A                      A
 Frequencies --    796.8707               807.4280               852.4821
 Red. masses --      3.9941                 1.2247                 1.4184
 Frc consts  --      1.4943                 0.4704                 0.6073
 IR Inten    --     40.0146                 2.7917                 5.7765

                     31                     32                     33
                      A                      A                      A
 Frequencies --    874.1417               920.9999               930.1955
 Red. masses --      2.7745                 1.9594                 2.2674
 Frc consts  --      1.2491                 0.9792                 1.1559
 IR Inten    --     19.5058                94.2534                29.7854

                     34                     35                     36
                      A                      A                      A
 Frequencies --    946.8939               956.0480               974.6301
 Red. masses --      3.0459                 1.7582                 1.8026
 Frc consts  --      1.6090                 0.9469                 1.0088
 IR Inten    --     18.9932                26.3572                 7.6702

                     37                     38                     39
                      A                      A                      A
 Frequencies --   1025.8949              1049.4171              1061.8367
 Red. masses --      2.1307                 2.0488                 1.3098
 Frc consts  --      1.3212                 1.3294                 0.8701
 IR Inten    --     49.9161                24.0833                11.0164

                     40                     41                     42
                      A                      A                      A
 Frequencies --   1083.8323              1095.9717              1121.4299
 Red. masses --      1.4077                 1.8074                 1.8864
 Frc consts  --      0.9743                 1.2791                 1.3978
 IR Inten    --      1.8322                26.5773                37.8617

                     43                     44                     45
                      A                      A                      A
 Frequencies --   1165.8588              1171.5720              1187.7952
 Red. masses --      1.1762                 2.0129                 1.5230
 Frc consts  --      0.9419                 1.6278                 1.2660
 IR Inten    --     12.5320                37.5645               100.3736

                     46                     47                     48
                      A                      A                      A
 Frequencies --   1203.9832              1216.6391              1231.2365
 Red. masses --      2.0918                 1.4886                 1.5841
 Frc consts  --      1.7865                 1.2982                 1.4149
 IR Inten    --     19.1652                 1.0001                42.9247

                     49                     50                     51
                      A                      A                      A
 Frequencies --   1241.8218              1255.5121              1312.1980
 Red. masses --      1.4693                 1.6906                 1.5272
 Frc consts  --      1.3350                 1.5701                 1.5493
 IR Inten    --     71.9105                 0.5399                15.1092

                     52                     53                     54
                      A                      A                      A
 Frequencies --   1342.8203              1366.8995              1367.9627
 Red. masses --      1.3908                 1.5374                 1.2361
 Frc consts  --      1.4776                 1.6924                 1.3629
 IR Inten    --      9.7603                 4.2317                 4.4093

                     55                     56                     57
                      A                      A                      A
 Frequencies --   1411.2178              1415.4586              1419.8580
 Red. masses --      1.5333                 2.2187                 2.0848
 Frc consts  --      1.7991                 2.6191                 2.4764
 IR Inten    --     19.0626                77.3328               113.5012

                     58                     59                     60
                      A                      A                      A
 Frequencies --   1442.9544              1448.4633              1493.8455
 Red. masses --      1.3445                 1.5218                 1.0989
 Frc consts  --      1.6493                 1.8812                 1.4449
 IR Inten    --      3.1935                49.2637                 1.2007

                     61                     62                     63
                      A                      A                      A
 Frequencies --   1497.7157              1502.3225              1530.6263
 Red. masses --      1.4289                 1.2397                 1.0982
 Frc consts  --      1.8885                 1.6485                 1.5159
 IR Inten    --     20.7081                55.5416                 2.6342

                     64                     65                     66
                      A                      A                      A
 Frequencies --   1531.8189              1541.7484              1708.5955
 Red. masses --      1.0875                 1.2980                 1.1059
 Frc consts  --      1.5035                 1.8178                 1.9022
 IR Inten    --      6.4261                 0.9432                59.6248

                     67                     68                     69
                      A                      A                      A
 Frequencies --   1759.7501              1811.4878              3055.7299
 Red. masses --      7.2895                 7.9252                 1.0397
 Frc consts  --     13.2999                15.3225                 5.7198
 IR Inten    --    321.6426               269.3171                18.6204

                     70                     71                     72
                      A                      A                      A
 Frequencies --   3067.1986              3111.0659              3121.7622
 Red. masses --      1.0669                 1.0865                 1.0959
 Frc consts  --      5.9137                 6.1956                 6.2925
 IR Inten    --      9.3105                10.5897                17.1421

                     73                     74                     75
                      A                      A                      A
 Frequencies --   3143.5256              3147.0012              3152.5683
 Red. masses --      1.0886                 1.0627                 1.0600
 Frc consts  --      6.3377                 6.2010                 6.2070
 IR Inten    --     13.9265                22.9855                28.1814

                     76                     77                     78
                      A                      A                      A
 Frequencies --   3152.8710              3179.9100              3190.1637
 Red. masses --      1.0971                 1.0893                 1.0844
 Frc consts  --      6.4256                 6.4899                 6.5023
 IR Inten    --      3.3977                 1.4389                 9.6420

                     79                     80                     81
                      A                      A                      A
 Frequencies --   3218.1990              3233.2498              3480.9346
 Red. masses --      1.1185                 1.1149                 1.0499
 Frc consts  --      6.8250                 6.8672                 7.4953
 IR Inten    --      0.8123                27.2752                 8.2349

                     82                     83                     84
                      A                      A                      A
 Frequencies --   3552.3069              3564.7102              3671.7645
 Red. masses --      1.0744                 1.0934                 1.0637
 Frc consts  --      7.9883                 8.1864                 8.4493
 IR Inten    --     10.0597                13.5128                42.8985

 - Thermochemistry -
 -------------------
 Temperature   298.150 Kelvin.  Pressure   1.00000 Atm.
 Atom     1 has atomic number  6 and mass  12.00000

 Molecular mass:   200.11609 amu.
 Principal axes and moments of inertia in atomic units:
                           1         2         3
     Eigenvalues --  1757.030694046.228964424.82104
           X            0.99981  -0.01755   0.00883
           Y            0.01847   0.99281  -0.11826
           Z           -0.00669   0.11840   0.99294
 This molecule is an asymmetric top.
 Rotational symmetry number  1.
 Warning -- assumption of classical behavior for rotation
           may cause significant error
 Rotational temperatures (Kelvin)      0.04930     0.02141     0.01957
 Rotational constants (GHZ):           1.02715     0.44603     0.40787
 Zero-point vibrational energy     675420.3 (Joules/Mol)
                                  161.42933 (Kcal/Mol)
 Warning -- explicit consideration of  22 degrees of freedom as
           vibrations may cause significant error
 Vibrational temperatures:     24.67    50.96    65.99    82.65   100.60
          (Kelvin)            126.89   233.02   279.40   333.07   368.59
                              380.29   398.86   442.39   471.63   489.01
                              534.88   637.93   658.56   756.07   792.93
                              815.82   885.41   921.15   981.89  1064.60
                             1099.74  1103.39  1146.52  1161.71  1226.53
                             1257.69  1325.11  1338.34  1362.37  1375.54
                             1402.28  1476.03  1509.88  1527.75  1559.39
                             1576.86  1613.49  1677.41  1685.63  1708.97
                             1732.26  1750.47  1771.47  1786.70  1806.40
                             1887.96  1932.02  1966.66  1968.19  2030.43
                             2036.53  2042.86  2076.09  2084.02  2149.31
                             2154.88  2161.51  2202.23  2203.95  2218.23
                             2458.29  2531.89  2606.33  4396.51  4413.01
                             4476.13  4491.52  4522.83  4527.83  4535.84
                             4536.28  4575.18  4589.93  4630.27  4651.93
                             5008.29  5110.98  5128.82  5282.85

 Zero-point correction=                           0.257254 (Hartree/Particle)
 Thermal correction to Energy=                    0.272374
 Thermal correction to Enthalpy=                  0.273319
 Thermal correction to Gibbs Free Energy=         0.212864
 Sum of electronic and zero-point Energies=           -687.544393
 Sum of electronic and thermal Energies=              -687.529273
 Sum of electronic and thermal Enthalpies=            -687.528328
 Sum of electronic and thermal Free Energies=         -687.588783

                     E (Thermal)             CV                S
                      KCal/Mol        Cal/Mol-Kelvin    Cal/Mol-Kelvin
 Total                  170.918             55.623            127.237
 Electronic               0.000              0.000              0.000
 Translational            0.889              2.981             41.786
 Rotational               0.889              2.981             31.820
 Vibrational            169.140             49.662             53.631
 Vibration     1          0.593              1.986              6.940
 Vibration     2          0.594              1.982              5.500
 Vibration     3          0.595              1.979              4.988
 Vibration     4          0.596              1.975              4.543
 Vibration     5          0.598              1.968              4.156
 Vibration     6          0.601              1.957              3.700
 Vibration     7          0.622              1.889              2.527
 Vibration     8          0.635              1.848              2.187
 Vibration     9          0.653              1.793              1.867
 Vibration    10          0.666              1.752              1.688
 Vibration    11          0.671              1.738              1.633
 Vibration    12          0.678              1.716              1.551
 Vibration    13          0.697              1.659              1.376
 Vibration    14          0.711              1.620              1.271
 Vibration    15          0.720              1.596              1.213
 Vibration    16          0.743              1.530              1.073
 Vibration    17          0.803              1.375              0.816
 Vibration    18          0.816              1.344              0.773
 Vibration    19          0.880              1.194              0.597
 Vibration    20          0.906              1.137              0.542
 Vibration    21          0.923              1.103              0.510
 Vibration    22          0.975              0.999              0.424

 Optimization completed.
    -- Stationary point found.
 Normal termination of Gaussian 16 at Thu Dec 10 09:33:19 2020.

 ----------------------------------------------------------------------
 # B3LYP/6-311++G(d,p) empiricaldispersion=gd3bj scf=xqc pop=npa geom=c
 heck
 ----------------------------------------------------------------------

 --------------------------------------
 CID_64894499_JID_4033_Energie_neutraal
 --------------------------------------
 Structure from the checkpoint file:  "JID_4033.chk"
 Charge =  0 Multiplicity = 1

 SCF Done:  E(RB3LYP) =  -688.021459595     A.U. after   15 cycles
 Normal termination of Gaussian 16 at Thu Dec 10 09:37:09 2020.

 ----------------------------------------------------------------------
 # B3LYP/6-311++G(d,p) empiricaldispersion=gd3bj scf=xqc pop=npa geom=c
 heck
 ----------------------------------------------------------------------

 ------------------------------------
 CID_64894499_JID_4033_Energie_kation
 ------------------------------------
 Structure from the checkpoint file:  "JID_4033.chk"
 Charge =  1 Multiplicity = 2

 SCF Done:  E(UB3LYP) =  -687.703724192     A.U. after   28 cycles
 Normal termination of Gaussian 16 at Thu Dec 10 09:48:09 2020.
 Gaussian 16:  ES64L-G16RevA.03 25-Dec-2016

 ----------------------------------------------------------------------
 # B3LYP/6-311++G(d,p) empiricaldispersion=gd3bj scf=xqc pop=npa geom=c
 heck
 ----------------------------------------------------------------------

 -----------------------------------
 CID_64894499_JID_4033_Energie_anion
 -----------------------------------
 Structure from the checkpoint file:  "JID_4033.chk"
 Charge = -1 Multiplicity = 2

                         Standard orientation:
 ---------------------------------------------------------------------
 Center     Atomic      Atomic             Coordinates (Angstroms)
 Number     Number       Type             X           Y           Z
 ---------------------------------------------------------------------
      1          6           0       -1.541011    1.772505   -0.943140
      2          6           0       -1.213605    0.524484   -0.120219
      3          6           0       -2.410315   -0.212797    0.463849
      4          6           0       -3.690673    0.470390    0.871413
      5          6           0       -3.673526   -0.452441   -0.324717
      6          7           0       -0.432840   -0.381796   -0.976571
      7          6           0        0.529552   -1.310705   -0.705424
      8          8           0        0.892758   -2.102775   -1.572756
      9          6           0        1.297601   -1.326578    0.631980
     10          6           0        2.630113   -0.553136    0.411294
     11          6           0        2.399241    0.927519    0.228306
     12          8           0        1.740572    1.631632    0.973930
     13          8           0        3.004967    1.419469   -0.870041
     14          7           0        0.546250   -0.948029    1.828788
     15          1           0       -2.148164    1.533909   -1.824898
     16          1           0       -0.612024    2.235714   -1.287608
     17          1           0       -2.086015    2.506450   -0.343487
     18          1           0       -0.572159    0.839831    0.698198
     19          1           0       -2.085883   -1.028858    1.103959
     20          1           0       -4.177110    0.132135    1.782067
     21          1           0       -3.803388    1.533931    0.682943
     22          1           0       -3.770867    0.002968   -1.306920
     23          1           0       -4.151645   -1.424273   -0.243127
     24          1           0       -0.838701   -0.552899   -1.891689
     25          1           0        1.569671   -2.380096    0.728109
     26          1           0        3.263384   -0.682838    1.297483
     27          1           0        3.153329   -0.960972   -0.455295
     28          1           0        2.794159    2.372787   -0.896484
     29          1           0        0.898409   -1.476974    2.623189
     30          1           0        0.702489    0.035898    2.038937
 ---------------------------------------------------------------------

 SCF Done:  E(UB3LYP) =  -688.012020628     A.U. after   33 cycles
 SCF Done:  E(UB3LYP) =  -688.012020628     a.u. after    1 cycles

 The electronic state is 2-A.
 Alpha  occ. eigenvalues --  -19.06890 -19.01382 -18.98357 -14.23464 -14.19309
 Alpha  occ. eigenvalues --  -10.20419 -10.16985 -10.11793 -10.11600 -10.08465
 Alpha  occ. eigenvalues --  -10.08398 -10.08338 -10.08306 -10.07116  -1.01045
 Alpha  occ. eigenvalues --   -0.93619  -0.91944  -0.82628  -0.79167  -0.76651
 Alpha  occ. eigenvalues --   -0.67353  -0.66175  -0.58033  -0.56350  -0.51754
 Alpha  occ. eigenvalues --   -0.51010  -0.48300  -0.46998  -0.41803  -0.40856
 Alpha  occ. eigenvalues --   -0.40048  -0.38697  -0.38132  -0.37934  -0.36728
 Alpha  occ. eigenvalues --   -0.35823  -0.32438  -0.32127  -0.31877  -0.31289
 Alpha  occ. eigenvalues --   -0.30181  -0.29233  -0.27897  -0.27763  -0.27408
 Alpha  occ. eigenvalues --   -0.25733  -0.24887  -0.22618  -0.21417  -0.19980
 Alpha  occ. eigenvalues --   -0.18476  -0.16966  -0.15398  -0.13982   0.04260
 Alpha virt. eigenvalues --    0.06102   0.06569   0.07837   0.08164   0.08998
 Alpha virt. eigenvalues --    0.09494   0.10248   0.10457   0.10891   0.11204
 Alpha virt. eigenvalues --    0.11453   0.12349   0.12964   0.13409   0.14576

  Beta  occ. eigenvalues --  -19.06827 -19.01339 -18.98353 -14.23453 -14.19274
  Beta  occ. eigenvalues --  -10.20351 -10.16986 -10.11790 -10.11586 -10.08435
  Beta  occ. eigenvalues --  -10.08388 -10.08333 -10.08295 -10.07091  -1.00921
  Beta  occ. eigenvalues --   -0.93612  -0.91845  -0.82614  -0.79107  -0.76641
  Beta  occ. eigenvalues --   -0.67256  -0.66142  -0.57929  -0.56311  -0.51706
  Beta  occ. eigenvalues --   -0.50912  -0.48253  -0.46965  -0.41783  -0.40773
  Beta  occ. eigenvalues --   -0.39966  -0.38653  -0.38090  -0.37855  -0.36669
  Beta  occ. eigenvalues --   -0.35696  -0.32410  -0.32048  -0.31825  -0.31255
  Beta  occ. eigenvalues --   -0.30128  -0.29194  -0.27872  -0.27709  -0.27378
  Beta  occ. eigenvalues --   -0.25698  -0.24856  -0.22455  -0.21401  -0.19958
  Beta  occ. eigenvalues --   -0.18414  -0.16938  -0.15377  -0.13949
  Beta virt. eigenvalues --    0.06304   0.07360   0.07571   0.08004   0.08735
  Beta virt. eigenvalues --    0.09576   0.09943   0.10552   0.10594   0.11229
  Beta virt. eigenvalues --    0.11520   0.11607   0.12684   0.13079   0.13635

 Mulliken charges and spin densities:
               1          2
     1  C    1.447176  -1.996269
     2  C   -0.530626  -0.041579
     3  C   -1.243674   1.558348
     4  C    0.028846  -0.429780
     5  C   -0.186643  -0.283084
     6  N    0.079692  -0.013404
     7  C   -0.471674   0.345494
     8  O   -0.321287  -0.000547
     9  C    0.074143   0.001936
    10  C    1.229843  -1.637420
    11  C    0.169235  -0.288957
    12  O   -0.298766   0.055243
    13  O   -0.140040   0.065109
    14  N   -0.305763  -0.126524
    15  H   -0.104288   0.242483
    16  H   -0.008925   0.190001
    17  H   -0.043830   0.183059
    18  H    0.097492   0.053105
    19  H    0.180511   0.110684
    20  H   -0.037727   0.176289
    21  H   -0.004195   0.130861
    22  H   -0.017093   0.144987
    23  H    0.009812   0.138594
    24  H    0.252100   0.033202
    25  H   -0.201917   0.458617
    26  H   -0.733755   0.946546
    27  H    0.344715  -0.112924
    28  H   -0.474850   0.769724
    29  H   -0.094640   0.396557
    30  H    0.306129  -0.070353
 Sum of Mulliken charges =  -1.00000   1.00000

 Dipole moment (field-independent basis, Debye):
    X=             -5.1700    Y=             -0.3112    Z=             -0.5788  Tot=              5.2116
 Quadrupole moment (field-independent basis, Debye-Ang):
   XX=           -142.4836   YY=           -131.7565   ZZ=           -122.7494
   XY=             -1.2596   XZ=             -2.7884   YZ=              4.7021

 Summary of Natural Population Analysis:

                                       Natural Population
                Natural  -----------------------------------------------
    Atom  No    Charge         Core      Valence    Rydberg      Total
 -----------------------------------------------------------------------
      C    1   -0.28819      0.99965     2.28181    0.00673     3.28819
      C    2   -0.01823      0.99955     2.00543    0.01325     3.01823
      C    3   -0.11532      0.99957     2.10615    0.00960     3.11532
      C    4   -0.19797      0.99962     2.19203    0.00632     3.19797
      C    5   -0.20150      0.99962     2.19533    0.00655     3.20150
      N    6   -0.31401      0.99965     2.80393    0.01043     3.81401
      C    7    0.34529      0.99963     1.63157    0.02351     2.65471
      O    8   -0.33248      0.99988     3.32699    0.00561     4.33248
      C    9   -0.04697      0.99956     2.03151    0.01590     3.04697
      C   10   -0.24224      0.99955     2.23324    0.00945     3.24224
      C   11    0.41490      0.99971     1.56017    0.02522     2.58510
      O   12   -0.32143      0.99987     3.31505    0.00652     4.32143
      O   13   -0.33709      0.99987     3.33055    0.00667     4.33709
      N   14   -0.43146      0.99976     2.92068    0.01102     3.93146
      H   15    0.09367      0.00000     0.40512    0.00121     0.40633
      H   16    0.11012      0.00000     0.38857    0.00131     0.38988
      H   17    0.10167      0.00000     0.39731    0.00102     0.39833
      H   18    0.11273      0.00000     0.38435    0.00293     0.38727
      H   19    0.11675      0.00000     0.38179    0.00147     0.38325
      H   20    0.10075      0.00000     0.39823    0.00102     0.39925
      H   21    0.10086      0.00000     0.39801    0.00113     0.39914
      H   22    0.09970      0.00000     0.39915    0.00115     0.40030
      H   23    0.10084      0.00000     0.39818    0.00098     0.39916
      H   24    0.18880      0.00000     0.30860    0.00260     0.31120
      H   25    0.11027      0.00000     0.38824    0.00149     0.38973
      H   26    0.12038      0.00000     0.37500    0.00462     0.37962
      H   27    0.11774      0.00000     0.38083    0.00143     0.38226
      H   28    0.24401      0.00000     0.24305    0.01294     0.25599
      H   29    0.18178      0.00000     0.31537    0.00286     0.31822
      H   30    0.18665      0.00000     0.31096    0.00239     0.31335
 =======================================================================
   * Total *    0.00000     13.99550    39.80718    0.19731    54.00000

 Normal termination of Gaussian 16 at Thu Dec 10 10:00:28 2020.
