 Gaussian 16, Revision A.03,

 -----------------------------------------------------------
 # opt freq B3LYP/6-31G(d) empiricaldispersion=gd3bj scf=xqc
 -----------------------------------------------------------

 -------------------------------
 CID_130841725_JID_2612_neutraal
 -------------------------------
 Symbolic Z-matrix:
 Charge =  0 Multiplicity = 1

 SCF Done:  E(RB3LYP) =  -522.481898973     A.U. after   13 cycles
 SCF Done:  E(RB3LYP) =  -522.485846761     A.U. after   11 cycles
 SCF Done:  E(RB3LYP) =  -522.486328475     A.U. after   11 cycles
 SCF Done:  E(RB3LYP) =  -522.486446048     A.U. after   10 cycles
 SCF Done:  E(RB3LYP) =  -522.486548977     A.U. after   10 cycles
 SCF Done:  E(RB3LYP) =  -522.486603875     A.U. after   10 cycles
 SCF Done:  E(RB3LYP) =  -522.486701139     A.U. after   11 cycles
 SCF Done:  E(RB3LYP) =  -522.486769048     A.U. after   11 cycles
 SCF Done:  E(RB3LYP) =  -522.486730111     A.U. after   12 cycles
 SCF Done:  E(RB3LYP) =  -522.487032581     A.U. after   11 cycles
 SCF Done:  E(RB3LYP) =  -522.487605136     A.U. after   11 cycles
 SCF Done:  E(RB3LYP) =  -522.487800724     A.U. after   11 cycles
 SCF Done:  E(RB3LYP) =  -522.487803373     A.U. after    9 cycles
 SCF Done:  E(RB3LYP) =  -522.487801283     A.U. after   10 cycles
 SCF Done:  E(RB3LYP) =  -522.487805792     A.U. after    9 cycles
 SCF Done:  E(RB3LYP) =  -522.487806448     A.U. after    8 cycles
 Optimization completed.
    -- Stationary point found.
 Normal termination of Gaussian 16 at Wed Dec  9 17:47:40 2020.

 --------------------------------------------------------------------
 #N Geom=AllCheck Guess=TCheck SCRF=Check GenChk RB3LYP/6-31G(d) Freq
 --------------------------------------------------------------------

 Structure from the checkpoint file:  "JID_2612.chk"
 -------------------------------
 CID_130841725_JID_2612_neutraal
 -------------------------------
 Charge =  0 Multiplicity = 1

 SCF Done:  E(RB3LYP) =  -522.487806448     A.U. after    1 cycles

  Exact polarizability: 123.583  -4.596 106.662   0.335  -4.961 106.536
 Approx polarizability: 151.359  -4.194 150.415  -3.769 -12.684 167.711

                      1                      2                      3
                      A                      A                      A
 Frequencies --     48.2164                54.0615               116.7784
 Red. masses --      3.3172                 3.0233                 2.7259
 Frc consts  --      0.0045                 0.0052                 0.0219
 IR Inten    --      0.2288                 0.2022                 1.4175

                      4                      5                      6
                      A                      A                      A
 Frequencies --    142.7189               178.7494               225.7030
 Red. masses --      2.4020                 2.7262                 2.4290
 Frc consts  --      0.0288                 0.0513                 0.0729
 IR Inten    --      0.1309                 0.2308                 0.1848

                      7                      8                      9
                      A                      A                      A
 Frequencies --    236.6469               255.6942               270.8515
 Red. masses --      1.0732                 1.9522                 1.0811
 Frc consts  --      0.0354                 0.0752                 0.0467
 IR Inten    --      0.1354                 1.5951                 0.1492

                     10                     11                     12
                      A                      A                      A
 Frequencies --    300.9657               305.9431               331.9998
 Red. masses --      1.4398                 2.0198                 2.3129
 Frc consts  --      0.0768                 0.1114                 0.1502
 IR Inten    --      0.8215                 0.8009                 0.2252

                     13                     14                     15
                      A                      A                      A
 Frequencies --    361.9792               391.7925               409.1213
 Red. masses --      2.2808                 2.2424                 3.0730
 Frc consts  --      0.1761                 0.2028                 0.3030
 IR Inten    --      1.1909                 2.3093                 4.1684

                     16                     17                     18
                      A                      A                      A
 Frequencies --    421.3217               471.5602               477.6763
 Red. masses --      2.1996                 2.6323                 2.7149
 Frc consts  --      0.2301                 0.3449                 0.3650
 IR Inten    --      1.4282                 1.3285                 4.4132

                     19                     20                     21
                      A                      A                      A
 Frequencies --    515.8357               583.0576               664.9596
 Red. masses --      3.3105                 2.7189                 2.3512
 Frc consts  --      0.5190                 0.5446                 0.6125
 IR Inten    --      0.5523                 3.6958                 1.6213

                     22                     23                     24
                      A                      A                      A
 Frequencies --    692.9135               766.3257               801.2408
 Red. masses --      1.7859                 3.8066                 2.2050
 Frc consts  --      0.5052                 1.3171                 0.8340
 IR Inten    --     10.8987                 6.4997                 3.5201

                     25                     26                     27
                      A                      A                      A
 Frequencies --    873.0693               886.3442               925.3260
 Red. masses --      2.1534                 2.4642                 1.9223
 Frc consts  --      0.9671                 1.1406                 0.9698
 IR Inten    --      3.4616                 7.7824                 5.9475

                     28                     29                     30
                      A                      A                      A
 Frequencies --    946.5648               950.3461               954.0515
 Red. masses --      1.7393                 1.9208                 1.5190
 Frc consts  --      0.9182                 1.0221                 0.8146
 IR Inten    --      1.0314                 2.2270                15.4309

                     31                     32                     33
                      A                      A                      A
 Frequencies --    956.0229              1010.5105              1016.7088
 Red. masses --      1.5287                 1.5367                 1.8963
 Frc consts  --      0.8232                 0.9245                 1.1549
 IR Inten    --     26.2775                 1.2255                 1.7517

                     34                     35                     36
                      A                      A                      A
 Frequencies --   1042.0646              1044.4897              1068.5267
 Red. masses --      1.0936                 1.4133                 1.6546
 Frc consts  --      0.6997                 0.9084                 1.1131
 IR Inten    --     13.0267                 4.4127                12.0073

                     37                     38                     39
                      A                      A                      A
 Frequencies --   1097.5257              1115.2532              1141.1239
 Red. masses --      1.6044                 2.3997                 3.1723
 Frc consts  --      1.1387                 1.7586                 2.4338
 IR Inten    --      8.1005                21.1011                83.8107

                     40                     41                     42
                      A                      A                      A
 Frequencies --   1145.1277              1179.2225              1225.4789
 Red. masses --      2.4919                 2.1687                 2.4294
 Frc consts  --      1.9253                 1.7768                 2.1496
 IR Inten    --     32.1805                33.9515                65.1937

                     43                     44                     45
                      A                      A                      A
 Frequencies --   1243.4930              1249.7851              1280.0921
 Red. masses --      3.2118                 2.2363                 2.0617
 Frc consts  --      2.9261                 2.0580                 1.9905
 IR Inten    --      1.3695                 2.9080                22.2323

                     46                     47                     48
                      A                      A                      A
 Frequencies --   1285.6073              1314.8831              1332.0775
 Red. masses --      1.2918                 1.2838                 1.3140
 Frc consts  --      1.2580                 1.3077                 1.3737
 IR Inten    --     17.4768                21.2366                13.9728

                     49                     50                     51
                      A                      A                      A
 Frequencies --   1340.8667              1362.3064              1387.7448
 Red. masses --      1.3637                 1.4496                 1.3763
 Frc consts  --      1.4446                 1.5850                 1.5616
 IR Inten    --      6.7586                 9.5523                 6.9372

                     52                     53                     54
                      A                      A                      A
 Frequencies --   1398.8613              1422.4409              1426.3432
 Red. masses --      1.3964                 1.3290                 1.2753
 Frc consts  --      1.6100                 1.5843                 1.5286
 IR Inten    --     39.1269                11.7140                 5.8466

                     55                     56                     57
                      A                      A                      A
 Frequencies --   1432.2726              1439.0912              1447.2300
 Red. masses --      1.2655                 1.3294                 1.3186
 Frc consts  --      1.5295                 1.6221                 1.6272
 IR Inten    --      4.4706                16.0239                 5.3813

                     58                     59                     60
                      A                      A                      A
 Frequencies --   1455.1087              1509.3196              1515.0917
 Red. masses --      1.2354                 1.0549                 1.0491
 Frc consts  --      1.5412                 1.4159                 1.4189
 IR Inten    --     11.0491                 1.0687                 0.6307

                     61                     62                     63
                      A                      A                      A
 Frequencies --   1522.6024              1525.0499              1533.7928
 Red. masses --      1.0623                 1.0616                 1.0803
 Frc consts  --      1.4510                 1.4547                 1.4973
 IR Inten    --      2.1366                 0.3260                 3.9195

                     64                     65                     66
                      A                      A                      A
 Frequencies --   1536.4583              1537.4614              1541.3332
 Red. masses --      1.0523                 1.0591                 1.0769
 Frc consts  --      1.4636                 1.4750                 1.5073
 IR Inten    --      1.0811                 8.4098                 2.0058

                     67                     68                     69
                      A                      A                      A
 Frequencies --   1557.7059              1729.8810              2887.7933
 Red. masses --      1.0867                 4.6726                 1.0804
 Frc consts  --      1.5536                 8.2384                 5.3086
 IR Inten    --      3.9250                 6.3385                65.1199

                     70                     71                     72
                      A                      A                      A
 Frequencies --   2922.5605              2937.9740              3000.7842
 Red. masses --      1.0744                 1.0744                 1.0725
 Frc consts  --      5.4069                 5.4638                 5.6898
 IR Inten    --     64.1255                82.4040                78.1374

                     73                     74                     75
                      A                      A                      A
 Frequencies --   3047.9570              3057.0269              3057.3280
 Red. masses --      1.0358                 1.0347                 1.0362
 Frc consts  --      5.6695                 5.6972                 5.7065
 IR Inten    --     22.1723                13.2434                22.7485

                     76                     77                     78
                      A                      A                      A
 Frequencies --   3098.0823              3112.5521              3114.7953
 Red. masses --      1.0869                 1.1013                 1.0929
 Frc consts  --      6.1466                 6.2862                 6.2473
 IR Inten    --     10.8884                29.9623                48.3667

                     79                     80                     81
                      A                      A                      A
 Frequencies --   3124.8439              3126.0826              3131.8619
 Red. masses --      1.1007                 1.1017                 1.1019
 Frc consts  --      6.3325                 6.3434                 6.3679
 IR Inten    --     21.9852                22.0378                34.5275

                     82                     83                     84
                      A                      A                      A
 Frequencies --   3133.7496              3144.9302              3145.6996
 Red. masses --      1.1030                 1.0888                 1.1014
 Frc consts  --      6.3820                 6.3446                 6.4213
 IR Inten    --     19.4108                33.0206                17.3333

                     85                     86                     87
                      A                      A                      A
 Frequencies --   3149.2076              3170.6647              3251.1371
 Red. masses --      1.0810                 1.0682                 1.1165
 Frc consts  --      6.3162                 6.3268                 6.9533
 IR Inten    --     25.0714                11.0049                16.6086

 - Thermochemistry -
 -------------------
 Temperature   298.150 Kelvin.  Pressure   1.00000 Atm.
 Atom     1 has atomic number  6 and mass  12.00000

 Molecular mass:   169.14666 amu.
 Principal axes and moments of inertia in atomic units:
                           1         2         3
     Eigenvalues --  1180.765662830.138593158.90754
           X            0.99995  -0.01001   0.00261
           Y            0.00998   0.99988   0.01145
           Z           -0.00272  -0.01142   0.99993
 This molecule is an asymmetric top.
 Rotational symmetry number  1.
 Warning -- assumption of classical behavior for rotation
           may cause significant error
 Rotational temperatures (Kelvin)      0.07335     0.03060     0.02742
 Rotational constants (GHZ):           1.52845     0.63769     0.57132
 Zero-point vibrational energy     738968.0 (Joules/Mol)
                                  176.61759 (Kcal/Mol)
 Warning -- explicit consideration of  20 degrees of freedom as
           vibrations may cause significant error
 Vibrational temperatures:     69.37    77.78   168.02   205.34   257.18
          (Kelvin)            324.74   340.48   367.89   389.69   433.02
                              440.18   477.67   520.81   563.70   588.63
                              606.19   678.47   687.27   742.17   838.89
                              956.73   996.95  1102.57  1152.81  1256.15
                             1275.25  1331.34  1361.90  1367.34  1372.67
                             1375.50  1453.90  1462.82  1499.30  1502.79
                             1537.37  1579.09  1604.60  1641.82  1647.58
                             1696.64  1763.19  1789.11  1798.16  1841.77
                             1849.70  1891.82  1916.56  1929.21  1960.06
                             1996.66  2012.65  2046.58  2052.19  2060.72
                             2070.53  2082.24  2093.58  2171.57  2179.88
                             2190.69  2194.21  2206.79  2210.62  2212.06
                             2217.63  2241.19  2488.91  4154.89  4204.91
                             4227.09  4317.46  4385.33  4398.38  4398.81
                             4457.45  4478.27  4481.50  4495.95  4497.74
                             4506.05  4508.77  4524.85  4525.96  4531.01
                             4561.88  4677.66

 Zero-point correction=                           0.281458 (Hartree/Particle)
 Thermal correction to Energy=                    0.294433
 Thermal correction to Enthalpy=                  0.295377
 Thermal correction to Gibbs Free Energy=         0.242862
 Sum of electronic and zero-point Energies=           -522.206348
 Sum of electronic and thermal Energies=              -522.193373
 Sum of electronic and thermal Enthalpies=            -522.192429
 Sum of electronic and thermal Free Energies=         -522.244944

                     E (Thermal)             CV                S
                      KCal/Mol        Cal/Mol-Kelvin    Cal/Mol-Kelvin
 Total                  184.760             50.555            110.527
 Electronic               0.000              0.000              0.000
 Translational            0.889              2.981             41.285
 Rotational               0.889              2.981             30.735
 Vibrational            182.982             44.593             38.507
 Vibration     1          0.595              1.978              4.889
 Vibration     2          0.596              1.976              4.663
 Vibration     3          0.608              1.935              3.153
 Vibration     4          0.616              1.910              2.767
 Vibration     5          0.629              1.868              2.341
 Vibration     6          0.650              1.802              1.913
 Vibration     7          0.656              1.785              1.828
 Vibration     8          0.666              1.753              1.691
 Vibration     9          0.675              1.727              1.591
 Vibration    10          0.693              1.672              1.412
 Vibration    11          0.696              1.662              1.384
 Vibration    12          0.714              1.612              1.250
 Vibration    13          0.736              1.551              1.114
 Vibration    14          0.759              1.488              0.993
 Vibration    15          0.773              1.450              0.930
 Vibration    16          0.784              1.424              0.887
 Vibration    17          0.829              1.313              0.733
 Vibration    18          0.834              1.300              0.716
 Vibration    19          0.871              1.215              0.620
 Vibration    20          0.940              1.068              0.480

                           ! Non-Optimized Parameters !
 Normal termination of Gaussian 16 at Wed Dec  9 17:56:32 2020.

 ----------------------------------------------------------------------
 # B3LYP/6-311++G(d,p) empiricaldispersion=gd3bj scf=xqc pop=npa geom=c
 heck
 ----------------------------------------------------------------------

 ---------------------------------------
 CID_130841725_JID_2612_Energie_neutraal
 ---------------------------------------
 Structure from the checkpoint file:  "JID_2612.chk"
 Charge =  0 Multiplicity = 1

 SCF Done:  E(RB3LYP) =  -522.635497696     A.U. after   13 cycles
 Normal termination of Gaussian 16 at Wed Dec  9 18:00:41 2020.

 ----------------------------------------------------------------------
 # B3LYP/6-311++G(d,p) empiricaldispersion=gd3bj scf=xqc pop=npa geom=c
 heck
 ----------------------------------------------------------------------

 -------------------------------------
 CID_130841725_JID_2612_Energie_kation
 -------------------------------------
 Structure from the checkpoint file:  "JID_2612.chk"
 Charge =  1 Multiplicity = 2

 SCF Done:  E(UB3LYP) =  -522.345286764     A.U. after   21 cycles
 Normal termination of Gaussian 16 at Wed Dec  9 18:09:46 2020.
 Gaussian 16:  ES64L-G16RevA.03 25-Dec-2016

 ----------------------------------------------------------------------
 # B3LYP/6-311++G(d,p) empiricaldispersion=gd3bj scf=xqc pop=npa geom=c
 heck
 ----------------------------------------------------------------------

 ------------------------------------
 CID_130841725_JID_2612_Energie_anion
 ------------------------------------
 Structure from the checkpoint file:  "JID_2612.chk"
 Charge = -1 Multiplicity = 2

                         Standard orientation:
 ---------------------------------------------------------------------
 Center     Atomic      Atomic             Coordinates (Angstroms)
 Number     Number       Type             X           Y           Z
 ---------------------------------------------------------------------
      1          6           0        2.076991    1.908297   -0.525127
      2          6           0        1.884370    0.389262   -0.666347
      3          6           0        2.982947   -0.293070    0.127172
      4          6           0        2.847141   -0.796306    1.352626
      5          7           0        0.563087   -0.068316   -0.236255
      6          6           0        0.330043   -1.477817   -0.586932
      7          6           0       -1.172787   -1.778459   -0.633659
      8          8           0       -1.855515   -1.095607    0.398155
      9          6           0       -1.807835    0.339976    0.243472
     10          6           0       -0.579550    0.754173   -0.602981
     11          6           0       -1.682870    0.890113    1.662646
     12          6           0       -3.099107    0.804443   -0.433305
     13          1           0        1.829424    2.225573    0.493281
     14          1           0        1.470774    2.475632   -1.238066
     15          1           0        3.126003    2.160331   -0.710093
     16          1           0        2.040672    0.137929   -1.736496
     17          1           0        3.958993   -0.299387   -0.358491
     18          1           0        3.689041   -1.227548    1.886744
     19          1           0        1.883352   -0.790523    1.853399
     20          1           0        0.772548   -1.725158   -1.571281
     21          1           0        0.820032   -2.115065    0.153879
     22          1           0       -1.350903   -2.846068   -0.476618
     23          1           0       -1.591801   -1.519118   -1.618611
     24          1           0       -0.368784    1.800662   -0.381220
     25          1           0       -0.818079    0.701635   -1.683450
     26          1           0       -1.787507    1.981087    1.671752
     27          1           0       -2.463005    0.459458    2.297897
     28          1           0       -0.705635    0.621982    2.073504
     29          1           0       -3.220345    0.322018   -1.409711
     30          1           0       -3.963533    0.546089    0.186039
     31          1           0       -3.094789    1.889872   -0.589300
 ---------------------------------------------------------------------

 SCF Done:  E(UB3LYP) =  -522.619673971     A.U. after   31 cycles

 The electronic state is 2-A.
 Alpha  occ. eigenvalues --  -19.01712 -14.20178 -10.12601 -10.11341 -10.10275
 Alpha  occ. eigenvalues --  -10.08792 -10.08649 -10.07046 -10.05846 -10.05814
 Alpha  occ. eigenvalues --  -10.05689 -10.05404  -0.93624  -0.82290  -0.70277
 Alpha  occ. eigenvalues --   -0.69043  -0.63517  -0.60735  -0.59142  -0.58149
 Alpha  occ. eigenvalues --   -0.52342  -0.50513  -0.44435  -0.42834  -0.40732
 Alpha  occ. eigenvalues --   -0.39488  -0.37972  -0.36961  -0.33960  -0.32889
 Alpha  occ. eigenvalues --   -0.32501  -0.32121  -0.31007  -0.30164  -0.28547
 Alpha  occ. eigenvalues --   -0.28005  -0.27589  -0.26752  -0.26715  -0.25956
 Alpha  occ. eigenvalues --   -0.24588  -0.24345  -0.22731  -0.20501  -0.15996
 Alpha  occ. eigenvalues --   -0.15268  -0.11377   0.04632
 Alpha virt. eigenvalues --    0.06813   0.07423   0.07833   0.08693   0.09143
 Alpha virt. eigenvalues --    0.09533   0.09723   0.10141   0.10956   0.11609
 Alpha virt. eigenvalues --    0.11745   0.12519   0.12619   0.13613   0.13775

  Beta  occ. eigenvalues --  -19.01709 -14.20167 -10.12598 -10.11321 -10.10262
  Beta  occ. eigenvalues --  -10.08767 -10.08637 -10.07030 -10.05820 -10.05774
  Beta  occ. eigenvalues --  -10.05658 -10.05389  -0.93617  -0.82262  -0.70253
  Beta  occ. eigenvalues --   -0.69000  -0.63471  -0.60686  -0.59102  -0.58099
  Beta  occ. eigenvalues --   -0.52284  -0.50459  -0.44384  -0.42779  -0.40691
  Beta  occ. eigenvalues --   -0.39454  -0.37935  -0.36916  -0.33928  -0.32853
  Beta  occ. eigenvalues --   -0.32457  -0.32092  -0.30975  -0.30126  -0.28511
  Beta  occ. eigenvalues --   -0.27965  -0.27560  -0.26721  -0.26683  -0.25922
  Beta  occ. eigenvalues --   -0.24556  -0.24311  -0.22704  -0.20479  -0.15910
  Beta  occ. eigenvalues --   -0.15243  -0.11303
  Beta virt. eigenvalues --    0.06852   0.07571   0.08117   0.08398   0.09102
  Beta virt. eigenvalues --    0.09573   0.09827   0.10150   0.10682   0.11485
  Beta virt. eigenvalues --    0.12002   0.12045   0.13004   0.13094   0.13959

 Mulliken charges and spin densities:
               1          2
     1  C    1.435766  -2.053514
     2  C   -0.432778   0.301618
     3  C   -0.816166   1.059083
     4  C    0.916645  -1.537729
     5  N    0.201559   0.146498
     6  C   -0.401728   0.308999
     7  C    0.635795  -0.981466
     8  O   -0.047284   0.031655
     9  C   -1.286737   1.070587
    10  C    0.107255  -0.688459
    11  C    0.131977  -0.589041
    12  C    0.809106  -1.198028
    13  H    0.005164   0.147357
    14  H   -0.473345   0.634356
    15  H   -0.502986   0.668541
    16  H    0.037457   0.083682
    17  H   -0.599866   0.797004
    18  H   -0.045950   0.178555
    19  H    0.101352   0.023275
    20  H   -0.356268   0.469842
    21  H    0.076996   0.068851
    22  H   -0.124799   0.303974
    23  H    0.034405   0.121262
    24  H    0.552875  -0.394032
    25  H   -0.435849   0.628335
    26  H   -0.127372   0.254032
    27  H    0.087792   0.070772
    28  H    0.062693   0.083610
    29  H   -0.173061   0.313567
    30  H   -0.043383   0.195515
    31  H   -0.329265   0.481301
 Sum of Mulliken charges =  -1.00000   1.00000

 Dipole moment (field-independent basis, Debye):
    X=             -1.8142    Y=             -2.6100    Z=              3.5160  Tot=              4.7398
 Quadrupole moment (field-independent basis, Debye-Ang):
   XX=           -141.8129   YY=           -120.7648   ZZ=           -114.6700
   XY=             -1.8587   XZ=              2.4490   YZ=              5.3585

 Summary of Natural Population Analysis:

                                       Natural Population
                Natural  -----------------------------------------------
    Atom  No    Charge         Core      Valence    Rydberg      Total
 -----------------------------------------------------------------------
      C    1   -0.28527      0.99964     2.27961    0.00602     3.28527
      C    2   -0.01931      0.99957     2.00539    0.01435     3.01931
      C    3   -0.08222      0.99955     2.07089    0.01179     3.08222
      C    4   -0.19607      0.99955     2.18870    0.00782     3.19607
      N    5   -0.28683      0.99969     2.77316    0.01397     3.78683
      C    6   -0.09195      0.99961     2.08207    0.01027     3.09195
      C    7   -0.01487      0.99957     2.00252    0.01279     3.01487
      O    8   -0.30871      0.99987     3.29904    0.00980     4.30871
      C    9    0.13295      0.99953     1.85117    0.01635     2.86705
      C   10   -0.10044      0.99955     2.08806    0.01284     3.10044
      C   11   -0.29028      0.99960     2.28368    0.00701     3.29028
      C   12   -0.29619      0.99960     2.28925    0.00734     3.29619
      H   13    0.10051      0.00000     0.39817    0.00132     0.39949
      H   14    0.10344      0.00000     0.39480    0.00176     0.39656
      H   15    0.10494      0.00000     0.39374    0.00132     0.39506
      H   16    0.08589      0.00000     0.41113    0.00299     0.41411
      H   17    0.09469      0.00000     0.40408    0.00123     0.40531
      H   18    0.09193      0.00000     0.40723    0.00084     0.40807
      H   19    0.09751      0.00000     0.40086    0.00163     0.40249
      H   20    0.08616      0.00000     0.41238    0.00147     0.41384
      H   21    0.09698      0.00000     0.40158    0.00144     0.40302
      H   22    0.09244      0.00000     0.40650    0.00106     0.40756
      H   23    0.07900      0.00000     0.41941    0.00158     0.42100
      H   24    0.10794      0.00000     0.38990    0.00216     0.39206
      H   25    0.08699      0.00000     0.41090    0.00212     0.41301
      H   26    0.09794      0.00000     0.40125    0.00080     0.40206
      H   27    0.10077      0.00000     0.39836    0.00087     0.39923
      H   28    0.10673      0.00000     0.39169    0.00158     0.39327
      H   29    0.10197      0.00000     0.39678    0.00125     0.39803
      H   30    0.10137      0.00000     0.39760    0.00104     0.39863
      H   31    0.10203      0.00000     0.39666    0.00131     0.39797
 =======================================================================
   * Total *    0.00000     11.99532    34.84657    0.15811    47.00000

 Normal termination of Gaussian 16 at Wed Dec  9 18:22:45 2020.
