 Gaussian 16, Revision A.03,

 -----------------------------------------------------------
 # opt freq B3LYP/6-31G(d) empiricaldispersion=gd3bj scf=xqc
 -----------------------------------------------------------

 -------------------------------
 CID_117029871_JID_4811_neutraal
 -------------------------------
 Symbolic Z-matrix:
 Charge =  0 Multiplicity = 1

 SCF Done:  E(RB3LYP) =  -1046.64039114     A.U. after   15 cycles
 SCF Done:  E(RB3LYP) =  -1046.64674861     A.U. after   12 cycles
 SCF Done:  E(RB3LYP) =  -1046.64735684     A.U. after   12 cycles
 SCF Done:  E(RB3LYP) =  -1046.64744594     A.U. after   11 cycles
 SCF Done:  E(RB3LYP) =  -1046.64766856     A.U. after   11 cycles
 SCF Done:  E(RB3LYP) =  -1046.64771740     A.U. after   11 cycles
 SCF Done:  E(RB3LYP) =  -1046.64774258     A.U. after   11 cycles
 SCF Done:  E(RB3LYP) =  -1046.64775358     A.U. after   10 cycles
 SCF Done:  E(RB3LYP) =  -1046.64776952     A.U. after   11 cycles
 SCF Done:  E(RB3LYP) =  -1046.64778464     A.U. after   11 cycles
 SCF Done:  E(RB3LYP) =  -1046.64844751     A.U. after   11 cycles
 SCF Done:  E(RB3LYP) =  -1046.64847270     A.U. after   11 cycles
 SCF Done:  E(RB3LYP) =  -1046.64847800     A.U. after   10 cycles
 SCF Done:  E(RB3LYP) =  -1046.64848005     A.U. after   10 cycles
 SCF Done:  E(RB3LYP) =  -1046.64848039     A.U. after    8 cycles
 Optimization completed.
    -- Stationary point found.
 Normal termination of Gaussian 16 at Thu Dec 10 10:29:14 2020.

 --------------------------------------------------------------------
 #N Geom=AllCheck Guess=TCheck SCRF=Check GenChk RB3LYP/6-31G(d) Freq
 --------------------------------------------------------------------

 Structure from the checkpoint file:  "JID_4811.chk"
 -------------------------------
 CID_117029871_JID_4811_neutraal
 -------------------------------
 Charge =  0 Multiplicity = 1

 SCF Done:  E(RB3LYP) =  -1046.64848039     A.U. after    1 cycles

  Exact polarizability: 134.632  -3.694 113.355  -0.472  -1.061  98.882
 Approx polarizability: 166.370  -4.377 188.042  -5.701   4.836 159.520

                      1                      2                      3
                      A                      A                      A
 Frequencies --     31.7974                69.1280                87.9392
 Red. masses --      3.7223                 5.3086                 5.9194
 Frc consts  --      0.0022                 0.0149                 0.0270
 IR Inten    --      0.0655                 8.1732                 1.2755

                      4                      5                      6
                      A                      A                      A
 Frequencies --     97.1747               140.5915               194.1319
 Red. masses --      5.4503                 2.5703                 3.8784
 Frc consts  --      0.0303                 0.0299                 0.0861
 IR Inten    --      1.3208                 2.5406                 2.6982

                      7                      8                      9
                      A                      A                      A
 Frequencies --    237.2022               249.6011               256.1704
 Red. masses --      5.7729                 2.8114                 2.5391
 Frc consts  --      0.1914                 0.1032                 0.0982
 IR Inten    --      3.3856                 0.3072                 0.3030

                     10                     11                     12
                      A                      A                      A
 Frequencies --    308.9512               357.9871               387.8895
 Red. masses --      4.1108                 2.3349                 5.1909
 Frc consts  --      0.2312                 0.1763                 0.4602
 IR Inten    --      1.6777                 0.6342                 2.7004

                     13                     14                     15
                      A                      A                      A
 Frequencies --    409.9067               443.9110               453.0170
 Red. masses --      5.1054                 3.9325                 3.1557
 Frc consts  --      0.5054                 0.4566                 0.3816
 IR Inten    --     37.9797                12.2799                 4.9793

                     16                     17                     18
                      A                      A                      A
 Frequencies --    484.6416               529.8803               532.3711
 Red. masses --      3.9390                 3.1331                 2.8098
 Frc consts  --      0.5451                 0.5183                 0.4692
 IR Inten    --      0.7752                41.0298                60.5911

                     19                     20                     21
                      A                      A                      A
 Frequencies --    543.7852               584.6754               623.0366
 Red. masses --      3.8393                 4.6577                 5.1610
 Frc consts  --      0.6689                 0.9381                 1.1804
 IR Inten    --     11.2538                39.5244                15.3501

                     22                     23                     24
                      A                      A                      A
 Frequencies --    695.9633               758.3283               800.7105
 Red. masses --      3.9868                 2.4948                 1.9021
 Frc consts  --      1.1378                 0.8453                 0.7185
 IR Inten    --      7.2263                25.2968                88.0598

                     25                     26                     27
                      A                      A                      A
 Frequencies --    838.6878               846.9752               878.8029
 Red. masses --      1.4683                 2.0817                 2.2663
 Frc consts  --      0.6085                 0.8798                 1.0312
 IR Inten    --      2.5500                23.2895                14.5840

                     28                     29                     30
                      A                      A                      A
 Frequencies --    912.9404               928.8028               979.5993
 Red. masses --      2.2894                 2.0742                 3.1147
 Frc consts  --      1.1242                 1.0543                 1.7610
 IR Inten    --      1.1869                 2.6087                13.0399

                     31                     32                     33
                      A                      A                      A
 Frequencies --   1009.1933              1010.7062              1018.0715
 Red. masses --      1.7972                 1.5151                 2.2563
 Frc consts  --      1.0784                 0.9119                 1.3779
 IR Inten    --      8.0715                 2.6433                13.6232

                     34                     35                     36
                      A                      A                      A
 Frequencies --   1035.0684              1067.0458              1112.4085
 Red. masses --      2.3905                 1.6796                 3.8605
 Frc consts  --      1.5090                 1.1267                 2.8146
 IR Inten    --     16.3279                12.6940                43.9314

                     37                     38                     39
                      A                      A                      A
 Frequencies --   1125.4033              1130.2450              1151.1380
 Red. masses --      3.0055                 4.0985                 1.3634
 Frc consts  --      2.2428                 3.0848                 1.0645
 IR Inten    --     34.4999                73.6547                23.3371

                     40                     41                     42
                      A                      A                      A
 Frequencies --   1168.5068              1179.2231              1186.6950
 Red. masses --      2.5391                 2.7492                 1.1731
 Frc consts  --      2.0426                 2.2524                 0.9733
 IR Inten    --     27.2060                32.4936                 1.0043

                     43                     44                     45
                      A                      A                      A
 Frequencies --   1221.6779              1249.0780              1295.6414
 Red. masses --      1.5797                 1.2542                 1.5305
 Frc consts  --      1.3891                 1.1529                 1.5138
 IR Inten    --     80.2893                 0.1575                40.3883

                     46                     47                     48
                      A                      A                      A
 Frequencies --   1308.6684              1321.1913              1329.4515
 Red. masses --      1.4547                 1.3485                 1.5607
 Frc consts  --      1.4678                 1.3869                 1.6253
 IR Inten    --     33.6918                17.8770                45.5482

                     49                     50                     51
                      A                      A                      A
 Frequencies --   1337.2118              1344.7820              1352.2443
 Red. masses --      3.3683                 3.1251                 1.4288
 Frc consts  --      3.5486                 3.3298                 1.5393
 IR Inten    --     93.7284               223.9303                19.2676

                     52                     53                     54
                      A                      A                      A
 Frequencies --   1368.9891              1380.9312              1407.8291
 Red. masses --      1.3301                 1.3551                 1.3515
 Frc consts  --      1.4687                 1.5225                 1.5782
 IR Inten    --     42.9858                33.5022                 0.9050

                     55                     56                     57
                      A                      A                      A
 Frequencies --   1430.6572              1449.7330              1486.6292
 Red. masses --      1.3913                 1.4620                 1.0799
 Frc consts  --      1.6778                 1.8104                 1.4062
 IR Inten    --     17.5441                 5.8257                 3.5898

                     58                     59                     60
                      A                      A                      A
 Frequencies --   1498.3660              1500.6858              1506.8019
 Red. masses --      1.2337                 1.1016                 1.1258
 Frc consts  --      1.6320                 1.4616                 1.5060
 IR Inten    --      4.7531                 5.5083                 1.2820

                     61                     62                     63
                      A                      A                      A
 Frequencies --   1522.6015              1528.2434              1538.8525
 Red. masses --      1.0999                 1.1191                 1.1034
 Frc consts  --      1.5024                 1.5399                 1.5395
 IR Inten    --      6.4605                 0.5661                 3.2182

                     64                     65                     66
                      A                      A                      A
 Frequencies --   1818.8259              2916.0062              2922.0769
 Red. masses --     12.2677                 1.0746                 1.0727
 Frc consts  --     23.9109                 5.3835                 5.3964
 IR Inten    --    286.8204                27.0168               140.0513

                     67                     68                     69
                      A                      A                      A
 Frequencies --   3070.4329              3073.6130              3078.5559
 Red. masses --      1.0629                 1.0714                 1.0746
 Frc consts  --      5.9038                 5.9635                 6.0005
 IR Inten    --     12.8106                 2.5618                14.9806

                     70                     71                     72
                      A                      A                      A
 Frequencies --   3089.9699              3090.3329              3094.1641
 Red. masses --      1.0646                 1.0870                 1.0863
 Frc consts  --      5.9890                 6.1163                 6.1275
 IR Inten    --      4.0008                54.0144                30.1837

                     73                     74                     75
                      A                      A                      A
 Frequencies --   3113.2666              3125.5637              3130.1244
 Red. masses --      1.0585                 1.1057                 1.1033
 Frc consts  --      6.0448                 6.3641                 6.3687
 IR Inten    --      1.6513                 8.7118                17.5671

                     76                     77                     78
                      A                      A                      A
 Frequencies --   3150.9878              3180.5774              3508.0867
 Red. masses --      1.1008                 1.1100                 1.0747
 Frc consts  --      6.4397                 6.6161                 7.7923
 IR Inten    --      1.9730                 0.2159                 1.2265

 - Thermochemistry -
 -------------------
 Temperature   298.150 Kelvin.  Pressure   1.00000 Atm.
 Atom     1 has atomic number  6 and mass  12.00000

 Molecular mass:   218.07251 amu.
 Principal axes and moments of inertia in atomic units:
                           1         2         3
     Eigenvalues --  1692.548243881.204384574.53682
           X            0.99997  -0.00432   0.00611
           Y            0.00450   0.99955  -0.02970
           Z           -0.00598   0.02973   0.99954
 This molecule is an asymmetric top.
 Rotational symmetry number  1.
 Warning -- assumption of classical behavior for rotation
           may cause significant error
 Rotational temperatures (Kelvin)      0.05117     0.02232     0.01893
 Rotational constants (GHZ):           1.06629     0.46500     0.39452
 Zero-point vibrational energy     613691.2 (Joules/Mol)
                                  146.67571 (Kcal/Mol)
 Warning -- explicit consideration of  20 degrees of freedom as
           vibrations may cause significant error
 Vibrational temperatures:     45.75    99.46   126.52   139.81   202.28
          (Kelvin)            279.31   341.28   359.12   368.57   444.51
                              515.06   558.09   589.76   638.69   651.79
                              697.29   762.38   765.96   782.39   841.22
                              896.41  1001.34  1091.07  1152.04  1206.68
                             1218.61  1264.40  1313.52  1336.34  1409.42
                             1452.00  1454.18  1464.78  1489.23  1535.24
                             1600.51  1619.20  1626.17  1656.23  1681.22
                             1696.64  1707.39  1757.72  1797.14  1864.14
                             1882.88  1900.90  1912.78  1923.95  1934.84
                             1945.58  1969.67  1986.85  2025.55  2058.40
                             2085.84  2138.93  2155.81  2159.15  2167.95
                             2190.68  2198.80  2214.07  2616.88  4195.48
                             4204.22  4417.67  4422.24  4429.36  4445.78
                             4446.30  4451.81  4479.30  4496.99  4503.55
                             4533.57  4576.14  5047.35

 Zero-point correction=                           0.233743 (Hartree/Particle)
 Thermal correction to Energy=                    0.246600
 Thermal correction to Enthalpy=                  0.247544
 Thermal correction to Gibbs Free Energy=         0.193706
 Sum of electronic and zero-point Energies=          -1046.414738
 Sum of electronic and thermal Energies=             -1046.401881
 Sum of electronic and thermal Enthalpies=           -1046.400936
 Sum of electronic and thermal Free Energies=        -1046.454774

                     E (Thermal)             CV                S
                      KCal/Mol        Cal/Mol-Kelvin    Cal/Mol-Kelvin
 Total                  154.744             49.652            113.312
 Electronic               0.000              0.000              0.000
 Translational            0.889              2.981             42.042
 Rotational               0.889              2.981             31.775
 Vibrational            152.966             43.691             39.495
 Vibration     1          0.594              1.983              5.714
 Vibration     2          0.598              1.969              4.178
 Vibration     3          0.601              1.958              3.705
 Vibration     4          0.603              1.951              3.510
 Vibration     5          0.615              1.913              2.796
 Vibration     6          0.635              1.848              2.188
 Vibration     7          0.656              1.784              1.824
 Vibration     8          0.662              1.763              1.733
 Vibration     9          0.666              1.752              1.688
 Vibration    10          0.698              1.657              1.368
 Vibration    11          0.733              1.559              1.131
 Vibration    12          0.756              1.496              1.008
 Vibration    13          0.774              1.449              0.927
 Vibration    14          0.803              1.374              0.814
 Vibration    15          0.812              1.354              0.787
 Vibration    16          0.841              1.284              0.698
 Vibration    17          0.885              1.184              0.587
 Vibration    18          0.887              1.178              0.582
 Vibration    19          0.899              1.153              0.557
 Vibration    20          0.942              1.065              0.477

 Optimization completed.
    -- Stationary point found.
 Normal termination of Gaussian 16 at Thu Dec 10 10:38:31 2020.

 ----------------------------------------------------------------------
 # B3LYP/6-311++G(d,p) empiricaldispersion=gd3bj scf=xqc pop=npa geom=c
 heck
 ----------------------------------------------------------------------

 ---------------------------------------
 CID_117029871_JID_4811_Energie_neutraal
 ---------------------------------------
 Structure from the checkpoint file:  "JID_4811.chk"
 Charge =  0 Multiplicity = 1

 SCF Done:  E(RB3LYP) =  -1046.86398514     A.U. after   17 cycles
 Normal termination of Gaussian 16 at Thu Dec 10 10:43:26 2020.

 ----------------------------------------------------------------------
 # B3LYP/6-311++G(d,p) empiricaldispersion=gd3bj scf=xqc pop=npa geom=c
 heck
 ----------------------------------------------------------------------

 -------------------------------------
 CID_117029871_JID_4811_Energie_kation
 -------------------------------------
 Structure from the checkpoint file:  "JID_4811.chk"
 Charge =  1 Multiplicity = 2

 SCF Done:  E(UB3LYP) =  -1046.54461208     A.U. after   31 cycles
 Normal termination of Gaussian 16 at Thu Dec 10 10:56:04 2020.
 Gaussian 16:  ES64L-G16RevA.03 25-Dec-2016

 ----------------------------------------------------------------------
 # B3LYP/6-311++G(d,p) empiricaldispersion=gd3bj scf=xqc pop=npa geom=c
 heck
 ----------------------------------------------------------------------

 ------------------------------------
 CID_117029871_JID_4811_Energie_anion
 ------------------------------------
 Structure from the checkpoint file:  "JID_4811.chk"
 Charge = -1 Multiplicity = 2

                         Standard orientation:
 ---------------------------------------------------------------------
 Center     Atomic      Atomic             Coordinates (Angstroms)
 Number     Number       Type             X           Y           Z
 ---------------------------------------------------------------------
      1          6           0        1.498841   -0.631601    1.048656
      2          6           0        3.016653   -0.444674    1.137734
      3          7           0        3.584148   -0.413218   -0.208937
      4          6           0        3.087932    0.724112   -0.982215
      5          6           0        1.571651    0.600011   -1.157840
      6          6           0        0.903721    0.513030    0.220353
      7          7           0       -0.564077    0.429763    0.110088
      8          6           0       -1.382504    1.535093    0.278960
      9          8           0       -0.974794    2.656092    0.510866
     10          6           0       -2.855064    1.144469    0.149266
     11          6           0       -2.930133   -0.182314   -0.607806
     12         16           0       -1.402454   -1.046010   -0.143772
     13          8           0       -1.598954   -1.735814    1.132728
     14          8           0       -0.795562   -1.753614   -1.271392
     15          1           0        1.051050   -0.651705    2.047280
     16          1           0        1.295318   -1.591787    0.563836
     17          1           0        3.230365    0.478603    1.713511
     18          1           0        3.460251   -1.281961    1.686371
     19          1           0        4.599188   -0.377333   -0.154454
     20          1           0        3.578200    0.723802   -1.961469
     21          1           0        3.313198    1.697179   -0.500534
     22          1           0        1.339485   -0.302626   -1.730607
     23          1           0        1.179788    1.467187   -1.701046
     24          1           0        1.067138    1.457946    0.750217
     25          1           0       -3.268104    1.045703    1.158828
     26          1           0       -3.392996    1.946693   -0.359722
     27          1           0       -3.767752   -0.823390   -0.328653
     28          1           0       -2.898471   -0.050053   -1.691517
 ---------------------------------------------------------------------

 SCF Done:  E(UB3LYP) =  -1046.85390045     A.U. after   33 cycles
 SCF Done:  E(UB3LYP) =  -1046.85390045     a.u. after    1 cycles

 The electronic state is 2-A.
 Alpha  occ. eigenvalues --  -88.98352 -19.04007 -19.03693 -19.02005 -14.27758
 Alpha  occ. eigenvalues --  -14.20738 -10.20452 -10.13164 -10.13024 -10.11083
 Alpha  occ. eigenvalues --  -10.10536 -10.10310 -10.08084 -10.07578  -8.04603
 Alpha  occ. eigenvalues --   -6.00932  -6.00800  -6.00657  -1.04094  -0.97013
 Alpha  occ. eigenvalues --   -0.92903  -0.86700  -0.82394  -0.74700  -0.68980
 Alpha  occ. eigenvalues --   -0.66812  -0.62982  -0.57726  -0.55235  -0.53645
 Alpha  occ. eigenvalues --   -0.48497  -0.47409  -0.43400  -0.42143  -0.41636
 Alpha  occ. eigenvalues --   -0.39436  -0.38579  -0.36959  -0.36763  -0.35673
 Alpha  occ. eigenvalues --   -0.35136  -0.34369  -0.33382  -0.32876  -0.32278
 Alpha  occ. eigenvalues --   -0.30245  -0.28486  -0.28079  -0.26749  -0.25817
 Alpha  occ. eigenvalues --   -0.25143  -0.24548  -0.24030  -0.23012  -0.22114
 Alpha  occ. eigenvalues --   -0.18573  -0.18110  -0.14142   0.04065
 Alpha virt. eigenvalues --    0.05261   0.07371   0.07704   0.08224   0.08488
 Alpha virt. eigenvalues --    0.08973   0.09228   0.10769   0.11166   0.11558
 Alpha virt. eigenvalues --    0.12005   0.12340   0.12645   0.13206   0.13676

  Beta  occ. eigenvalues --  -88.98351 -19.04004 -19.03679 -19.01986 -14.27742
  Beta  occ. eigenvalues --  -14.20713 -10.20441 -10.13163 -10.12964 -10.11040
  Beta  occ. eigenvalues --  -10.10520 -10.10294 -10.08079 -10.07572  -8.04601
  Beta  occ. eigenvalues --   -6.00931  -6.00798  -6.00656  -1.04074  -0.96980
  Beta  occ. eigenvalues --   -0.92881  -0.86671  -0.82357  -0.74655  -0.68936
  Beta  occ. eigenvalues --   -0.66787  -0.62918  -0.57673  -0.55178  -0.53607
  Beta  occ. eigenvalues --   -0.48439  -0.47371  -0.43357  -0.42087  -0.41585
  Beta  occ. eigenvalues --   -0.39407  -0.38523  -0.36924  -0.36736  -0.35633
  Beta  occ. eigenvalues --   -0.35087  -0.34343  -0.33306  -0.32837  -0.32236
  Beta  occ. eigenvalues --   -0.30210  -0.28429  -0.28053  -0.26725  -0.25790
  Beta  occ. eigenvalues --   -0.25118  -0.24516  -0.24007  -0.22995  -0.22079
  Beta  occ. eigenvalues --   -0.18548  -0.18071  -0.14102
  Beta virt. eigenvalues --    0.06275   0.07045   0.07857   0.08142   0.08544
  Beta virt. eigenvalues --    0.09132   0.09544   0.09955   0.11034   0.11310
  Beta virt. eigenvalues --    0.11935   0.12166   0.12705   0.12730   0.13332

 Mulliken charges and spin densities:
               1          2
     1  C   -0.361580   0.399216
     2  C    0.168834  -0.808999
     3  N   -0.267033   0.147173
     4  C    0.418925  -0.935287
     5  C   -0.000866   0.124695
     6  C   -1.190932  -0.036936
     7  N    0.085935   0.152307
     8  C   -0.064278   0.324549
     9  O   -0.318858   0.026934
    10  C    0.856543  -1.167551
    11  C   -0.097013  -0.620145
    12  S    1.250284  -0.811206
    13  O   -0.075229  -0.001727
    14  O   -0.067607   0.025398
    15  H    0.104363   0.095225
    16  H    0.305038  -0.050665
    17  H   -0.142259   0.249114
    18  H   -0.120409   0.307707
    19  H   -0.189224   0.452257
    20  H   -0.154401   0.338197
    21  H   -0.083572   0.187701
    22  H    0.183607   0.017860
    23  H    0.020635   0.151281
    24  H    0.273191  -0.073899
    25  H   -0.144902   0.370222
    26  H   -0.549842   0.783219
    27  H   -0.635669   0.897149
    28  H   -0.203681   0.456214
 Sum of Mulliken charges =  -1.00000   1.00000

 Dipole moment (field-independent basis, Debye):
    X=              2.0984    Y=             -0.3712    Z=              1.0808  Tot=              2.3894
 Quadrupole moment (field-independent basis, Debye-Ang):
   XX=           -179.4859   YY=           -133.5781   ZZ=           -122.6325
   XY=              4.6233   XZ=             -1.0588   YZ=              0.6614

 Summary of Natural Population Analysis:

                                       Natural Population
                Natural  -----------------------------------------------
    Atom  No    Charge         Core      Valence    Rydberg      Total
 -----------------------------------------------------------------------
      C    1   -0.20285      0.99960     2.19513    0.00812     3.20285
      C    2   -0.08613      0.99962     2.07410    0.01240     3.08613
      N    3   -0.34063      0.99974     2.82853    0.01237     3.84063
      C    4   -0.08715      0.99962     2.07593    0.01160     3.08715
      C    5   -0.20007      0.99959     2.19163    0.00884     3.20007
      C    6   -0.01171      0.99956     1.99853    0.01363     3.01171
      N    7   -0.35777      0.99961     2.84434    0.01381     3.85777
      C    8    0.35789      0.99964     1.61909    0.02338     2.64211
      O    9   -0.30243      0.99987     3.29698    0.00558     4.30243
      C   10   -0.23991      0.99960     2.22950    0.01081     3.23991
      C   11   -0.28195      0.99961     2.26922    0.01313     3.28195
      S   12    1.09233      4.99928     1.81086    0.09754     6.90767
      O   13   -0.45079      0.99990     3.44537    0.00551     4.45079
      O   14   -0.44993      0.99990     3.44454    0.00549     4.44993
      H   15    0.10661      0.00000     0.39237    0.00102     0.39339
      H   16    0.10708      0.00000     0.39129    0.00162     0.39292
      H   17    0.07679      0.00000     0.42160    0.00162     0.42321
      H   18    0.09785      0.00000     0.40120    0.00095     0.40215
      H   19    0.17852      0.00000     0.31703    0.00445     0.32148
      H   20    0.09820      0.00000     0.40079    0.00101     0.40180
      H   21    0.07694      0.00000     0.42147    0.00159     0.42306
      H   22    0.10959      0.00000     0.38884    0.00157     0.39041
      H   23    0.10391      0.00000     0.39508    0.00101     0.39609
      H   24    0.11214      0.00000     0.38550    0.00236     0.38786
      H   25    0.12154      0.00000     0.37647    0.00198     0.37846
      H   26    0.12426      0.00000     0.37334    0.00240     0.37574
      H   27    0.12561      0.00000     0.37074    0.00365     0.37439
      H   28    0.12207      0.00000     0.37538    0.00255     0.37793
 =======================================================================
   * Total *    0.00000     17.99515    39.73485    0.27000    58.00000

 Normal termination of Gaussian 16 at Thu Dec 10 11:09:21 2020.
