 Gaussian 16, Revision A.03,

 -----------------------------------------------------------
 # opt freq B3LYP/6-31G(d) empiricaldispersion=gd3bj scf=xqc
 -----------------------------------------------------------

 ------------------------------
 CID_143654474_JID_834_neutraal
 ------------------------------
 Symbolic Z-matrix:
 Charge =  0 Multiplicity = 1

 SCF Done:  E(RB3LYP) =  -440.032185147     A.U. after   14 cycles
 SCF Done:  E(RB3LYP) =  -440.038471866     A.U. after   12 cycles
 SCF Done:  E(RB3LYP) =  -440.039469795     A.U. after   11 cycles
 SCF Done:  E(RB3LYP) =  -440.039826355     A.U. after   11 cycles
 SCF Done:  E(RB3LYP) =  -440.039883964     A.U. after   12 cycles
 SCF Done:  E(RB3LYP) =  -440.040022351     A.U. after   10 cycles
 SCF Done:  E(RB3LYP) =  -440.040048181     A.U. after    9 cycles
 SCF Done:  E(RB3LYP) =  -440.040050194     A.U. after    8 cycles
 SCF Done:  E(RB3LYP) =  -440.040050744     A.U. after    8 cycles
 SCF Done:  E(RB3LYP) =  -440.040050895     A.U. after    7 cycles
 SCF Done:  E(RB3LYP) =  -440.040050938     A.U. after    7 cycles
 SCF Done:  E(RB3LYP) =  -440.040050947     A.U. after    6 cycles
 Optimization completed.
    -- Stationary point found.

 1\1\GINC-NODE106\FOpt\RB3LYP\6-31G(d)\C7H15N3\VSC10255\08-Dec-2020\0\\
 # opt freq B3LYP/6-31G(d) empiricaldispersion=gd3bj scf=xqc\\CID_14365
 4474_JID_834_neutraal\\0,1\C,1.0863312858,-0.0603173602,-0.0548925414\
 C,0.3614800581,0.4357647862,-1.3083934356\C,0.7467658912,-0.2730453088
 ,-2.6160000785\N,0.4737245671,-1.7056043241,-2.7027414068\C,1.47103447
 75,-2.633829676,-2.187565803\C,1.0845368604,-4.0484812831,-2.614405304
 7\C,-0.2894970254,-4.3813255673,-2.0210104464\C,-1.2000629828,-3.17684
 19673,-2.0828080258\N,-0.8556523487,-1.9817016521,-2.4038915459\N,-2.5

 Normal termination of Gaussian 16 at Tue Dec  8 13:04:47 2020.

 --------------------------------------------------------------------
 #N Geom=AllCheck Guess=TCheck SCRF=Check GenChk RB3LYP/6-31G(d) Freq
 --------------------------------------------------------------------

 Structure from the checkpoint file:  "JID_834.chk"
 ------------------------------
 CID_143654474_JID_834_neutraal
 ------------------------------
 Charge =  0 Multiplicity = 1

 SCF Done:  E(RB3LYP) =  -440.040050947     A.U. after    1 cycles

  Exact polarizability: 115.842  -6.740  93.245   8.216   0.501  75.373
 Approx polarizability: 155.732 -14.718 130.374  20.029  -1.954 114.331

                      1                      2                      3
                      A                      A                      A
 Frequencies --     34.3978                87.3052               128.8938
 Red. masses --      2.8418                 2.8453                 2.0200
 Frc consts  --      0.0020                 0.0128                 0.0198
 IR Inten    --      0.0275                 1.7099                 0.7518

                      4                      5                      6
                      A                      A                      A
 Frequencies --    149.3205               240.0962               267.8813
 Red. masses --      2.6952                 2.8819                 1.5222
 Frc consts  --      0.0354                 0.0979                 0.0644
 IR Inten    --      6.8382                 6.6297                 0.7712

                      7                      8                      9
                      A                      A                      A
 Frequencies --    282.8459               312.5925               359.0038
 Red. masses --      1.5126                 1.7812                 1.2882
 Frc consts  --      0.0713                 0.1025                 0.0978
 IR Inten    --      4.3019                18.7042                40.0257

                     10                     11                     12
                      A                      A                      A
 Frequencies --    377.3746               425.8252               441.9927
 Red. masses --      2.5833                 3.1251                 2.3651
 Frc consts  --      0.2168                 0.3339                 0.2722
 IR Inten    --      6.4078                16.4430                 6.9648

                     13                     14                     15
                      A                      A                      A
 Frequencies --    478.5138               514.9589               559.5929
 Red. masses --      2.4530                 3.6930                 3.3034
 Frc consts  --      0.3309                 0.5770                 0.6095
 IR Inten    --     11.5126                11.7993                 6.3223

                     16                     17                     18
                      A                      A                      A
 Frequencies --    622.9523               758.2034               791.3051
 Red. masses --      2.8962                 2.0607                 1.3721
 Frc consts  --      0.6622                 0.6980                 0.5062
 IR Inten    --      9.3364                46.9667               119.4404

                     19                     20                     21
                      A                      A                      A
 Frequencies --    793.8204               847.0406               880.1725
 Red. masses --      1.5594                 2.5587                 2.0766
 Frc consts  --      0.5790                 1.0816                 0.9479
 IR Inten    --    134.1069                 4.5541                19.6792

                     22                     23                     24
                      A                      A                      A
 Frequencies --    893.6396               908.7384               942.7098
 Red. masses --      1.6872                 1.7894                 1.9009
 Frc consts  --      0.7938                 0.8706                 0.9953
 IR Inten    --      2.3786                 0.7940                 0.8979

                     25                     26                     27
                      A                      A                      A
 Frequencies --    983.7991              1041.2793              1067.0350
 Red. masses --      2.4890                 1.8821                 1.7528
 Frc consts  --      1.4193                 1.2024                 1.1758
 IR Inten    --     45.6268                 3.1889                 1.9908

                     28                     29                     30
                      A                      A                      A
 Frequencies --   1088.1743              1104.3946              1113.8119
 Red. masses --      2.1140                 1.8329                 2.0118
 Frc consts  --      1.4749                 1.3172                 1.4705
 IR Inten    --      5.3592                 5.4155                10.3004

                     31                     32                     33
                      A                      A                      A
 Frequencies --   1149.1252              1200.1280              1230.1793
 Red. masses --      1.5989                 1.5636                 1.8793
 Frc consts  --      1.2440                 1.3269                 1.6756
 IR Inten    --     16.9392                13.7034                25.1237

                     34                     35                     36
                      A                      A                      A
 Frequencies --   1236.3206              1265.7150              1310.9139
 Red. masses --      1.6592                 1.5813                 1.4011
 Frc consts  --      1.4942                 1.4926                 1.4187
 IR Inten    --      7.1004                20.7744                 6.3480

                     37                     38                     39
                      A                      A                      A
 Frequencies --   1321.3137              1325.4861              1361.9030
 Red. masses --      1.4977                 1.3315                 1.5021
 Frc consts  --      1.5405                 1.3783                 1.6415
 IR Inten    --     31.9964                 8.8765                 3.6183

                     40                     41                     42
                      A                      A                      A
 Frequencies --   1385.7302              1402.0484              1407.7317
 Red. masses --      1.4463                 1.4793                 1.2784
 Frc consts  --      1.6363                 1.7133                 1.4926
 IR Inten    --      5.1953                28.4299                 8.8737

                     43                     44                     45
                      A                      A                      A
 Frequencies --   1423.0292              1432.8093              1444.3801
 Red. masses --      1.4114                 2.3895                 1.2830
 Frc consts  --      1.6840                 2.8902                 1.5770
 IR Inten    --     15.2481                24.4625                11.0296

                     46                     47                     48
                      A                      A                      A
 Frequencies --   1501.1476              1504.7769              1512.6472
 Red. masses --      1.0895                 1.0861                 1.0855
 Frc consts  --      1.4465                 1.4490                 1.4634
 IR Inten    --      2.5763                 4.5253                 0.5784

                     49                     50                     51
                      A                      A                      A
 Frequencies --   1518.5846              1525.0233              1531.6242
 Red. masses --      1.1032                 1.0852                 1.0620
 Frc consts  --      1.4990                 1.4870                 1.4678
 IR Inten    --      5.3292                 1.8182                 4.9085

                     52                     53                     54
                      A                      A                      A
 Frequencies --   1542.1540              1662.3365              1735.2033
 Red. masses --      1.0510                 1.1834                 6.3475
 Frc consts  --      1.4727                 1.9267                11.2605
 IR Inten    --      9.1775                49.5622                55.4010

                     55                     56                     57
                      A                      A                      A
 Frequencies --   2970.8285              3030.2964              3030.7205
 Red. masses --      1.0705                 1.0628                 1.0659
 Frc consts  --      5.5668                 5.7500                 5.7685
 IR Inten    --     59.9964                38.9332                26.6764

                     58                     59                     60
                      A                      A                      A
 Frequencies --   3042.5995              3045.4894              3057.3595
 Red. masses --      1.0444                 1.0558                 1.0863
 Frc consts  --      5.6964                 5.7699                 5.9828
 IR Inten    --     60.0225                53.2140                 7.7491

                     61                     62                     63
                      A                      A                      A
 Frequencies --   3066.9491              3078.5641              3092.5497
 Red. masses --      1.0743                 1.1014                 1.0961
 Frc consts  --      5.9537                 6.1504                 6.1762
 IR Inten    --     42.5611                13.4291                13.6073

                     64                     65                     66
                      A                      A                      A
 Frequencies --   3097.3409              3108.1097              3109.0302
 Red. masses --      1.0919                 1.0995                 1.1058
 Frc consts  --      6.1717                 6.2580                 6.2976
 IR Inten    --     33.3480                57.7308                38.7162

                     67                     68                     69
                      A                      A                      A
 Frequencies --   3126.5414              3493.5276              3599.4136
 Red. masses --      1.1007                 1.0481                 1.0956
 Frc consts  --      6.3396                 7.5366                 8.3630
 IR Inten    --     55.9904                 2.4798                 4.2155

 - Thermochemistry -
 -------------------
 Temperature   298.150 Kelvin.  Pressure   1.00000 Atm.
 Atom     1 has atomic number  6 and mass  12.00000

 Molecular mass:   141.12660 amu.
 Principal axes and moments of inertia in atomic units:
                           1         2         3
     Eigenvalues --   919.205171897.388662288.38264
           X            0.99989   0.01326  -0.00617
           Y           -0.01319   0.99984   0.01210
           Z            0.00633  -0.01202   0.99991
 This molecule is an asymmetric top.
 Rotational symmetry number  1.
 Warning -- assumption of classical behavior for rotation
           may cause significant error
 Rotational temperatures (Kelvin)      0.09423     0.04565     0.03785
 Rotational constants (GHZ):           1.96337     0.95117     0.78865
 Zero-point vibrational energy     594408.3 (Joules/Mol)
                                  142.06699 (Kcal/Mol)
 Warning -- explicit consideration of  15 degrees of freedom as
           vibrations may cause significant error
 Vibrational temperatures:     49.49   125.61   185.45   214.84   345.44
          (Kelvin)            385.42   406.95   449.75   516.53   542.96
                              612.67   635.93   688.47   740.91   805.13
                              896.29  1090.89  1138.51  1142.13  1218.70
                             1266.37  1285.75  1307.47  1356.35  1415.47
                             1498.17  1535.23  1565.64  1588.98  1602.53
                             1653.33  1726.72  1769.95  1778.79  1821.08
                             1886.11  1901.08  1907.08  1959.47  1993.76
                             2017.23  2025.41  2047.42  2061.49  2078.14
                             2159.82  2165.04  2176.36  2184.90  2194.17
                             2203.67  2218.82  2391.73  2496.57  4274.36
                             4359.92  4360.53  4377.62  4381.78  4398.86
                             4412.66  4429.37  4449.49  4456.38  4471.88
                             4473.20  4498.40  5026.41  5178.75

 Zero-point correction=                           0.226398 (Hartree/Particle)
 Thermal correction to Energy=                    0.236917
 Thermal correction to Enthalpy=                  0.237861
 Thermal correction to Gibbs Free Energy=         0.190273
 Sum of electronic and zero-point Energies=           -439.813653
 Sum of electronic and thermal Energies=              -439.803134
 Sum of electronic and thermal Enthalpies=            -439.802190
 Sum of electronic and thermal Free Energies=         -439.849778

                     E (Thermal)             CV                S
                      KCal/Mol        Cal/Mol-Kelvin    Cal/Mol-Kelvin
 Total                  148.668             40.234            100.159
 Electronic               0.000              0.000              0.000
 Translational            0.889              2.981             40.745
 Rotational               0.889              2.981             29.769
 Vibrational            146.890             34.272             29.645
 Vibration     1          0.594              1.983              5.558
 Vibration     2          0.601              1.958              3.720
 Vibration     3          0.611              1.924              2.962
 Vibration     4          0.618              1.903              2.681
 Vibration     5          0.657              1.779              1.802
 Vibration     6          0.673              1.732              1.610
 Vibration     7          0.682              1.705              1.516
 Vibration     8          0.701              1.650              1.349
 Vibration     9          0.734              1.557              1.126
 Vibration    10          0.748              1.518              1.050
 Vibration    11          0.788              1.414              0.872
 Vibration    12          0.802              1.379              0.820
 Vibration    13          0.835              1.298              0.714
 Vibration    14          0.870              1.217              0.622
 Vibration    15          0.915              1.119              0.525

 Optimization completed.
    -- Stationary point found.

 1\1\GINC-NODE106\Freq\RB3LYP\6-31G(d)\C7H15N3\VSC10255\08-Dec-2020\0\\
 #N Geom=AllCheck Guess=TCheck SCRF=Check GenChk RB3LYP/6-31G(d) Freq\\
 CID_143654474_JID_834_neutraal\\0,1\C,1.0863312858,-0.0603173602,-0.05
 48925414\C,0.3614800581,0.4357647862,-1.3083934356\C,0.7467658912,-0.2
 730453088,-2.6160000785\N,0.4737245671,-1.7056043241,-2.7027414068\C,1
 .4710344775,-2.633829676,-2.187565803\C,1.0845368604,-4.0484812831,-2.
 6144053047\C,-0.2894970254,-4.3813255673,-2.0210104464\C,-1.2000629828
 ,-3.1768419673,-2.0828080258\N,-0.8556523487,-1.9817016521,-2.40389154

 Normal termination of Gaussian 16 at Tue Dec  8 13:10:58 2020.

 ----------------------------------------------------------------------
 # B3LYP/6-311++G(d,p) empiricaldispersion=gd3bj scf=xqc pop=npa geom=c
 heck
 ----------------------------------------------------------------------

 --------------------------------------
 CID_143654474_JID_834_Energie_neutraal
 --------------------------------------
 Structure from the checkpoint file:  "JID_834.chk"
 Charge =  0 Multiplicity = 1

 SCF Done:  E(RB3LYP) =  -440.169054061     A.U. after   13 cycles
 Normal termination of Gaussian 16 at Tue Dec  8 13:17:17 2020.

 ----------------------------------------------------------------------
 # B3LYP/6-311++G(d,p) empiricaldispersion=gd3bj scf=xqc pop=npa geom=c
 heck
 ----------------------------------------------------------------------

 ------------------------------------
 CID_143654474_JID_834_Energie_kation
 ------------------------------------
 Structure from the checkpoint file:  "JID_834.chk"
 Charge =  1 Multiplicity = 2

 SCF Done:  E(UB3LYP) =  -439.915038542     A.U. after   16 cycles
 Normal termination of Gaussian 16 at Tue Dec  8 13:23:55 2020.
 Gaussian 16:  ES64L-G16RevA.03 25-Dec-2016

 -----------------------------------
 CID_143654474_JID_834_Energie_anion
 -----------------------------------
 Structure from the checkpoint file:  "JID_834.chk"
 Charge = -1 Multiplicity = 2

                         Standard orientation:
 ---------------------------------------------------------------------
 Center     Atomic      Atomic             Coordinates (Angstroms)
 Number     Number       Type             X           Y           Z
 ---------------------------------------------------------------------
      1          6           0       -2.618587   -0.227300    1.339773
      2          6           0       -2.514150   -0.750274   -0.094926
      3          6           0       -1.760115    0.161513   -1.075113
      4          7           0       -0.352707    0.428517   -0.788383
      5          6           0       -0.024567    1.527104    0.109985
      6          6           0        1.482613    1.767855    0.052890
      7          6           0        2.200385    0.492232    0.509465
      8          6           0        1.496332   -0.733224   -0.025602
      9          7           0        0.358032   -0.754465   -0.620494
     10          7           0        2.143885   -1.955833    0.215610
     11          1           0       -1.641822   -0.226696    1.833463
     12          1           0       -3.286865   -0.857010    1.938282
     13          1           0       -3.011930    0.796811    1.368883
     14          1           0       -2.018321   -1.727148   -0.093277
     15          1           0       -3.522018   -0.907030   -0.504570
     16          1           0       -1.807352   -0.296247   -2.071262
     17          1           0       -2.255994    1.137567   -1.145012
     18          1           0       -0.315225    1.319046    1.154762
     19          1           0       -0.579109    2.410757   -0.221129
     20          1           0        1.760749    2.008864   -0.979284
     21          1           0        1.763284    2.618285    0.683200
     22          1           0        3.246255    0.491332    0.170973
     23          1           0        2.237749    0.427979    1.604863
     24          1           0        1.679385   -2.713408   -0.277431
     25          1           0        3.135278   -1.938073   -0.008417
 ---------------------------------------------------------------------

 SCF Done:  E(UB3LYP) =  -440.152834749     A.U. after   29 cycles

 The electronic state is 2-A.
 Alpha  occ. eigenvalues --  -14.22255 -14.20345 -14.20100 -10.11706 -10.08684
 Alpha  occ. eigenvalues --  -10.08564 -10.06671 -10.06183 -10.05783 -10.05430
 Alpha  occ. eigenvalues --   -0.88720  -0.80222  -0.70740  -0.69091  -0.65710
 Alpha  occ. eigenvalues --   -0.59436  -0.54463  -0.52073  -0.48343  -0.41580
 Alpha  occ. eigenvalues --   -0.40211  -0.39960  -0.36720  -0.35612  -0.34463
 Alpha  occ. eigenvalues --   -0.33280  -0.30927  -0.30683  -0.28618  -0.28004
 Alpha  occ. eigenvalues --   -0.26639  -0.25120  -0.24162  -0.23295  -0.22835
 Alpha  occ. eigenvalues --   -0.21874  -0.17580  -0.15222  -0.07594   0.04728
 Alpha virt. eigenvalues --    0.06673   0.07450   0.08475   0.09224   0.09720
 Alpha virt. eigenvalues --    0.10093   0.10771   0.11648   0.12080   0.12144
 Alpha virt. eigenvalues --    0.12588   0.14069   0.14156   0.14940   0.15538

  Beta  occ. eigenvalues --  -14.22254 -14.20334 -14.20056 -10.11706 -10.08666
  Beta  occ. eigenvalues --  -10.08553 -10.06631 -10.06159 -10.05773 -10.05407
  Beta  occ. eigenvalues --   -0.88703  -0.80167  -0.70699  -0.69050  -0.65675
  Beta  occ. eigenvalues --   -0.59385  -0.54409  -0.52014  -0.48293  -0.41519
  Beta  occ. eigenvalues --   -0.40176  -0.39901  -0.36652  -0.35574  -0.34437
  Beta  occ. eigenvalues --   -0.33245  -0.30893  -0.30646  -0.28583  -0.27968
  Beta  occ. eigenvalues --   -0.26598  -0.25086  -0.24118  -0.23265  -0.22797
  Beta  occ. eigenvalues --   -0.21835  -0.17548  -0.15197  -0.07569
  Beta virt. eigenvalues --    0.06994   0.07999   0.08276   0.08812   0.09938
  Beta virt. eigenvalues --    0.10271   0.10568   0.11113   0.11842   0.12502
  Beta virt. eigenvalues --    0.12792   0.13084   0.14280   0.14447   0.15393

 Mulliken charges and spin densities:
               1          2
     1  C    0.497342  -0.976109
     2  C   -0.642152   0.404596
     3  C    0.209955  -0.465774
     4  N    0.388929  -0.020821
     5  C   -0.108473  -0.149909
     6  C    0.642476  -1.155656
     7  C    1.082464  -1.320441
     8  C    0.021407  -0.227598
     9  N   -0.545801   0.206123
    10  N   -0.350757   0.110412
    11  H   -0.090104   0.246345
    12  H   -0.267815   0.397481
    13  H   -0.104493   0.236166
    14  H    0.202240  -0.056838
    15  H   -0.229439   0.356014
    16  H    0.031365   0.118354
    17  H   -0.105253   0.236288
    18  H    0.412438  -0.310424
    19  H   -0.473470   0.628565
    20  H    0.172190  -0.014601
    21  H   -0.568827   0.734427
    22  H   -0.693096   0.852330
    23  H   -0.117283   0.320707
    24  H   -0.076845   0.321170
    25  H   -0.286998   0.529194
 Sum of Mulliken charges =  -1.00000   1.00000

 Dipole moment (field-independent basis, Debye):
    X=             -3.3941    Y=             -0.6107    Z=             -1.1802  Tot=              3.6449
 Quadrupole moment (field-independent basis, Debye-Ang):
   XX=           -129.5712   YY=           -103.6732   ZZ=            -92.4879
   XY=              4.7239   XZ=              0.6039   YZ=             -0.8597

 Summary of Natural Population Analysis:

                                       Natural Population
                Natural  -----------------------------------------------
    Atom  No    Charge         Core      Valence    Rydberg      Total
 -----------------------------------------------------------------------
      C    1   -0.28854      0.99967     2.28383    0.00504     3.28854
      C    2   -0.20138      0.99964     2.19389    0.00785     3.20138
      C    3   -0.07616      0.99961     2.06410    0.01245     3.07616
      N    4   -0.18145      0.99970     2.66725    0.01450     3.68145
      C    5   -0.09030      0.99960     2.07937    0.01133     3.09030
      C    6   -0.19201      0.99963     2.18316    0.00921     3.19201
      C    7   -0.21995      0.99959     2.21095    0.00941     3.21995
      C    8    0.19842      0.99961     1.78642    0.01555     2.80158
      N    9   -0.18128      0.99961     2.66895    0.01273     3.68128
      N   10   -0.40583      0.99972     2.89508    0.01102     3.90583
      H   11    0.09888      0.00000     0.39976    0.00136     0.40112
      H   12    0.09660      0.00000     0.40256    0.00085     0.40340
      H   13    0.09502      0.00000     0.40376    0.00122     0.40498
      H   14    0.10242      0.00000     0.39613    0.00145     0.39758
      H   15    0.09165      0.00000     0.40706    0.00129     0.40835
      H   16    0.09393      0.00000     0.40477    0.00130     0.40607
      H   17    0.09212      0.00000     0.40667    0.00120     0.40788
      H   18    0.08280      0.00000     0.41526    0.00194     0.41720
      H   19    0.10017      0.00000     0.39800    0.00183     0.39983
      H   20    0.09737      0.00000     0.40058    0.00205     0.40263
      H   21    0.10117      0.00000     0.39724    0.00159     0.39883
      H   22    0.10913      0.00000     0.38778    0.00310     0.39087
      H   23    0.10782      0.00000     0.39061    0.00157     0.39218
      H   24    0.18481      0.00000     0.31309    0.00210     0.31519
      H   25    0.18459      0.00000     0.31018    0.00522     0.31541
 =======================================================================
   * Total *   -0.00000      9.99638    28.86645    0.13717    39.00000

 Normal termination of Gaussian 16 at Tue Dec  8 13:31:59 2020.
