 Gaussian 16, Revision A.03,

 -----------------------------------------------------------
 # opt freq B3LYP/6-31G(d) empiricaldispersion=gd3bj scf=xqc
 -----------------------------------------------------------

 ------------------------------
 CID_65263336_JID_5498_neutraal
 ------------------------------
 Symbolic Z-matrix:
 Charge =  0 Multiplicity = 1

 SCF Done:  E(RB3LYP) =  -1105.80542642     A.U. after   15 cycles
 SCF Done:  E(RB3LYP) =  -1105.81285493     A.U. after   13 cycles
 SCF Done:  E(RB3LYP) =  -1105.81100591     A.U. after   13 cycles
 SCF Done:  E(RB3LYP) =  -1105.81379073     A.U. after   12 cycles
 SCF Done:  E(RB3LYP) =  -1105.81407056     A.U. after   13 cycles
 SCF Done:  E(RB3LYP) =  -1105.81455425     A.U. after   13 cycles
 SCF Done:  E(RB3LYP) =  -1105.81477801     A.U. after   12 cycles
 SCF Done:  E(RB3LYP) =  -1105.81491317     A.U. after   13 cycles
 SCF Done:  E(RB3LYP) =  -1105.81502758     A.U. after   14 cycles
 SCF Done:  E(RB3LYP) =  -1105.81543597     A.U. after   12 cycles
 SCF Done:  E(RB3LYP) =  -1105.82113832     A.U. after    8 cycles
 SCF Done:  E(RB3LYP) =  -1105.82113864     A.U. after    7 cycles
 SCF Done:  E(RB3LYP) =  -1105.82114134     A.U. after   10 cycles
 SCF Done:  E(RB3LYP) =  -1105.82114206     A.U. after    9 cycles
 Optimization completed.
    -- Stationary point found.
 Normal termination of Gaussian 16 at Thu Dec 10 17:12:15 2020.

 --------------------------------------------------------------------
 #N Geom=AllCheck Guess=TCheck SCRF=Check GenChk RB3LYP/6-31G(d) Freq
 --------------------------------------------------------------------

 Structure from the checkpoint file:  "JID_5498.chk"
 ------------------------------
 CID_65263336_JID_5498_neutraal
 ------------------------------
 Charge =  0 Multiplicity = 1

 SCF Done:  E(RB3LYP) =  -1105.82114206     A.U. after    1 cycles

  Exact polarizability: 145.634   5.651 120.514   0.950   2.069 105.261
 Approx polarizability: 191.320   8.281 183.543   4.009   5.767 170.617

                      1                      2                      3
                      A                      A                      A
 Frequencies --     21.1930                31.6803                38.0351
 Red. masses --      5.2218                 4.4221                 6.0131
 Frc consts  --      0.0014                 0.0026                 0.0051
 IR Inten    --      0.8999                 1.5584                 1.5139

                      4                      5                      6
                      A                      A                      A
 Frequencies --     68.9203                92.5615               111.0485
 Red. masses --      5.2241                 4.6616                 4.5844
 Frc consts  --      0.0146                 0.0235                 0.0333
 IR Inten    --      3.0688                 3.7396                 2.7109

                      7                      8                      9
                      A                      A                      A
 Frequencies --    127.2154               144.8537               155.6328
 Red. masses --      1.2908                 2.9901                 2.7096
 Frc consts  --      0.0123                 0.0370                 0.0387
 IR Inten    --      1.0739                 0.6215                 1.2519

                     10                     11                     12
                      A                      A                      A
 Frequencies --    182.8637               197.1486               228.9294
 Red. masses --      3.3479                 5.2021                 3.5548
 Frc consts  --      0.0660                 0.1191                 0.1098
 IR Inten    --      2.7673                 5.6000                 5.3464

                     13                     14                     15
                      A                      A                      A
 Frequencies --    238.4581               259.0854               264.0778
 Red. masses --      1.1536                 2.2319                 3.5595
 Frc consts  --      0.0386                 0.0883                 0.1463
 IR Inten    --      0.4222                 2.2827                 3.8647

                     16                     17                     18
                      A                      A                      A
 Frequencies --    273.6988               296.5184               311.0855
 Red. masses --      1.5386                 3.3028                 4.8102
 Frc consts  --      0.0679                 0.1711                 0.2743
 IR Inten    --      0.9491                18.1126                 5.0979

                     19                     20                     21
                      A                      A                      A
 Frequencies --    377.0037               389.7590               409.2142
 Red. masses --      2.5780                 2.7148                 2.7229
 Frc consts  --      0.2159                 0.2430                 0.2686
 IR Inten    --      4.7082                 1.9326                12.7258

                     22                     23                     24
                      A                      A                      A
 Frequencies --    420.4901               453.2037               499.1460
 Red. masses --      4.0222                 4.7207                 7.7647
 Frc consts  --      0.4190                 0.5713                 1.1398
 IR Inten    --      2.9825                32.1232                29.8825

                     25                     26                     27
                      A                      A                      A
 Frequencies --    582.6414               593.6623               606.9309
 Red. masses --      5.3523                 6.0320                 4.7589
 Frc consts  --      1.0705                 1.2525                 1.0329
 IR Inten    --      0.0725                11.9741                13.5325

                     28                     29                     30
                      A                      A                      A
 Frequencies --    692.3775               707.9702               757.5050
 Red. masses --      3.9228                 4.2942                 2.6828
 Frc consts  --      1.1080                 1.2681                 0.9070
 IR Inten    --      3.5093                 3.7650                 5.0862

                     31                     32                     33
                      A                      A                      A
 Frequencies --    781.7371               830.9141               884.8132
 Red. masses --      1.6492                 4.6353                 3.1423
 Frc consts  --      0.5938                 1.8856                 1.4495
 IR Inten    --     15.9226                71.3410                 5.7810

                     34                     35                     36
                      A                      A                      A
 Frequencies --    911.1075               938.7888               956.1893
 Red. masses --      2.1820                 2.5346                 2.1932
 Frc consts  --      1.0672                 1.3161                 1.1815
 IR Inten    --      0.4512                25.1405                 0.8570

                     37                     38                     39
                      A                      A                      A
 Frequencies --    967.0229              1021.4145              1039.9026
 Red. masses --      1.5448                 1.6062                 4.2091
 Frc consts  --      0.8511                 0.9873                 2.6818
 IR Inten    --      0.5705                 6.8110                13.6027

                     40                     41                     42
                      A                      A                      A
 Frequencies --   1054.8728              1079.9700              1105.7379
 Red. masses --      1.5437                 2.5547                 4.8489
 Frc consts  --      1.0120                 1.7556                 3.4930
 IR Inten    --      1.8065                 1.1758               161.7313

                     43                     44                     45
                      A                      A                      A
 Frequencies --   1149.7005              1167.0511              1185.2683
 Red. masses --      1.4441                 1.6156                 1.2799
 Frc consts  --      1.1247                 1.2965                 1.0594
 IR Inten    --     28.4287                49.7169                 2.2076

                     46                     47                     48
                      A                      A                      A
 Frequencies --   1200.4866              1219.4271              1238.5321
 Red. masses --      1.7959                 1.4533                 2.5159
 Frc consts  --      1.5250                 1.2733                 2.2739
 IR Inten    --      6.1233                 1.0796                12.4546

                     49                     50                     51
                      A                      A                      A
 Frequencies --   1255.6776              1276.2900              1300.3054
 Red. masses --      1.6748                 1.8021                 1.6074
 Frc consts  --      1.5558                 1.7295                 1.6012
 IR Inten    --     80.2227                13.2995                18.5626

                     52                     53                     54
                      A                      A                      A
 Frequencies --   1329.5932              1345.5382              1365.9558
 Red. masses --      3.8249                 3.1308                 1.2746
 Frc consts  --      3.9839                 3.3396                 1.4012
 IR Inten    --     50.1582               474.1189                 7.0769

                     55                     56                     57
                      A                      A                      A
 Frequencies --   1405.4470              1430.6278              1452.9216
 Red. masses --      1.4361                 1.2016                 1.2077
 Frc consts  --      1.6714                 1.4490                 1.5021
 IR Inten    --      8.3004                 6.0108                 3.5049

                     58                     59                     60
                      A                      A                      A
 Frequencies --   1471.9597              1481.4961              1495.7671
 Red. masses --      1.1126                 1.0978                 1.2606
 Frc consts  --      1.4203                 1.4196                 1.6617
 IR Inten    --     14.1830                13.5040                25.8064

                     61                     62                     63
                      A                      A                      A
 Frequencies --   1506.9816              1513.5427              1518.9375
 Red. masses --      1.0593                 1.0471                 1.0519
 Frc consts  --      1.4173                 1.4133                 1.4299
 IR Inten    --      2.5366                 8.6096                 1.3945

                     64                     65                     66
                      A                      A                      A
 Frequencies --   1520.1116              1521.9416              1527.5448
 Red. masses --      1.0465                 1.0677                 1.0490
 Frc consts  --      1.4248                 1.4572                 1.4421
 IR Inten    --     10.8397                 3.3176                 8.0492

                     67                     68                     69
                      A                      A                      A
 Frequencies --   1543.5936              1803.4234              2359.9935
 Red. masses --      1.0570                10.5158                12.6880
 Frc consts  --      1.4838                20.1506                41.6355
 IR Inten    --     10.8686               226.8508                 6.3146

                     70                     71                     72
                      A                      A                      A
 Frequencies --   3060.7813              3068.3524              3075.5824
 Red. masses --      1.0348                 1.0360                 1.0569
 Frc consts  --      5.7118                 5.7467                 5.8904
 IR Inten    --     12.4893                 9.4263                10.0795

                     73                     74                     75
                      A                      A                      A
 Frequencies --   3084.3875              3096.3253              3121.3528
 Red. masses --      1.0296                 1.0646                 1.0648
 Frc consts  --      5.7710                 6.0133                 6.1122
 IR Inten    --     22.7426                 1.9010                 2.8334

                     76                     77                     78
                      A                      A                      A
 Frequencies --   3126.0299              3135.0893              3142.1421
 Red. masses --      1.0972                 1.1030                 1.1042
 Frc consts  --      6.3170                 6.3872                 6.4235
 IR Inten    --      1.4977                15.0784                 8.6304

                     79                     80                     81
                      A                      A                      A
 Frequencies --   3145.0500              3148.3122              3162.9516
 Red. masses --      1.1036                 1.1026                 1.1081
 Frc consts  --      6.4319                 6.4393                 6.5314
 IR Inten    --     29.7870                18.9437                15.0770

                     82                     83                     84
                      A                      A                      A
 Frequencies --   3181.2370              3188.8002              3198.9004
 Red. masses --      1.1003                 1.1091                 1.1074
 Frc consts  --      6.5606                 6.6450                 6.6768
 IR Inten    --      0.8303                 0.4446                12.4163

 - Thermochemistry -
 -------------------
 Temperature   298.150 Kelvin.  Pressure   1.00000 Atm.
 Atom     1 has atomic number  6 and mass  12.00000

 Molecular mass:   233.07218 amu.
 Principal axes and moments of inertia in atomic units:
                           1         2         3
     Eigenvalues --  2272.981125641.643716830.51066
           X            0.99989  -0.00414  -0.01431
           Y            0.00395   0.99990  -0.01326
           Z            0.01437   0.01320   0.99981
 This molecule is an asymmetric top.
 Rotational symmetry number  1.
 Warning -- assumption of classical behavior for rotation
           may cause significant error
 Rotational temperatures (Kelvin)      0.03811     0.01535     0.01268
 Rotational constants (GHZ):           0.79400     0.31990     0.26422
 Zero-point vibrational energy     637781.8 (Joules/Mol)
                                  152.43351 (Kcal/Mol)
 Warning -- explicit consideration of  27 degrees of freedom as
           vibrations may cause significant error
 Vibrational temperatures:     30.49    45.58    54.72    99.16   133.18
          (Kelvin)            159.77   183.03   208.41   223.92   263.10
                              283.65   329.38   343.09   372.77   379.95
                              393.79   426.62   447.58   542.42   560.78
                              588.77   604.99   652.06   718.16   838.29
                              854.15   873.24   996.18  1018.61  1089.88
                             1124.75  1195.50  1273.05  1310.88  1350.71
                             1375.74  1391.33  1469.59  1496.19  1517.73
                             1553.84  1590.91  1654.16  1679.13  1705.34
                             1727.23  1754.48  1781.97  1806.64  1836.30
                             1870.85  1912.99  1935.93  1965.31  2022.12
                             2058.35  2090.43  2117.82  2131.54  2152.08
                             2168.21  2177.65  2185.41  2187.10  2189.73
                             2197.80  2220.89  2594.72  3395.50  4403.78
                             4414.67  4425.08  4437.75  4454.92  4490.93
                             4497.66  4510.69  4520.84  4525.03  4529.72
                             4550.78  4577.09  4587.97  4602.50

 Zero-point correction=                           0.242918 (Hartree/Particle)
 Thermal correction to Energy=                    0.260322
 Thermal correction to Enthalpy=                  0.261266
 Thermal correction to Gibbs Free Energy=         0.195982
 Sum of electronic and zero-point Energies=          -1105.578224
 Sum of electronic and thermal Energies=             -1105.560820
 Sum of electronic and thermal Enthalpies=           -1105.559876
 Sum of electronic and thermal Free Energies=        -1105.625160

                     E (Thermal)             CV                S
                      KCal/Mol        Cal/Mol-Kelvin    Cal/Mol-Kelvin
 Total                  163.354             61.663            137.402
 Electronic               0.000              0.000              0.000
 Translational            0.889              2.981             42.240
 Rotational               0.889              2.981             32.838
 Vibrational            161.577             55.702             62.324
 Vibration     1          0.593              1.985              6.519
 Vibration     2          0.594              1.983              5.721
 Vibration     3          0.594              1.982              5.359
 Vibration     4          0.598              1.969              4.184
 Vibration     5          0.602              1.954              3.605
 Vibration     6          0.607              1.940              3.251
 Vibration     7          0.611              1.926              2.988
 Vibration     8          0.616              1.908              2.739
 Vibration     9          0.620              1.896              2.602
 Vibration    10          0.630              1.863              2.299
 Vibration    11          0.637              1.844              2.160
 Vibration    12          0.652              1.797              1.887
 Vibration    13          0.656              1.782              1.814
 Vibration    14          0.668              1.747              1.668
 Vibration    15          0.671              1.739              1.635
 Vibration    16          0.676              1.722              1.573
 Vibration    17          0.690              1.680              1.436
 Vibration    18          0.700              1.653              1.357
 Vibration    19          0.748              1.519              1.051
 Vibration    20          0.758              1.492              1.001
 Vibration    21          0.774              1.450              0.929
 Vibration    22          0.783              1.426              0.890
 Vibration    23          0.812              1.354              0.786
 Vibration    24          0.855              1.252              0.660
 Vibration    25          0.939              1.069              0.480
 Vibration    26          0.951              1.045              0.461
 Vibration    27          0.966              1.017              0.438

 Optimization completed.
    -- Stationary point found.
 Normal termination of Gaussian 16 at Thu Dec 10 17:22:00 2020.

 ----------------------------------------------------------------------
 # B3LYP/6-311++G(d,p) empiricaldispersion=gd3bj scf=xqc pop=npa geom=c
 heck
 ----------------------------------------------------------------------

 --------------------------------------
 CID_65263336_JID_5498_Energie_neutraal
 --------------------------------------
 Structure from the checkpoint file:  "JID_5498.chk"
 Charge =  0 Multiplicity = 1

 SCF Done:  E(RB3LYP) =  -1106.05798612     A.U. after   15 cycles
 Normal termination of Gaussian 16 at Thu Dec 10 17:26:04 2020.

 ----------------------------------------------------------------------
 # B3LYP/6-311++G(d,p) empiricaldispersion=gd3bj scf=xqc pop=npa geom=c
 heck
 ----------------------------------------------------------------------

 ------------------------------------
 CID_65263336_JID_5498_Energie_kation
 ------------------------------------
 Structure from the checkpoint file:  "JID_5498.chk"
 Charge =  1 Multiplicity = 2

 SCF Done:  E(UB3LYP) =  -1105.68445831     A.U. after   33 cycles
 SCF Done:  E(UB3LYP) =  -1105.68445831     a.u. after    1 cycles
 Normal termination of Gaussian 16 at Thu Dec 10 17:37:09 2020.
 Gaussian 16:  ES64L-G16RevA.03 25-Dec-2016

 ----------------------------------------------------------------------
 # B3LYP/6-311++G(d,p) empiricaldispersion=gd3bj scf=xqc pop=npa geom=c
 heck
 ----------------------------------------------------------------------

 -----------------------------------
 CID_65263336_JID_5498_Energie_anion
 -----------------------------------
 Structure from the checkpoint file:  "JID_5498.chk"
 Charge = -1 Multiplicity = 2

                         Standard orientation:
 ---------------------------------------------------------------------
 Center     Atomic      Atomic             Coordinates (Angstroms)
 Number     Number       Type             X           Y           Z
 ---------------------------------------------------------------------
      1          6           0       -3.464228    1.177568    1.421101
      2          6           0       -2.662342    0.763235    0.169442
      3          6           0       -2.249785    2.016706   -0.632756
      4          6           0       -1.419932   -0.051362    0.618624
      5          6           0       -0.578681   -0.571809   -0.540456
      6         16           0        0.824791   -1.585111   -0.002636
      7          8           0        0.327947   -2.662392    0.864563
      8          8           0        1.644333   -1.871104   -1.187392
      9          6           0        1.816692   -0.485954    1.086437
     10          6           0        2.235201    0.777236    0.374707
     11          8           0        1.465240    1.670114    0.076358
     12          8           0        3.541843    0.776417    0.096548
     13          6           0        4.017224    1.916469   -0.646011
     14          6           0       -3.512533   -0.091605   -0.679823
     15          7           0       -4.164262   -0.771998   -1.358080
     16          1           0       -2.842875    1.820808    2.053342
     17          1           0       -4.363324    1.733447    1.140106
     18          1           0       -3.766474    0.302237    2.003673
     19          1           0       -1.536208    2.604773   -0.046900
     20          1           0       -1.777967    1.754301   -1.582998
     21          1           0       -3.125091    2.635379   -0.850788
     22          1           0       -0.816759    0.619864    1.238359
     23          1           0       -1.741700   -0.894067    1.238557
     24          1           0       -1.145447   -1.251258   -1.186144
     25          1           0       -0.155029    0.229167   -1.146012
     26          1           0        1.203519   -0.250629    1.957661
     27          1           0        2.668587   -1.101918    1.378940
     28          1           0        3.510850    1.969827   -1.612432
     29          1           0        3.831088    2.836881   -0.087692
     30          1           0        5.085413    1.749774   -0.777144
 ---------------------------------------------------------------------

 SCF Done:  E(UB3LYP) =  -1106.05392004     A.U. after   33 cycles
 SCF Done:  E(UB3LYP) =  -1106.05392004     a.u. after    1 cycles

 The electronic state is 2-A.
 Alpha  occ. eigenvalues --  -88.94795 -19.07469 -19.02151 -19.02103 -19.00957
 Alpha  occ. eigenvalues --  -14.22721 -10.19984 -10.14724 -10.13241 -10.12377
 Alpha  occ. eigenvalues --  -10.12129 -10.11885 -10.10692 -10.08973 -10.08623
 Alpha  occ. eigenvalues --   -8.01375  -5.97614  -5.97523  -5.97468  -1.01790
 Alpha  occ. eigenvalues --   -1.01215  -0.92491  -0.91201  -0.82687  -0.76553
 Alpha  occ. eigenvalues --   -0.71451  -0.68732  -0.63027  -0.61780  -0.59299
 Alpha  occ. eigenvalues --   -0.54686  -0.51463  -0.47595  -0.43303  -0.42618
 Alpha  occ. eigenvalues --   -0.41506  -0.40607  -0.38905  -0.38822  -0.37580
 Alpha  occ. eigenvalues --   -0.36918  -0.36169  -0.34754  -0.33266  -0.32784
 Alpha  occ. eigenvalues --   -0.32052  -0.31269  -0.30267  -0.29695  -0.29476
 Alpha  occ. eigenvalues --   -0.28511  -0.27445  -0.27266  -0.27091  -0.24582
 Alpha  occ. eigenvalues --   -0.24040  -0.23821  -0.23030  -0.21866  -0.21372
 Alpha  occ. eigenvalues --   -0.19846  -0.18728   0.03957
 Alpha virt. eigenvalues --    0.05831   0.06230   0.07378   0.08219   0.08763
 Alpha virt. eigenvalues --    0.09041   0.09845   0.10465   0.10743   0.10947
 Alpha virt. eigenvalues --    0.11323   0.11541   0.11706   0.12357   0.12616

  Beta  occ. eigenvalues --  -88.94747 -19.07394 -19.02120 -19.02087 -19.00772
  Beta  occ. eigenvalues --  -14.22715 -10.19783 -10.14720 -10.13213 -10.12377
  Beta  occ. eigenvalues --  -10.12100 -10.11860 -10.10685 -10.08930 -10.08590
  Beta  occ. eigenvalues --   -8.01320  -5.97578  -5.97448  -5.97416  -1.01615
  Beta  occ. eigenvalues --   -1.01063  -0.92210  -0.91132  -0.82677  -0.76531
  Beta  occ. eigenvalues --   -0.71299  -0.68591  -0.62910  -0.61715  -0.59221
  Beta  occ. eigenvalues --   -0.54632  -0.51236  -0.47418  -0.43156  -0.42523
  Beta  occ. eigenvalues --   -0.41317  -0.40512  -0.38705  -0.38619  -0.37508
  Beta  occ. eigenvalues --   -0.36835  -0.36094  -0.34692  -0.33166  -0.32668
  Beta  occ. eigenvalues --   -0.32005  -0.31231  -0.30094  -0.29495  -0.29191
  Beta  occ. eigenvalues --   -0.28466  -0.27414  -0.27244  -0.26955  -0.24553
  Beta  occ. eigenvalues --   -0.24023  -0.23755  -0.22968  -0.21443  -0.21182
  Beta  occ. eigenvalues --   -0.19707  -0.18571
  Beta virt. eigenvalues --    0.06259   0.06756   0.07714   0.08129   0.08568
  Beta virt. eigenvalues --    0.09236   0.09374   0.10329   0.10727   0.10836
  Beta virt. eigenvalues --    0.11021   0.11491   0.11625   0.11911   0.12410

 Mulliken charges and spin densities:
               1          2
     1  C    0.778044  -1.302669
     2  C   -0.739606   2.021319
     3  C    0.515310  -1.177565
     4  C    0.347980  -0.665878
     5  C   -1.122919   0.165014
     6  S    0.619153  -0.074712
     7  O   -0.177927   0.003898
     8  O   -0.123173   0.013097
     9  C    0.228374  -0.899919
    10  C   -0.756223   0.661657
    11  O   -0.268893   0.071589
    12  O   -0.051248   0.054329
    13  C    0.511393  -0.716940
    14  C   -0.174270  -0.531302
    15  N   -0.278350   0.001742
    16  H   -0.513738   0.679155
    17  H   -0.203985   0.378336
    18  H   -0.092408   0.246687
    19  H    0.009648   0.184031
    20  H   -0.038406   0.209977
    21  H   -0.171874   0.350139
    22  H    0.434136  -0.227876
    23  H    0.212809   0.002872
    24  H    0.238647   0.021000
    25  H    0.216510   0.098838
    26  H   -0.060785   0.322175
    27  H    0.225113   0.058835
    28  H   -0.019084   0.185637
    29  H   -0.346421   0.527971
    30  H   -0.197807   0.338564
 Sum of Mulliken charges =  -1.00000   1.00000

 Dipole moment (field-independent basis, Debye):
    X=              1.6192    Y=             -1.2406    Z=              0.0432  Tot=              2.0403
 Quadrupole moment (field-independent basis, Debye-Ang):
   XX=           -173.2394   YY=           -151.1606   ZZ=           -128.8473
   XY=             -2.2573   XZ=             -0.4826   YZ=             -7.5992

 Summary of Natural Population Analysis:

                                       Natural Population
                Natural  -----------------------------------------------
    Atom  No    Charge         Core      Valence    Rydberg      Total
 -----------------------------------------------------------------------
      C    1   -0.27398      0.99964     2.26673    0.00762     3.27398
      C    2   -0.08940      0.99950     2.07821    0.01169     3.08940
      C    3   -0.27813      0.99963     2.27090    0.00760     3.27813
      C    4   -0.19595      0.99959     2.18475    0.01161     3.19595
      C    5   -0.29438      0.99956     2.28275    0.01207     3.29438
      S    6    1.03732      4.99928     1.87017    0.09323     6.96268
      O    7   -0.46887      0.99991     3.46362    0.00534     4.46887
      O    8   -0.46611      0.99991     3.46063    0.00556     4.46611
      C    9   -0.33119      0.99954     2.31873    0.01293     3.33119
      C   10    0.42029      0.99968     1.55351    0.02652     2.57971
      O   11   -0.30055      0.99987     3.29451    0.00617     4.30055
      O   12   -0.26917      0.99986     3.25936    0.00995     4.26917
      C   13   -0.10198      0.99959     2.09448    0.00790     3.10198
      C   14    0.16573      0.99961     1.81306    0.02160     2.83427
      N   15   -0.18460      0.99979     2.67298    0.01183     3.68460
      H   16    0.10678      0.00000     0.39164    0.00158     0.39322
      H   17    0.10577      0.00000     0.39277    0.00146     0.39423
      H   18    0.10422      0.00000     0.39450    0.00128     0.39578
      H   19    0.11163      0.00000     0.38721    0.00116     0.38837
      H   20    0.10496      0.00000     0.39383    0.00121     0.39504
      H   21    0.10453      0.00000     0.39422    0.00125     0.39547
      H   22    0.11185      0.00000     0.38631    0.00184     0.38815
      H   23    0.11134      0.00000     0.38711    0.00155     0.38866
      H   24    0.12110      0.00000     0.37757    0.00133     0.37890
      H   25    0.12608      0.00000     0.37260    0.00132     0.37392
      H   26    0.12189      0.00000     0.37706    0.00105     0.37811
      H   27    0.12509      0.00000     0.37366    0.00125     0.37491
      H   28    0.09102      0.00000     0.40765    0.00133     0.40898
      H   29    0.09465      0.00000     0.40262    0.00273     0.40535
      H   30    0.09004      0.00000     0.40868    0.00128     0.40996
 =======================================================================
   * Total *   -0.00000     18.99497    42.73180    0.27323    62.00000

 Normal termination of Gaussian 16 at Thu Dec 10 17:48:01 2020.
