 Gaussian 16, Revision A.03,

 -----------------------------------------------------------
 # opt freq B3LYP/6-31G(d) empiricaldispersion=gd3bj scf=xqc
 -----------------------------------------------------------

 --------------------------------
 CID_151573431_JID_10451_neutraal
 --------------------------------
 Symbolic Z-matrix:
 Charge =  0 Multiplicity = 1

 SCF Done:  E(RB3LYP) =  -892.715121185     A.U. after   16 cycles
 SCF Done:  E(RB3LYP) =  -892.720655280     A.U. after   14 cycles
 SCF Done:  E(RB3LYP) =  -892.721309067     A.U. after   13 cycles
 SCF Done:  E(RB3LYP) =  -892.722102471     A.U. after   12 cycles
 SCF Done:  E(RB3LYP) =  -892.722215715     A.U. after   12 cycles
 SCF Done:  E(RB3LYP) =  -892.722463707     A.U. after   13 cycles
 SCF Done:  E(RB3LYP) =  -892.722534211     A.U. after   17 cycles
 SCF Done:  E(RB3LYP) =  -892.723321053     A.U. after   13 cycles
 SCF Done:  E(RB3LYP) =  -892.724280367     A.U. after   13 cycles
 SCF Done:  E(RB3LYP) =  -892.726049061     A.U. after   16 cycles
 SCF Done:  E(RB3LYP) =  -892.728508520     A.U. after   12 cycles
 SCF Done:  E(RB3LYP) =  -892.728519363     A.U. after   10 cycles
 SCF Done:  E(RB3LYP) =  -892.728521891     A.U. after    9 cycles
 SCF Done:  E(RB3LYP) =  -892.728522981     A.U. after    8 cycles
 SCF Done:  E(RB3LYP) =  -892.728523249     A.U. after    8 cycles
 Optimization completed.
    -- Stationary point found.
 Normal termination of Gaussian 16 at Sun Dec 13 20:30:33 2020.

 --------------------------------------------------------------------
 #N Geom=AllCheck Guess=TCheck SCRF=Check GenChk RB3LYP/6-31G(d) Freq
 --------------------------------------------------------------------

 Structure from the checkpoint file:  "JID_10451.chk"
 --------------------------------
 CID_151573431_JID_10451_neutraal
 --------------------------------
 Charge =  0 Multiplicity = 1

 SCF Done:  E(RB3LYP) =  -892.728523249     A.U. after    1 cycles

  Exact polarizability: 255.022 -44.724 156.199  -0.505  27.859 140.906
 Approx polarizability: 362.116 -93.086 260.282  -9.784  81.817 259.200

                      1                      2                      3
                      A                      A                      A
 Frequencies --     22.2283                40.9772                52.2550
 Red. masses --      5.8532                 3.6233                 8.0078
 Frc consts  --      0.0017                 0.0036                 0.0129
 IR Inten    --      0.1656                 0.2980                 0.1068

                      4                      5                      6
                      A                      A                      A
 Frequencies --     69.3533               105.3545               110.2871
 Red. masses --      4.6287                 6.4858                 5.0459
 Frc consts  --      0.0131                 0.0424                 0.0362
 IR Inten    --      0.2800                 0.6770                 0.6806

                      7                      8                      9
                      A                      A                      A
 Frequencies --    160.1967               177.6589               204.4809
 Red. masses --      5.4843                 4.4231                 3.6523
 Frc consts  --      0.0829                 0.0823                 0.0900
 IR Inten    --      0.4687                 0.6373                 0.3893

                     10                     11                     12
                      A                      A                      A
 Frequencies --    220.5447               238.4960               249.1611
 Red. masses --      3.8935                 1.6182                 1.4930
 Frc consts  --      0.1116                 0.0542                 0.0546
 IR Inten    --      0.4502                 0.3961                 0.3112

                     13                     14                     15
                      A                      A                      A
 Frequencies --    261.2705               298.2904               324.0509
 Red. masses --      2.0633                 4.9030                 5.9613
 Frc consts  --      0.0830                 0.2570                 0.3688
 IR Inten    --      0.8444                 0.1101                 0.6945

                     16                     17                     18
                      A                      A                      A
 Frequencies --    353.8450               369.2795               409.4386
 Red. masses --      3.3216                 4.9297                 2.8279
 Frc consts  --      0.2450                 0.3961                 0.2793
 IR Inten    --     10.0467                 2.5004                 0.9960

                     19                     20                     21
                      A                      A                      A
 Frequencies --    437.3760               452.4690               477.4663
 Red. masses --      3.0433                 3.7698                 4.2608
 Frc consts  --      0.3430                 0.4547                 0.5723
 IR Inten    --      2.7939                 1.0338                 0.8928

                     22                     23                     24
                      A                      A                      A
 Frequencies --    484.9394               519.6978               533.1531
 Red. masses --      3.3393                 3.0612                12.8941
 Frc consts  --      0.4627                 0.4871                 2.1595
 IR Inten    --      0.3725                 2.2874                 8.8148

                     25                     26                     27
                      A                      A                      A
 Frequencies --    546.5178               606.6955               613.2671
 Red. masses --      3.3984                 4.3112                 3.3828
 Frc consts  --      0.5981                 0.9349                 0.7496
 IR Inten    --      9.0583                 5.0805                 3.0748

                     28                     29                     30
                      A                      A                      A
 Frequencies --    636.1699               655.5226               688.3819
 Red. masses --      3.1606                 4.2331                 3.5164
 Frc consts  --      0.7536                 1.0717                 0.9818
 IR Inten    --      6.7954                11.9321                 0.7316

                     31                     32                     33
                      A                      A                      A
 Frequencies --    730.6437               763.3469               799.3274
 Red. masses --      5.6301                 4.5978                 7.4150
 Frc consts  --      1.7708                 1.5785                 2.7913
 IR Inten    --     23.1548                 1.8098                 6.8627

                     34                     35                     36
                      A                      A                      A
 Frequencies --    803.1853               833.9640               835.0678
 Red. masses --      1.5677                 1.9637                 1.9394
 Frc consts  --      0.5959                 0.8047                 0.7968
 IR Inten    --     30.9097                 0.7469                 1.1514

                     37                     38                     39
                      A                      A                      A
 Frequencies --    837.5254               858.6802               880.6993
 Red. masses --      5.0543                 1.4055                 2.8721
 Frc consts  --      2.0889                 0.6106                 1.3125
 IR Inten    --     21.4872                 1.6554                14.8208

                     40                     41                     42
                      A                      A                      A
 Frequencies --    897.9925               920.5626               926.0891
 Red. masses --      1.4413                 1.2905                 2.0356
 Frc consts  --      0.6848                 0.6443                 1.0286
 IR Inten    --     20.9014                 0.2359                 1.1947

                     43                     44                     45
                      A                      A                      A
 Frequencies --    949.7427               956.7920              1005.3794
 Red. masses --      2.4911                 3.7147                 1.8048
 Frc consts  --      1.3239                 2.0036                 1.0748
 IR Inten    --      3.1129                18.6821                 6.2061

                     46                     47                     48
                      A                      A                      A
 Frequencies --   1010.6651              1031.0326              1053.1417
 Red. masses --      1.3706                 2.0529                 1.8291
 Frc consts  --      0.8249                 1.2858                 1.1952
 IR Inten    --      5.2704                12.0650                10.3602

                     49                     50                     51
                      A                      A                      A
 Frequencies --   1068.8232              1105.6677              1115.4698
 Red. masses --      2.3471                 3.2865                 2.4220
 Frc consts  --      1.5798                 2.3672                 1.7756
 IR Inten    --      4.7798                 1.4835                28.1801

                     52                     53                     54
                      A                      A                      A
 Frequencies --   1126.9332              1143.2226              1165.9016
 Red. masses --      2.2599                 2.9353                 2.4657
 Frc consts  --      1.6910                 2.2603                 1.9747
 IR Inten    --      0.8360                60.5312                11.1941

                     55                     56                     57
                      A                      A                      A
 Frequencies --   1182.3388              1199.3337              1218.0521
 Red. masses --      1.6702                 1.8072                 1.3964
 Frc consts  --      1.3756                 1.5316                 1.2207
 IR Inten    --      7.8777                16.9428                 6.4393

                     58                     59                     60
                      A                      A                      A
 Frequencies --   1232.4314              1253.4635              1282.0544
 Red. masses --      2.6296                 2.0221                 1.3226
 Frc consts  --      2.3532                 1.8719                 1.2808
 IR Inten    --      1.9096                90.4455                16.9551

                     61                     62                     63
                      A                      A                      A
 Frequencies --   1289.2125              1305.4430              1315.3153
 Red. masses --      2.2176                 1.4067                 1.3066
 Frc consts  --      2.1716                 1.4124                 1.3318
 IR Inten    --     45.8526                15.9928                11.9363

                     64                     65                     66
                      A                      A                      A
 Frequencies --   1331.0298              1335.1516              1356.7704
 Red. masses --      1.3930                 1.8947                 1.3988
 Frc consts  --      1.4540                 1.9899                 1.5171
 IR Inten    --     15.0965                28.4521                10.7032

                     67                     68                     69
                      A                      A                      A
 Frequencies --   1366.9439              1375.5184              1381.5007
 Red. masses --      1.3858                 4.9274                 4.2427
 Frc consts  --      1.5256                 5.4929                 4.7708
 IR Inten    --      3.6027               100.4125                 3.7613

                     70                     71                     72
                      A                      A                      A
 Frequencies --   1400.2108              1410.4622              1414.7314
 Red. masses --      1.2556                 1.5779                 2.8897
 Frc consts  --      1.4504                 1.8495                 3.4076
 IR Inten    --      3.8950                 0.3820                 8.6325

                     73                     74                     75
                      A                      A                      A
 Frequencies --   1418.6460              1442.8769              1444.4640
 Red. masses --      1.6263                 1.2605                 1.3618
 Frc consts  --      1.9284                 1.5461                 1.6740
 IR Inten    --     12.6286                 6.3694                36.5359

                     76                     77                     78
                      A                      A                      A
 Frequencies --   1453.3238              1491.4424              1503.1110
 Red. masses --      1.5003                 3.3415                 1.0927
 Frc consts  --      1.8671                 4.3793                 1.4545
 IR Inten    --     33.6544                39.8785                 0.8309

                     79                     80                     81
                      A                      A                      A
 Frequencies --   1518.6885              1522.3488              1524.1797
 Red. masses --      1.0981                 1.0867                 1.4576
 Frc consts  --      1.4921                 1.4838                 1.9951
 IR Inten    --      7.7499                 1.2808                45.6441

                     82                     83                     84
                      A                      A                      A
 Frequencies --   1526.3749              1534.4818              1534.8116
 Red. masses --      1.9935                 1.1059                 1.1736
 Frc consts  --      2.7365                 1.5343                 1.6288
 IR Inten    --    110.2987                 2.4378                 2.7355

                     85                     86                     87
                      A                      A                      A
 Frequencies --   1540.6989              1630.0338              1679.0890
 Red. masses --      3.1295                 6.8334                 7.2610
 Frc consts  --      4.3768                10.6974                12.0613
 IR Inten    --     59.7376                20.5275                15.0118

                     88                     89                     90
                      A                      A                      A
 Frequencies --   2262.0400              2966.0821              2972.8444
 Red. masses --     13.9854                 1.0726                 1.0727
 Frc consts  --     42.1623                 5.5599                 5.5856
 IR Inten    --    904.3035                19.1063               106.4270

                     91                     92                     93
                      A                      A                      A
 Frequencies --   3002.9294              3046.1061              3052.4132
 Red. masses --      1.0822                 1.0634                 1.0595
 Frc consts  --      5.7497                 5.8132                 5.8162
 IR Inten    --     44.6988                25.0144                14.1367

                     94                     95                     96
                      A                      A                      A
 Frequencies --   3065.1313              3068.5740              3098.7844
 Red. masses --      1.0843                 1.0364                 1.1018
 Frc consts  --      6.0019                 5.7498                 6.2337
 IR Inten    --     13.2043                15.7851                31.0270

                     97                     98                     99
                      A                      A                      A
 Frequencies --   3102.5069              3112.9401              3115.7156
 Red. masses --      1.0994                 1.0922                 1.0937
 Frc consts  --      6.2352                 6.2357                 6.2556
 IR Inten    --     37.8766                36.4339                37.2779

                    100                    101                    102
                      A                      A                      A
 Frequencies --   3138.0960              3144.0688              3197.7433
 Red. masses --      1.1020                 1.1033                 1.0870
 Frc consts  --      6.3940                 6.4257                 6.5488
 IR Inten    --     22.5171                21.1647                 5.5825

                    103                    104                    105
                      A                      A                      A
 Frequencies --   3213.8446              3236.3093              3272.7268
 Red. masses --      1.0943                 1.0922                 1.0959
 Frc consts  --      6.6595                 6.7398                 6.9156
 IR Inten    --      9.6322                 1.4288                 2.2337

 - Thermochemistry -
 -------------------
 Temperature   298.150 Kelvin.  Pressure   1.00000 Atm.
 Atom     1 has atomic number  6 and mass  12.00000

 Molecular mass:   271.14331 amu.
 Principal axes and moments of inertia in atomic units:
                           1         2         3
     Eigenvalues --  2845.23823********************
           X            0.99999   0.00189   0.00401
           Y           -0.00186   0.99997  -0.00781
           Z           -0.00403   0.00780   0.99996
 This molecule is an asymmetric top.
 Rotational symmetry number  1.
 Warning -- assumption of classical behavior for rotation
           may cause significant error
 Rotational temperatures (Kelvin)      0.03044     0.00858     0.00770
 Rotational constants (GHZ):           0.63430     0.17877     0.16042
 Zero-point vibrational energy     805218.8 (Joules/Mol)
                                  192.45191 (Kcal/Mol)
 Warning -- explicit consideration of  27 degrees of freedom as
           vibrations may cause significant error
 Vibrational temperatures:     31.98    58.96    75.18    99.78   151.58
          (Kelvin)            158.68   230.49   255.61   294.20   317.31
                              343.14   358.49   375.91   429.17   466.24
                              509.10   531.31   589.09   629.29   651.00
                              686.97   697.72   747.73   767.09   786.32
                              872.90   882.35   915.31   943.15   990.43
                             1051.23  1098.29  1150.05  1155.60  1199.89
                             1201.48  1205.01  1235.45  1267.13  1292.01
                             1324.48  1332.44  1366.47  1376.61  1446.52
                             1454.12  1483.43  1515.24  1537.80  1590.81
                             1604.91  1621.41  1644.84  1677.47  1701.12
                             1725.57  1752.51  1773.19  1803.45  1844.59
                             1854.89  1878.24  1892.45  1915.06  1920.99
                             1952.09  1966.73  1979.06  1987.67  2014.59
                             2029.34  2035.48  2041.12  2075.98  2078.26
                             2091.01  2145.85  2162.64  2185.05  2190.32
                             2192.95  2196.11  2207.78  2208.25  2216.72
                             2345.26  2415.83  3254.57  4267.53  4277.26
                             4320.55  4382.67  4391.74  4410.04  4414.99
                             4458.46  4463.82  4478.83  4482.82  4515.02
                             4523.61  4600.84  4624.01  4656.33  4708.72

 Zero-point correction=                           0.306692 (Hartree/Particle)
 Thermal correction to Energy=                    0.323688
 Thermal correction to Enthalpy=                  0.324632
 Thermal correction to Gibbs Free Energy=         0.260742
 Sum of electronic and zero-point Energies=           -892.421832
 Sum of electronic and thermal Energies=              -892.404835
 Sum of electronic and thermal Enthalpies=            -892.403891
 Sum of electronic and thermal Free Energies=         -892.467781

                     E (Thermal)             CV                S
                      KCal/Mol        Cal/Mol-Kelvin    Cal/Mol-Kelvin
 Total                  203.117             66.551            134.469
 Electronic               0.000              0.000              0.000
 Translational            0.889              2.981             42.691
 Rotational               0.889              2.981             34.135
 Vibrational            201.340             60.589             57.643
 Vibration     1          0.593              1.985              6.424
 Vibration     2          0.594              1.981              5.211
 Vibration     3          0.596              1.977              4.730
 Vibration     4          0.598              1.969              4.172
 Vibration     5          0.605              1.945              3.353
 Vibration     6          0.606              1.941              3.264
 Vibration     7          0.622              1.891              2.547
 Vibration     8          0.628              1.870              2.353
 Vibration     9          0.640              1.834              2.092
 Vibration    10          0.647              1.810              1.955
 Vibration    11          0.656              1.782              1.814
 Vibration    12          0.662              1.764              1.737
 Vibration    13          0.669              1.744              1.653
 Vibration    14          0.691              1.677              1.426
 Vibration    15          0.709              1.627              1.290
 Vibration    16          0.730              1.567              1.149
 Vibration    17          0.742              1.535              1.083
 Vibration    18          0.774              1.450              0.929
 Vibration    19          0.798              1.389              0.835
 Vibration    20          0.811              1.355              0.788
 Vibration    21          0.834              1.300              0.717
 Vibration    22          0.841              1.283              0.697
 Vibration    23          0.875              1.206              0.611
 Vibration    24          0.888              1.177              0.580
 Vibration    25          0.902              1.147              0.551
 Vibration    26          0.965              1.018              0.438
 Vibration    27          0.973              1.004              0.427

 Optimization completed.
    -- Stationary point found.
 Normal termination of Gaussian 16 at Sun Dec 13 20:52:42 2020.

 ----------------------------------------------------------------------
 # B3LYP/6-311++G(d,p) empiricaldispersion=gd3bj scf=xqc pop=npa geom=c
 heck
 ----------------------------------------------------------------------

 ----------------------------------------
 CID_151573431_JID_10451_Energie_neutraal
 ----------------------------------------
 Structure from the checkpoint file:  "JID_10451.chk"
 Charge =  0 Multiplicity = 1

 SCF Done:  E(RB3LYP) =  -892.962199149     A.U. after   17 cycles
 Normal termination of Gaussian 16 at Sun Dec 13 21:03:37 2020.

 ----------------------------------------------------------------------
 # B3LYP/6-311++G(d,p) empiricaldispersion=gd3bj scf=xqc pop=npa geom=c
 heck
 ----------------------------------------------------------------------

 --------------------------------------
 CID_151573431_JID_10451_Energie_kation
 --------------------------------------
 Structure from the checkpoint file:  "JID_10451.chk"
 Charge =  1 Multiplicity = 2

 SCF Done:  E(UB3LYP) =  -892.679931531     A.U. after   29 cycles
 Normal termination of Gaussian 16 at Sun Dec 13 21:30:07 2020.
 Gaussian 16:  ES64L-G16RevA.03 25-Dec-2016

 ----------------------------------------------------------------------
 # B3LYP/6-311++G(d,p) empiricaldispersion=gd3bj scf=xqc pop=npa geom=c
 heck
 ----------------------------------------------------------------------

 -------------------------------------
 CID_151573431_JID_10451_Energie_anion
 -------------------------------------
 Structure from the checkpoint file:  "JID_10451.chk"
 Charge = -1 Multiplicity = 2

                         Standard orientation:
 ---------------------------------------------------------------------
 Center     Atomic      Atomic             Coordinates (Angstroms)
 Number     Number       Type             X           Y           Z
 ---------------------------------------------------------------------
      1          6           0        2.400699   -2.197574    1.701773
      2          6           0        1.678815   -0.923035    1.255087
      3          6           0        2.638734    0.173143    0.736389
      4          6           0        1.923855    1.510312    0.486246
      5          6           0        2.915746    2.563109   -0.012255
      6          8           0        3.589684    2.135534   -1.186110
      7          6           0        4.327025    0.944900   -0.962462
      8          6           0        3.423137   -0.212089   -0.527829
      9          7           0        0.612316   -1.238338    0.298699
     10          6           0        0.668606   -2.097062   -0.781045
     11          7           0       -0.439265   -2.158631   -1.479502
     12          6           0       -1.306938   -1.286115   -0.836775
     13          6           0       -0.666849   -0.696631    0.282657
     14          6           0       -1.322951    0.216310    1.110060
     15          6           0       -2.639200    0.532399    0.796836
     16          6           0       -3.284336   -0.048903   -0.319196
     17          6           0       -2.629912   -0.960312   -1.144734
     18          7           0       -4.630183    0.254214   -0.671348
     19          7           0       -5.252024    1.056874    0.030687
     20          7           0       -5.934087    1.779859    0.594940
     21          1           0        2.941145   -2.677313    0.880918
     22          1           0        1.686387   -2.919970    2.107069
     23          1           0        3.130159   -1.954723    2.480791
     24          1           0        1.164266   -0.511389    2.130704
     25          1           0        3.368017    0.331083    1.546829
     26          1           0        1.140269    1.376487   -0.267837
     27          1           0        1.438702    1.868277    1.403970
     28          1           0        2.404061    3.492687   -0.276560
     29          1           0        3.651059    2.790545    0.780288
     30          1           0        5.102635    1.120700   -0.195568
     31          1           0        4.829829    0.716214   -1.906312
     32          1           0        4.037061   -1.105877   -0.362267
     33          1           0        2.724710   -0.431664   -1.343730
     34          1           0        1.563149   -2.662711   -1.000785
     35          1           0       -0.838001    0.674178    1.965922
     36          1           0       -3.179518    1.239745    1.418508
     37          1           0       -3.137275   -1.399097   -1.995900
 ---------------------------------------------------------------------

 SCF Done:  E(UB3LYP) =  -892.962302088     A.U. after   33 cycles
 SCF Done:  E(UB3LYP) =  -892.962302090     a.u. after    2 cycles

 The electronic state is 2-A.
 Alpha  occ. eigenvalues --  -19.04058 -14.36586 -14.27394 -14.27151 -14.26106
 Alpha  occ. eigenvalues --  -14.20313 -10.13844 -10.13607 -10.13290 -10.13115
 Alpha  occ. eigenvalues --  -10.12253 -10.11309 -10.10049 -10.09484 -10.08772
 Alpha  occ. eigenvalues --  -10.08454 -10.08153 -10.08144 -10.08082 -10.07477
 Alpha  occ. eigenvalues --   -1.03534  -0.95644  -0.92643  -0.88265  -0.80703
 Alpha  occ. eigenvalues --   -0.75616  -0.73186  -0.68273  -0.67913  -0.65770
 Alpha  occ. eigenvalues --   -0.64813  -0.58432  -0.56301  -0.55544  -0.54162
 Alpha  occ. eigenvalues --   -0.53463  -0.49170  -0.47329  -0.45939  -0.43043
 Alpha  occ. eigenvalues --   -0.42264  -0.40812  -0.40685  -0.39351  -0.39139
 Alpha  occ. eigenvalues --   -0.38022  -0.37163  -0.36468  -0.35506  -0.35215
 Alpha  occ. eigenvalues --   -0.34797  -0.34038  -0.33039  -0.32382  -0.31823
 Alpha  occ. eigenvalues --   -0.30791  -0.29690  -0.29235  -0.27713  -0.27686
 Alpha  occ. eigenvalues --   -0.27202  -0.26342  -0.25332  -0.23544  -0.22534
 Alpha  occ. eigenvalues --   -0.21099  -0.20996  -0.18784  -0.18453  -0.17492
 Alpha  occ. eigenvalues --   -0.13950  -0.11305   0.03498
 Alpha virt. eigenvalues --    0.04815   0.06004   0.06555   0.07037   0.07611
 Alpha virt. eigenvalues --    0.07873   0.08766   0.09311   0.09413   0.09731
 Alpha virt. eigenvalues --    0.09985   0.11245   0.11393   0.11579   0.11918

  Beta  occ. eigenvalues --  -19.04053 -14.36351 -14.27384 -14.26886 -14.26130
  Beta  occ. eigenvalues --  -14.20311 -10.13782 -10.13593 -10.13278 -10.13103
  Beta  occ. eigenvalues --  -10.12218 -10.11320 -10.10033 -10.09466 -10.08728
  Beta  occ. eigenvalues --  -10.08446 -10.08139 -10.08117 -10.08040 -10.07433
  Beta  occ. eigenvalues --   -1.03115  -0.95634  -0.92600  -0.88074  -0.80665
  Beta  occ. eigenvalues --   -0.75530  -0.73152  -0.68247  -0.67855  -0.65678
  Beta  occ. eigenvalues --   -0.64712  -0.58372  -0.56185  -0.55491  -0.54108
  Beta  occ. eigenvalues --   -0.53351  -0.49120  -0.47271  -0.45816  -0.42977
  Beta  occ. eigenvalues --   -0.41839  -0.40755  -0.40508  -0.39325  -0.38736
  Beta  occ. eigenvalues --   -0.37862  -0.37120  -0.36350  -0.35416  -0.34813
  Beta  occ. eigenvalues --   -0.34578  -0.33957  -0.32994  -0.32264  -0.31721
  Beta  occ. eigenvalues --   -0.30761  -0.29636  -0.29184  -0.27652  -0.27625
  Beta  occ. eigenvalues --   -0.27161  -0.26212  -0.25282  -0.23513  -0.22494
  Beta  occ. eigenvalues --   -0.20960  -0.20463  -0.18679  -0.18435  -0.17448
  Beta  occ. eigenvalues --   -0.13709  -0.11130
  Beta virt. eigenvalues --    0.05931   0.06512   0.07019   0.07206   0.07456
  Beta virt. eigenvalues --    0.08031   0.08061   0.08880   0.09504   0.09592
  Beta virt. eigenvalues --    0.09961   0.10389   0.11439   0.11558   0.11714

 Mulliken charges and spin densities:
               1          2
     1  C    1.340650  -1.973883
     2  C   -1.747033   1.460462
     3  C    1.394232  -0.814262
     4  C   -0.295697   0.099286
     5  C   -0.315624  -0.432857
     6  O   -0.124303   0.027421
     7  C    0.158485  -0.751325
     8  C   -0.492632   0.162488
     9  N    0.415058  -0.057700
    10  C    0.228059   0.026667
    11  N   -0.091710   0.003562
    12  C   -0.215088   0.005787
    13  C    0.155369  -0.177747
    14  C   -0.009792  -0.048504
    15  C    0.273593  -0.105606
    16  C   -0.862843  -0.392974
    17  C   -0.321073   0.305606
    18  N   -0.053943   0.185437
    19  N    0.255339  -0.048924
    20  N   -0.212670   0.075353
    21  H    0.003230   0.148578
    22  H   -0.049741   0.227571
    23  H   -0.535053   0.696305
    24  H   -0.342941   0.555445
    25  H   -0.213202   0.451942
    26  H    0.212890  -0.003683
    27  H    0.014968   0.115561
    28  H    0.165845   0.016111
    29  H   -0.145162   0.287170
    30  H   -0.120455   0.259574
    31  H    0.127677   0.050540
    32  H   -0.087768   0.226765
    33  H    0.241272  -0.020699
    34  H    0.059910   0.109859
    35  H   -0.145327   0.273495
    36  H    0.196137  -0.003431
    37  H    0.139344   0.060612
 Sum of Mulliken charges =  -1.00000   1.00000

 Dipole moment (field-independent basis, Debye):
    X=              1.0430    Y=              0.4268    Z=             -2.4199  Tot=              2.6694
 Quadrupole moment (field-independent basis, Debye-Ang):
   XX=           -220.6919   YY=           -154.7911   ZZ=           -159.2533
   XY=              4.6234   XZ=            -14.3783   YZ=              0.6118

 Summary of Natural Population Analysis:

                                       Natural Population
                Natural  -----------------------------------------------
    Atom  No    Charge         Core      Valence    Rydberg      Total
 -----------------------------------------------------------------------
      C    1   -0.28605      0.99964     2.28080    0.00561     3.28605
      C    2   -0.00050      0.99956     1.98622    0.01472     3.00050
      C    3   -0.11539      0.99956     2.10136    0.01447     3.11539
      C    4   -0.20629      0.99961     2.19787    0.00882     3.20629
      C    5   -0.00734      0.99958     1.99507    0.01268     3.00734
      O    6   -0.29863      0.99989     3.29065    0.00810     4.29863
      C    7   -0.00698      0.99958     1.99450    0.01290     3.00698
      C    8   -0.20847      0.99960     2.20035    0.00851     3.20847
      N    9   -0.21674      0.99961     2.70624    0.01089     3.71674
      C   10    0.13504      0.99963     1.84843    0.01691     2.86496
      N   11   -0.25652      0.99971     2.74723    0.00958     3.75652
      C   12    0.06069      0.99946     1.92753    0.01232     2.93931
      C   13    0.06195      0.99945     1.92841    0.01018     2.93805
      C   14   -0.10494      0.99954     2.09676    0.00864     3.10494
      C   15   -0.11644      0.99954     2.10972    0.00717     3.11644
      C   16    0.05854      0.99945     1.93098    0.01104     2.94146
      C   17   -0.09804      0.99948     2.09018    0.00838     3.09804
      N   18   -0.18321      0.99965     2.66970    0.01386     3.68321
      N   19    0.13538      0.99971     2.34852    0.01640     3.36462
      N   20   -0.02237      0.99982     2.50963    0.01292     3.52237
      H   21    0.09786      0.00000     0.40104    0.00110     0.40214
      H   22    0.10546      0.00000     0.39360    0.00094     0.39454
      H   23    0.10945      0.00000     0.38869    0.00187     0.39055
      H   24    0.10445      0.00000     0.39311    0.00244     0.39555
      H   25    0.10367      0.00000     0.39227    0.00406     0.39633
      H   26    0.10432      0.00000     0.39433    0.00135     0.39568
      H   27    0.10323      0.00000     0.39566    0.00112     0.39677
      H   28    0.09034      0.00000     0.40873    0.00093     0.40966
      H   29    0.07759      0.00000     0.42113    0.00127     0.42241
      H   30    0.07801      0.00000     0.42066    0.00133     0.42199
      H   31    0.08948      0.00000     0.40957    0.00094     0.41052
      H   32    0.10296      0.00000     0.39602    0.00102     0.39704
      H   33    0.10177      0.00000     0.39678    0.00146     0.39823
      H   34    0.09370      0.00000     0.40474    0.00156     0.40630
      H   35    0.10416      0.00000     0.39435    0.00149     0.39584
      H   36    0.10221      0.00000     0.39619    0.00160     0.39779
      H   37    0.10765      0.00000     0.39048    0.00187     0.39235
 =======================================================================
   * Total *   -0.00000     19.99207    51.75749    0.25044    72.00000

 Normal termination of Gaussian 16 at Sun Dec 13 22:30:28 2020.
