 Gaussian 16, Revision A.03,

 -----------------------------------------------------------
 # opt freq B3LYP/6-31G(d) empiricaldispersion=gd3bj scf=xqc
 -----------------------------------------------------------

 -------------------------------
 CID_118553273_JID_1833_neutraal
 -------------------------------
 Symbolic Z-matrix:
 Charge =  0 Multiplicity = 1

 SCF Done:  E(RB3LYP) =  -448.519194003     A.U. after   12 cycles
 SCF Done:  E(RB3LYP) =  -448.521710171     A.U. after   11 cycles
 SCF Done:  E(RB3LYP) =  -448.521588111     A.U. after   11 cycles
 SCF Done:  E(RB3LYP) =  -448.521806396     A.U. after   11 cycles
 SCF Done:  E(RB3LYP) =  -448.522416177     A.U. after   10 cycles
 SCF Done:  E(RB3LYP) =  -448.522460044     A.U. after    9 cycles
 SCF Done:  E(RB3LYP) =  -448.522460372     A.U. after    8 cycles
 SCF Done:  E(RB3LYP) =  -448.522462859     A.U. after    8 cycles
 SCF Done:  E(RB3LYP) =  -448.522462990     A.U. after    6 cycles
 Optimization completed.
    -- Stationary point found.
 Normal termination of Gaussian 16 at Tue Dec  8 21:18:47 2020.

 --------------------------------------------------------------------
 #N Geom=AllCheck Guess=TCheck SCRF=Check GenChk RB3LYP/6-31G(d) Freq
 --------------------------------------------------------------------

 Structure from the checkpoint file:  "JID_1833.chk"
 -------------------------------
 CID_118553273_JID_1833_neutraal
 -------------------------------
 Charge =  0 Multiplicity = 1

 SCF Done:  E(RB3LYP) =  -448.522462990     A.U. after    1 cycles

  Exact polarizability: 122.507  -0.262 104.007   0.365  -0.234 103.625
 Approx polarizability: 154.041  -1.491 148.581  -0.559   0.646 152.276

                      1                      2                      3
                      A                      A                      A
 Frequencies --     80.8454               105.0638               133.9407
 Red. masses --      2.7392                 2.9591                 2.0424
 Frc consts  --      0.0105                 0.0192                 0.0216
 IR Inten    --      0.3532                 0.0631                 0.1445

                      4                      5                      6
                      A                      A                      A
 Frequencies --    204.4429               237.9270               241.7347
 Red. masses --      2.5362                 1.7271                 1.2835
 Frc consts  --      0.0625                 0.0576                 0.0442
 IR Inten    --      0.1437                 0.1034                 0.2937

                      7                      8                      9
                      A                      A                      A
 Frequencies --    251.2241               282.6919               298.0178
 Red. masses --      1.9220                 1.3893                 1.6208
 Frc consts  --      0.0715                 0.0654                 0.0848
 IR Inten    --      0.2455                 0.0383                 0.3237

                     10                     11                     12
                      A                      A                      A
 Frequencies --    320.4544               322.2153               355.9719
 Red. masses --      1.6909                 1.5646                 2.0800
 Frc consts  --      0.1023                 0.0957                 0.1553
 IR Inten    --      0.1966                 0.3621                 0.3527

                     13                     14                     15
                      A                      A                      A
 Frequencies --    365.7403               421.3061               451.7352
 Red. masses --      2.3039                 2.3144                 3.1363
 Frc consts  --      0.1816                 0.2420                 0.3771
 IR Inten    --      0.2427                 0.3207                 6.0325

                     16                     17                     18
                      A                      A                      A
 Frequencies --    466.3729               473.8742               548.4358
 Red. masses --      2.7683                 2.4454                 1.6043
 Frc consts  --      0.3548                 0.3235                 0.2843
 IR Inten    --      1.6223                 0.8064                12.1984

                     19                     20                     21
                      A                      A                      A
 Frequencies --    565.9702               745.9636               786.1355
 Red. masses --      2.6803                 2.2472                 1.4579
 Frc consts  --      0.5058                 0.7368                 0.5309
 IR Inten    --      0.6066                 2.1126                52.1511

                     22                     23                     24
                      A                      A                      A
 Frequencies --    796.1403               830.4490               864.5431
 Red. masses --      1.3169                 2.1295                 1.8945
 Frc consts  --      0.4918                 0.8653                 0.8343
 IR Inten    --     10.5176                 0.5049                 3.8912

                     25                     26                     27
                      A                      A                      A
 Frequencies --    873.9832               919.7538               939.0744
 Red. masses --      1.8579                 2.1089                 2.4648
 Frc consts  --      0.8361                 1.0511                 1.2806
 IR Inten    --      5.3685                 1.6318                 3.0684

                     28                     29                     30
                      A                      A                      A
 Frequencies --    950.5787               958.3211               966.9218
 Red. masses --      1.5135                 1.4618                 2.0961
 Frc consts  --      0.8058                 0.7910                 1.1546
 IR Inten    --      1.0701                 0.3642                 0.4598

                     31                     32                     33
                      A                      A                      A
 Frequencies --   1021.8222              1040.8353              1057.1354
 Red. masses --      1.2901                 1.6123                 1.7911
 Frc consts  --      0.7936                 1.0291                 1.1793
 IR Inten    --      0.9178                 4.6228                 3.7220

                     34                     35                     36
                      A                      A                      A
 Frequencies --   1075.4548              1082.1666              1089.6158
 Red. masses --      1.8814                 1.9406                 1.6704
 Frc consts  --      1.2821                 1.3390                 1.1685
 IR Inten    --      1.4473                 2.7869                 5.1342

                     37                     38                     39
                      A                      A                      A
 Frequencies --   1115.8222              1145.3751              1155.7048
 Red. masses --      1.7221                 2.6124                 2.3173
 Frc consts  --      1.2633                 2.0192                 1.8236
 IR Inten    --      1.5642                21.6656                13.5379

                     40                     41                     42
                      A                      A                      A
 Frequencies --   1187.2034              1208.8551              1234.4386
 Red. masses --      1.3182                 1.9734                 1.8879
 Frc consts  --      1.0947                 1.6991                 1.6950
 IR Inten    --      1.4832                 1.8944                 7.3914

                     43                     44                     45
                      A                      A                      A
 Frequencies --   1257.9156              1269.0670              1305.5837
 Red. masses --      1.8599                 2.2309                 1.2957
 Frc consts  --      1.7340                 2.1169                 1.3013
 IR Inten    --      0.7731                 0.9482                 3.0041

                     46                     47                     48
                      A                      A                      A
 Frequencies --   1316.4811              1351.5623              1366.0630
 Red. masses --      1.2767                 1.2389                 1.2573
 Frc consts  --      1.3037                 1.3334                 1.3824
 IR Inten    --      4.2756                15.4236                 7.1719

                     49                     50                     51
                      A                      A                      A
 Frequencies --   1376.6890              1386.0499              1392.3111
 Red. masses --      1.3197                 1.3695                 1.3863
 Frc consts  --      1.4736                 1.5501                 1.5833
 IR Inten    --     11.9552                23.8713                 1.2792

                     52                     53                     54
                      A                      A                      A
 Frequencies --   1404.0344              1411.8356              1427.7865
 Red. masses --      1.4589                 1.4066                 1.2747
 Frc consts  --      1.6945                 1.6519                 1.5311
 IR Inten    --      1.4291                 1.6078                 5.9336

                     55                     56                     57
                      A                      A                      A
 Frequencies --   1434.4338              1441.9172              1454.7519
 Red. masses --      1.2671                 1.3820                 1.2525
 Frc consts  --      1.5361                 1.6930                 1.5618
 IR Inten    --      6.6564                 5.0986                 8.8489

                     58                     59                     60
                      A                      A                      A
 Frequencies --   1502.3816              1509.4327              1512.0916
 Red. masses --      1.1562                 1.0976                 1.1476
 Frc consts  --      1.5375                 1.4734                 1.5460
 IR Inten    --      7.3755                 0.1526                 5.1116

                     61                     62                     63
                      A                      A                      A
 Frequencies --   1513.9264              1517.5030              1522.4032
 Red. masses --      1.0838                 1.0588                 1.0863
 Frc consts  --      1.4635                 1.4366                 1.4835
 IR Inten    --      1.3485                 1.4413                 3.7302

                     64                     65                     66
                      A                      A                      A
 Frequencies --   1528.1416              1533.5054              1534.7005
 Red. masses --      1.0603                 1.0613                 1.0977
 Frc consts  --      1.4589                 1.4704                 1.5233
 IR Inten    --      4.2166                 4.9220                 0.4811

                     67                     68                     69
                      A                      A                      A
 Frequencies --   1540.1570              1545.8304              1552.5939
 Red. masses --      1.0887                 1.0605                 1.0542
 Frc consts  --      1.5216                 1.4930                 1.4972
 IR Inten    --      8.4370                 5.4629                 7.5383

                     70                     71                     72
                      A                      A                      A
 Frequencies --   2869.6941              2916.0741              3022.4687
 Red. masses --      1.0803                 1.0733                 1.0665
 Frc consts  --      5.2415                 5.3772                 5.7401
 IR Inten    --     60.3899               100.7209                36.5890

                     73                     74                     75
                      A                      A                      A
 Frequencies --   3026.6824              3039.0474              3044.0926
 Red. masses --      1.0651                 1.0366                 1.0616
 Frc consts  --      5.7485                 5.6405                 5.7959
 IR Inten    --     28.0130                32.1240                19.3811

                     76                     77                     78
                      A                      A                      A
 Frequencies --   3046.6060              3052.4921              3070.4995
 Red. masses --      1.0387                 1.0387                 1.0870
 Frc consts  --      5.6802                 5.7023                 6.0379
 IR Inten    --     29.9478                19.1425                38.2369

                     79                     80                     81
                      A                      A                      A
 Frequencies --   3073.3780              3076.4397              3082.7947
 Red. masses --      1.0948                 1.0857                 1.0726
 Frc consts  --      6.0926                 6.0542                 6.0059
 IR Inten    --     19.8098                77.0391                25.7395

                     82                     83                     84
                      A                      A                      A
 Frequencies --   3089.2799              3100.4507              3103.3445
 Red. masses --      1.1044                 1.1006                 1.1017
 Frc consts  --      6.2099                 6.2334                 6.2514
 IR Inten    --     53.2110                28.7817                20.1842

                     85                     86                     87
                      A                      A                      A
 Frequencies --   3107.0119              3113.0971              3127.9636
 Red. masses --      1.1008                 1.1020                 1.1016
 Frc consts  --      6.2610                 6.2927                 6.3504
 IR Inten    --     63.6348                60.9960                33.5339

                     88                     89                     90
                      A                      A                      A
 Frequencies --   3132.2591              3147.3825              3508.8234
 Red. masses --      1.0986                 1.0996                 1.0736
 Frc consts  --      6.3506                 6.4178                 7.7881
 IR Inten    --     30.2945                26.7267                 1.6698

 - Thermochemistry -
 -------------------
 Temperature   298.150 Kelvin.  Pressure   1.00000 Atm.
 Atom     1 has atomic number  6 and mass  12.00000

 Molecular mass:   155.16740 amu.
 Principal axes and moments of inertia in atomic units:
                           1         2         3
     Eigenvalues --  1119.313712429.314042479.89829
           X            1.00000   0.00051  -0.00027
           Y           -0.00049   0.99763   0.06875
           Z            0.00030  -0.06874   0.99763
 This molecule is an asymmetric top.
 Rotational symmetry number  1.
 Warning -- assumption of classical behavior for rotation
           may cause significant error
 Rotational temperatures (Kelvin)      0.07738     0.03565     0.03493
 Rotational constants (GHZ):           1.61236     0.74290     0.72775
 Zero-point vibrational energy     794519.5 (Joules/Mol)
                                  189.89472 (Kcal/Mol)
 Warning -- explicit consideration of  19 degrees of freedom as
           vibrations may cause significant error
 Vibrational temperatures:    116.32   151.16   192.71   294.15   342.32
          (Kelvin)            347.80   361.46   406.73   428.78   461.06
                              463.60   512.16   526.22   606.17   649.95
                              671.01   681.80   789.08   814.30  1073.28
                             1131.07  1145.47  1194.83  1243.88  1257.47
                             1323.32  1351.12  1367.67  1378.81  1391.18
                             1470.17  1497.53  1520.98  1547.34  1557.00
                             1567.71  1605.42  1647.94  1662.80  1708.12
                             1739.27  1776.08  1809.86  1825.90  1878.44
                             1894.12  1944.60  1965.46  1980.75  1994.22
                             2003.23  2020.09  2031.32  2054.27  2063.83
                             2074.60  2093.06  2161.59  2171.74  2175.56
                             2178.20  2183.35  2190.40  2198.65  2206.37
                             2208.09  2215.94  2224.11  2233.84  4128.85
                             4195.58  4348.66  4354.72  4372.51  4379.77
                             4383.39  4391.86  4417.76  4421.91  4426.31
                             4435.45  4444.78  4460.86  4465.02  4470.30
                             4479.05  4500.44  4506.62  4528.38  5048.41

 Zero-point correction=                           0.302617 (Hartree/Particle)
 Thermal correction to Energy=                    0.314571
 Thermal correction to Enthalpy=                  0.315515
 Thermal correction to Gibbs Free Energy=         0.266205
 Sum of electronic and zero-point Energies=           -448.219846
 Sum of electronic and thermal Energies=              -448.207892
 Sum of electronic and thermal Enthalpies=            -448.206948
 Sum of electronic and thermal Free Energies=         -448.256258

                     E (Thermal)             CV                S
                      KCal/Mol        Cal/Mol-Kelvin    Cal/Mol-Kelvin
 Total                  197.396             48.150            103.782
 Electronic               0.000              0.000              0.000
 Translational            0.889              2.981             41.028
 Rotational               0.889              2.981             30.290
 Vibrational            195.619             42.189             32.464
 Vibration     1          0.600              1.962              3.870
 Vibration     2          0.605              1.945              3.358
 Vibration     3          0.613              1.919              2.889
 Vibration     4          0.640              1.834              2.093
 Vibration     5          0.656              1.783              1.818
 Vibration     6          0.658              1.776              1.790
 Vibration     7          0.663              1.761              1.722
 Vibration     8          0.682              1.706              1.517
 Vibration     9          0.691              1.677              1.428
 Vibration    10          0.706              1.634              1.308
 Vibration    11          0.707              1.631              1.299
 Vibration    12          0.731              1.563              1.140
 Vibration    13          0.739              1.543              1.098
 Vibration    14          0.784              1.424              0.888
 Vibration    15          0.810              1.357              0.791
 Vibration    16          0.824              1.325              0.748
 Vibration    17          0.831              1.308              0.727
 Vibration    18          0.904              1.143              0.547
 Vibration    19          0.922              1.105              0.512

 Optimization completed.
    -- Stationary point found.
 Normal termination of Gaussian 16 at Tue Dec  8 21:28:10 2020.

 ----------------------------------------------------------------------
 # B3LYP/6-311++G(d,p) empiricaldispersion=gd3bj scf=xqc pop=npa geom=c
 heck
 ----------------------------------------------------------------------

 ---------------------------------------
 CID_118553273_JID_1833_Energie_neutraal
 ---------------------------------------
 Structure from the checkpoint file:  "JID_1833.chk"
 Charge =  0 Multiplicity = 1

 SCF Done:  E(RB3LYP) =  -448.648645719     A.U. after   13 cycles
 Normal termination of Gaussian 16 at Tue Dec  8 21:33:29 2020.

 ----------------------------------------------------------------------
 # B3LYP/6-311++G(d,p) empiricaldispersion=gd3bj scf=xqc pop=npa geom=c
 heck
 ----------------------------------------------------------------------

 -------------------------------------
 CID_118553273_JID_1833_Energie_kation
 -------------------------------------
 Structure from the checkpoint file:  "JID_1833.chk"
 Charge =  1 Multiplicity = 2

 SCF Done:  E(UB3LYP) =  -448.344231979     A.U. after   17 cycles
 Normal termination of Gaussian 16 at Tue Dec  8 21:41:39 2020.
 Gaussian 16:  ES64L-G16RevA.03 25-Dec-2016

 ----------------------------------------------------------------------
 # B3LYP/6-311++G(d,p) empiricaldispersion=gd3bj scf=xqc pop=npa geom=c
 heck
 ----------------------------------------------------------------------

 ------------------------------------
 CID_118553273_JID_1833_Energie_anion
 ------------------------------------
 Structure from the checkpoint file:  "JID_1833.chk"
 Charge = -1 Multiplicity = 2

                         Standard orientation:
 ---------------------------------------------------------------------
 Center     Atomic      Atomic             Coordinates (Angstroms)
 Number     Number       Type             X           Y           Z
 ---------------------------------------------------------------------
      1          6           0        1.440606   -1.771735   -1.338255
      2          6           0        1.919249   -0.348141   -1.045536
      3          6           0        1.424988    0.334199    0.256957
      4          6           0        2.042116   -0.359580    1.483441
      5          6           0        1.952900    1.785875    0.235718
      6          6           0       -0.130980    0.391090    0.388704
      7          6           0       -0.820462   -0.865069    0.950903
      8          6           0       -2.337761   -0.652121    1.051817
      9          6           0       -2.921950   -0.208686   -0.293323
     10          6           0       -2.170802    1.019888   -0.804915
     11          7           0       -0.743829    0.715197   -0.906254
     12          1           0        1.612570   -2.452001   -0.496620
     13          1           0        1.980475   -2.178532   -2.201383
     14          1           0        0.374695   -1.776632   -1.577966
     15          1           0        3.017849   -0.339989   -1.007131
     16          1           0        1.644142    0.282660   -1.898915
     17          1           0        3.133496   -0.258713    1.461778
     18          1           0        1.685158    0.093853    2.416186
     19          1           0        1.808188   -1.427116    1.520253
     20          1           0        1.525279    2.369969   -0.588613
     21          1           0        1.714918    2.305165    1.171214
     22          1           0        3.041535    1.800590    0.109566
     23          1           0       -0.340718    1.195069    1.127108
     24          1           0       -0.418791   -1.094113    1.942896
     25          1           0       -0.615944   -1.726107    0.308764
     26          1           0       -2.826134   -1.568632    1.404754
     27          1           0       -2.542688    0.124167    1.803866
     28          1           0       -2.815999   -1.016621   -1.028483
     29          1           0       -3.991209    0.017159   -0.199090
     30          1           0       -2.532687    1.308405   -1.798499
     31          1           0       -2.371434    1.869553   -0.121050
     32          1           0       -0.263315    1.511169   -1.317927
 ---------------------------------------------------------------------

 SCF Done:  E(UB3LYP) =  -448.631203839     A.U. after   29 cycles

 The electronic state is 2-A.
 Alpha  occ. eigenvalues --  -14.18505 -10.08679 -10.08093 -10.07602 -10.05873
 Alpha  occ. eigenvalues --  -10.05717 -10.05520 -10.05294 -10.05041 -10.04978
 Alpha  occ. eigenvalues --  -10.04960  -0.80624  -0.71341  -0.67947  -0.63961
 Alpha  occ. eigenvalues --   -0.62537  -0.58021  -0.52914  -0.52454  -0.50837
 Alpha  occ. eigenvalues --   -0.45221  -0.43080  -0.39687  -0.36226  -0.35145
 Alpha  occ. eigenvalues --   -0.33661  -0.32878  -0.31873  -0.31667  -0.30191
 Alpha  occ. eigenvalues --   -0.29940  -0.29253  -0.27761  -0.27237  -0.25691
 Alpha  occ. eigenvalues --   -0.24724  -0.24282  -0.23492  -0.22518  -0.21920
 Alpha  occ. eigenvalues --   -0.20664  -0.19651  -0.19082  -0.11950   0.04748
 Alpha virt. eigenvalues --    0.06989   0.07360   0.07738   0.09055   0.09263
 Alpha virt. eigenvalues --    0.09416   0.10203   0.10424   0.11470   0.11876
 Alpha virt. eigenvalues --    0.12274   0.12485   0.12914   0.13470   0.14055

  Beta  occ. eigenvalues --  -14.18483 -10.08671 -10.08069 -10.07597 -10.05856
  Beta  occ. eigenvalues --  -10.05704 -10.05503 -10.05285 -10.05012 -10.04948
  Beta  occ. eigenvalues --  -10.04943  -0.80594  -0.71317  -0.67914  -0.63932
  Beta  occ. eigenvalues --   -0.62503  -0.57960  -0.52861  -0.52399  -0.50790
  Beta  occ. eigenvalues --   -0.45161  -0.43027  -0.39631  -0.36188  -0.35122
  Beta  occ. eigenvalues --   -0.33621  -0.32844  -0.31843  -0.31628  -0.30161
  Beta  occ. eigenvalues --   -0.29900  -0.29224  -0.27735  -0.27203  -0.25650
  Beta  occ. eigenvalues --   -0.24685  -0.24253  -0.23457  -0.22483  -0.21892
  Beta  occ. eigenvalues --   -0.20632  -0.19617  -0.19055  -0.11891
  Beta virt. eigenvalues --    0.06915   0.07809   0.08020   0.08344   0.09731
  Beta virt. eigenvalues --    0.09760   0.09894   0.10568   0.10823   0.12013
  Beta virt. eigenvalues --    0.12437   0.12653   0.12789   0.13250   0.13861

 Mulliken charges and spin densities:
               1          2
     1  C    0.006182  -0.619395
     2  C   -0.358077   0.032744
     3  C   -1.886315   2.447381
     4  C    1.230080  -1.919429
     5  C    0.744887  -1.120449
     6  C    1.479253  -2.002373
     7  C   -1.047227   0.861057
     8  C    0.732929  -1.060112
     9  C   -0.743833   0.293938
    10  C    1.231103  -1.401789
    11  N   -0.258361   0.265019
    12  H   -0.025925   0.153350
    13  H   -0.110896   0.239483
    14  H    0.159784   0.035622
    15  H   -0.123125   0.278056
    16  H   -0.098992   0.210585
    17  H   -0.162818   0.317737
    18  H   -0.129649   0.284408
    19  H   -0.111831   0.246667
    20  H   -0.526530   0.654170
    21  H   -0.195263   0.334039
    22  H   -0.218732   0.365433
    23  H    0.291439  -0.130895
    24  H   -0.017319   0.164666
    25  H    0.104450   0.005883
    26  H   -0.286929   0.460637
    27  H   -0.173208   0.294135
    28  H    0.142410  -0.030275
    29  H   -0.223646   0.393075
    30  H   -0.495729   0.656854
    31  H   -0.169193   0.278123
    32  H    0.241084   0.011658
 Sum of Mulliken charges =  -1.00000   1.00000

 Dipole moment (field-independent basis, Debye):
    X=             -0.2504    Y=             -2.5390    Z=             -0.1485  Tot=              2.5556
 Quadrupole moment (field-independent basis, Debye-Ang):
   XX=           -135.4865   YY=           -113.5426   ZZ=           -113.3251
   XY=              0.5951   XZ=             -1.4314   YZ=              4.9976

 Summary of Natural Population Analysis:

                                       Natural Population
                Natural  -----------------------------------------------
    Atom  No    Charge         Core      Valence    Rydberg      Total
 -----------------------------------------------------------------------
      C    1   -0.28673      0.99966     2.28258    0.00450     3.28673
      C    2   -0.18705      0.99959     2.17729    0.01017     3.18705
      C    3   -0.04632      0.99955     2.03233    0.01443     3.04632
      C    4   -0.28700      0.99962     2.27977    0.00761     3.28700
      C    5   -0.28159      0.99963     2.27416    0.00780     3.28159
      C    6   -0.00123      0.99954     1.98772    0.01396     3.00123
      C    7   -0.19516      0.99960     2.18683    0.00873     3.19516
      C    8   -0.18747      0.99963     2.17955    0.00829     3.18747
      C    9   -0.19323      0.99963     2.18537    0.00823     3.19323
      C   10   -0.08306      0.99962     2.07175    0.01169     3.08306
      N   11   -0.34645      0.99972     2.83529    0.01145     3.84645
      H   12    0.09350      0.00000     0.40540    0.00110     0.40650
      H   13    0.09531      0.00000     0.40389    0.00080     0.40469
      H   14    0.10299      0.00000     0.39544    0.00157     0.39701
      H   15    0.09422      0.00000     0.40454    0.00124     0.40578
      H   16    0.10013      0.00000     0.39847    0.00140     0.39987
      H   17    0.10073      0.00000     0.39816    0.00111     0.39927
      H   18    0.10069      0.00000     0.39827    0.00104     0.39931
      H   19    0.10056      0.00000     0.39838    0.00107     0.39944
      H   20    0.09786      0.00000     0.40046    0.00168     0.40214
      H   21    0.09961      0.00000     0.39923    0.00116     0.40039
      H   22    0.10046      0.00000     0.39826    0.00128     0.39954
      H   23    0.07855      0.00000     0.41880    0.00265     0.42145
      H   24    0.10112      0.00000     0.39776    0.00112     0.39888
      H   25    0.09820      0.00000     0.40013    0.00167     0.40180
      H   26    0.09721      0.00000     0.40176    0.00103     0.40279
      H   27    0.09290      0.00000     0.40554    0.00156     0.40710
      H   28    0.09420      0.00000     0.40438    0.00142     0.40580
      H   29    0.09772      0.00000     0.40116    0.00112     0.40228
      H   30    0.09531      0.00000     0.40335    0.00134     0.40469
      H   31    0.07611      0.00000     0.42206    0.00183     0.42389
      H   32    0.17789      0.00000     0.31874    0.00337     0.32211
 =======================================================================
   * Total *   -0.00000     10.99579    32.86679    0.13742    44.00000

 Normal termination of Gaussian 16 at Tue Dec  8 21:53:49 2020.
