 Gaussian 16, Revision A.03,

 -----------------------------------------------------------
 # opt freq B3LYP/6-31G(d) empiricaldispersion=gd3bj scf=xqc
 -----------------------------------------------------------

 ------------------------------
 CID_75045580_JID_8103_neutraal
 ------------------------------
 Symbolic Z-matrix:
 Charge =  0 Multiplicity = 1

 SCF Done:  E(RB3LYP) =  -804.295786791     A.U. after   15 cycles
 SCF Done:  E(RB3LYP) =  -804.303408878     A.U. after   12 cycles
 SCF Done:  E(RB3LYP) =  -804.303966558     A.U. after   12 cycles
 SCF Done:  E(RB3LYP) =  -804.304466914     A.U. after   12 cycles
 SCF Done:  E(RB3LYP) =  -804.304757959     A.U. after   12 cycles
 SCF Done:  E(RB3LYP) =  -804.304815567     A.U. after   11 cycles
 SCF Done:  E(RB3LYP) =  -804.304871993     A.U. after   10 cycles
 SCF Done:  E(RB3LYP) =  -804.304896966     A.U. after   10 cycles
 SCF Done:  E(RB3LYP) =  -804.304907124     A.U. after   10 cycles
 SCF Done:  E(RB3LYP) =  -804.304909386     A.U. after    9 cycles
 SCF Done:  E(RB3LYP) =  -804.304909699     A.U. after    8 cycles
 SCF Done:  E(RB3LYP) =  -804.304909871     A.U. after    7 cycles
 Optimization completed.
    -- Stationary point found.
 Normal termination of Gaussian 16 at Fri Dec 11 18:42:25 2020.

 --------------------------------------------------------------------
 #N Geom=AllCheck Guess=TCheck SCRF=Check GenChk RB3LYP/6-31G(d) Freq
 --------------------------------------------------------------------

 Structure from the checkpoint file:  "JID_8103.chk"
 ------------------------------
 CID_75045580_JID_8103_neutraal
 ------------------------------
 Charge =  0 Multiplicity = 1

 SCF Done:  E(RB3LYP) =  -804.304909871     A.U. after    1 cycles

  Exact polarizability: 208.457  20.007 137.454  -8.750  19.670 131.705
 Approx polarizability: 280.412  28.879 204.557 -24.387  46.537 230.744

                      1                      2                      3
                      A                      A                      A
 Frequencies --     19.1290                32.6233                58.2287
 Red. masses --      5.5832                 4.1995                 3.8112
 Frc consts  --      0.0012                 0.0026                 0.0076
 IR Inten    --      0.3213                 2.2656                 5.1109

                      4                      5                      6
                      A                      A                      A
 Frequencies --     78.1339                80.8847               113.1054
 Red. masses --      5.8956                 3.9563                 3.4164
 Frc consts  --      0.0212                 0.0153                 0.0258
 IR Inten    --      0.5088                 2.1534                 0.1222

                      7                      8                      9
                      A                      A                      A
 Frequencies --    132.1338               169.2096               217.4961
 Red. masses --      4.6368                 5.8303                 4.2076
 Frc consts  --      0.0477                 0.0984                 0.1173
 IR Inten    --      5.8063                 2.8581                 3.6166

                     10                     11                     12
                      A                      A                      A
 Frequencies --    237.7631               279.2539               292.1325
 Red. masses --      3.0593                 2.7793                 2.3259
 Frc consts  --      0.1019                 0.1277                 0.1169
 IR Inten    --      1.7458                 1.9451                 0.3789

                     13                     14                     15
                      A                      A                      A
 Frequencies --    294.5721               367.9838               423.8517
 Red. masses --      5.5924                 4.6651                 3.1796
 Frc consts  --      0.2859                 0.3722                 0.3365
 IR Inten    --      4.5598                 1.4211                 3.5592

                     16                     17                     18
                      A                      A                      A
 Frequencies --    430.2344               435.8031               438.0931
 Red. masses --      1.2699                 2.0522                 2.1195
 Frc consts  --      0.1385                 0.2296                 0.2397
 IR Inten    --    159.8499                 6.2313                 1.5368

                     19                     20                     21
                      A                      A                      A
 Frequencies --    447.3042               495.4322               520.4331
 Red. masses --      2.4048                 2.7920                 2.4563
 Frc consts  --      0.2835                 0.4038                 0.3920
 IR Inten    --      3.0532                34.0657                 1.1571

                     22                     23                     24
                      A                      A                      A
 Frequencies --    538.0653               566.6711               612.5643
 Red. masses --      2.8631                 1.3901                 3.8203
 Frc consts  --      0.4884                 0.2630                 0.8446
 IR Inten    --      5.7723                42.7967                46.1909

                     25                     26                     27
                      A                      A                      A
 Frequencies --    650.2242               675.3135               690.7217
 Red. masses --      6.6639                 5.5629                 3.6975
 Frc consts  --      1.6600                 1.4947                 1.0394
 IR Inten    --      3.8978                29.0267                 5.1240

                     28                     29                     30
                      A                      A                      A
 Frequencies --    707.4299               732.2773               777.2183
 Red. masses --      3.6152                 3.7910                 4.7507
 Frc consts  --      1.0660                 1.1977                 1.6908
 IR Inten    --     24.0108                 1.4231                48.3283

                     31                     32                     33
                      A                      A                      A
 Frequencies --    781.6754               802.6726               827.7673
 Red. masses --      2.7003                 2.5131                 1.3993
 Frc consts  --      0.9721                 0.9540                 0.5649
 IR Inten    --      4.0070                 1.9777                11.0875

                     34                     35                     36
                      A                      A                      A
 Frequencies --    833.0717               834.8999               858.5986
 Red. masses --      1.5998                 2.3507                 1.8852
 Frc consts  --      0.6542                 0.9654                 0.8188
 IR Inten    --      2.3034                 7.5021                23.1845

                     37                     38                     39
                      A                      A                      A
 Frequencies --    895.3957               898.8274               916.2379
 Red. masses --      2.1976                 1.4878                 2.6324
 Frc consts  --      1.0381                 0.7082                 1.3020
 IR Inten    --      1.3765                12.6691                25.4860

                     40                     41                     42
                      A                      A                      A
 Frequencies --    940.1034               954.7097               960.6287
 Red. masses --      2.0786                 2.4171                 1.3136
 Frc consts  --      1.0824                 1.2981                 0.7142
 IR Inten    --     23.1311                 3.1064                 0.6968

                     43                     44                     45
                      A                      A                      A
 Frequencies --    981.4206              1007.2815              1016.7177
 Red. masses --      1.3268                 2.2235                 2.0463
 Frc consts  --      0.7530                 1.3292                 1.2463
 IR Inten    --      0.5281                10.5435                14.6207

                     46                     47                     48
                      A                      A                      A
 Frequencies --   1032.4110              1043.5700              1077.1382
 Red. masses --      2.7794                 3.4200                 1.3279
 Frc consts  --      1.7454                 2.1944                 0.9077
 IR Inten    --      1.3955                37.8149                 3.6348

                     49                     50                     51
                      A                      A                      A
 Frequencies --   1088.4991              1098.4775              1102.2526
 Red. masses --      3.1418                 1.6294                 1.9478
 Frc consts  --      2.1932                 1.1584                 1.3943
 IR Inten    --     27.4263                12.4823                20.5825

                     52                     53                     54
                      A                      A                      A
 Frequencies --   1114.4208              1114.8813              1148.2371
 Red. masses --      1.2992                 1.7097                 1.6133
 Frc consts  --      0.9507                 1.2520                 1.2532
 IR Inten    --      3.5283                17.9124                 4.1817

                     55                     56                     57
                      A                      A                      A
 Frequencies --   1159.6406              1163.6664              1178.7641
 Red. masses --      1.8709                 1.8245                 2.4207
 Frc consts  --      1.4824                 1.4557                 1.9817
 IR Inten    --     16.1744                10.8531                 7.9901

                     58                     59                     60
                      A                      A                      A
 Frequencies --   1208.6848              1226.5292              1249.5258
 Red. masses --      1.1900                 1.7410                 1.1593
 Frc consts  --      1.0243                 1.5431                 1.0665
 IR Inten    --     75.7360                 3.2299                 0.7704

                     61                     62                     63
                      A                      A                      A
 Frequencies --   1284.8822              1308.4160              1325.6950
 Red. masses --      1.1782                 3.7578                 1.2418
 Frc consts  --      1.1460                 3.7904                 1.2858
 IR Inten    --     30.2968               352.7754                 2.5093

                     64                     65                     66
                      A                      A                      A
 Frequencies --   1340.6095              1345.5964              1351.2575
 Red. masses --      1.3110                 1.3444                 1.3372
 Frc consts  --      1.3882                 1.4342                 1.4385
 IR Inten    --      5.4252                 4.1246                 2.2426

                     67                     68                     69
                      A                      A                      A
 Frequencies --   1361.5624              1367.2758              1375.9964
 Red. masses --      5.6056                 2.0074                 1.3992
 Frc consts  --      6.1228                 2.2111                 1.5608
 IR Inten    --      4.1648                14.6398                15.7771

                     70                     71                     72
                      A                      A                      A
 Frequencies --   1384.2494              1393.1348              1411.3538
 Red. masses --      4.0095                 1.7029                 1.3178
 Frc consts  --      4.5266                 1.9472                 1.5466
 IR Inten    --    330.4201                26.1039                13.7035

                     73                     74                     75
                      A                      A                      A
 Frequencies --   1436.0937              1466.7820              1498.1597
 Red. masses --      1.3522                 3.2521                 1.0901
 Frc consts  --      1.6431                 4.1224                 1.4416
 IR Inten    --     13.0839                 2.9383                 2.6772

                     76                     77                     78
                      A                      A                      A
 Frequencies --   1512.9621              1521.7738              1531.9201
 Red. masses --      1.2283                 1.0829                 1.1422
 Frc consts  --      1.6566                 1.4776                 1.5793
 IR Inten    --      2.3940                 2.9118                59.4181

                     79                     80                     81
                      A                      A                      A
 Frequencies --   1537.4332              1566.0200              1629.0294
 Red. masses --      1.0978                 2.3495                 6.9696
 Frc consts  --      1.5288                 3.3948                10.8973
 IR Inten    --      0.9328                51.5714                 1.5657

                     82                     83                     84
                      A                      A                      A
 Frequencies --   1648.0301              1670.8026              1785.0587
 Red. masses --      1.2474                 5.7037                 8.1426
 Frc consts  --      1.9961                 9.3812                15.2868
 IR Inten    --    151.5959               185.6395               269.7370

                     85                     86                     87
                      A                      A                      A
 Frequencies --   3020.4177              3028.5969              3034.6603
 Red. masses --      1.0629                 1.0720                 1.0689
 Frc consts  --      5.7132                 5.7934                 5.7999
 IR Inten    --     29.2296                58.7470                67.5449

                     88                     89                     90
                      A                      A                      A
 Frequencies --   3049.0609              3080.0231              3096.4125
 Red. masses --      1.0639                 1.1017                 1.0986
 Frc consts  --      5.8275                 6.1576                 6.2061
 IR Inten    --     61.8000                26.7477                23.9747

                     91                     92                     93
                      A                      A                      A
 Frequencies --   3102.9367              3121.0352              3145.1107
 Red. masses --      1.0991                 1.0562                 1.0928
 Frc consts  --      6.2348                 6.0616                 6.3691
 IR Inten    --     32.5078                27.5747                17.7222

                     94                     95                     96
                      A                      A                      A
 Frequencies --   3176.2361              3195.2590              3198.4366
 Red. masses --      1.0914                 1.0877                 1.0991
 Frc consts  --      6.4870                 6.5429                 6.6246
 IR Inten    --     12.1093                12.9759                 3.8967

                     97                     98                     99
                      A                      A                      A
 Frequencies --   3210.7744              3216.9152              3221.4487
 Red. masses --      1.1072                 1.0938                 1.0879
 Frc consts  --      6.7249                 6.6688                 6.6517
 IR Inten    --     23.6092                 7.4275                 1.8280

                    100                    101                    102
                      A                      A                      A
 Frequencies --   3235.5093              3577.0716              3694.7228
 Red. masses --      1.0933                 1.0461                 1.1019
 Frc consts  --      6.7436                 7.8866                 8.8624
 IR Inten    --      8.2676                33.1004                23.8798

 - Thermochemistry -
 -------------------
 Temperature   298.150 Kelvin.  Pressure   1.00000 Atm.
 Atom     1 has atomic number  6 and mass  12.00000

 Molecular mass:   246.13683 amu.
 Principal axes and moments of inertia in atomic units:
                           1         2         3
     Eigenvalues --  1899.227929272.893539877.96610
           X            0.99998   0.00400   0.00578
           Y           -0.00420   0.99933   0.03624
           Z           -0.00563  -0.03626   0.99933
 This molecule is an asymmetric top.
 Rotational symmetry number  1.
 Warning -- assumption of classical behavior for rotation
           may cause significant error
 Rotational temperatures (Kelvin)      0.04560     0.00934     0.00877
 Rotational constants (GHZ):           0.95025     0.19463     0.18270
 Zero-point vibrational energy     804427.1 (Joules/Mol)
                                  192.26270 (Kcal/Mol)
 Warning -- explicit consideration of  24 degrees of freedom as
           vibrations may cause significant error
 Vibrational temperatures:     27.52    46.94    83.78   112.42   116.37
          (Kelvin)            162.73   190.11   243.45   312.93   342.09
                              401.78   420.31   423.82   529.45   609.83
                              619.01   627.02   630.32   643.57   712.82
                              748.79   774.16   815.31   881.34   935.53
                              971.63   993.79  1017.83  1053.58  1118.24
                             1124.66  1154.87  1190.97  1198.60  1201.23
                             1235.33  1288.27  1293.21  1318.26  1352.60
                             1373.61  1382.13  1412.05  1449.25  1462.83
                             1485.41  1501.46  1549.76  1566.11  1580.46
                             1585.90  1603.40  1604.07  1652.06  1668.46
                             1674.26  1695.98  1739.03  1764.70  1797.79
                             1848.66  1882.52  1907.38  1928.84  1936.01
                             1944.16  1958.98  1967.20  1979.75  1991.63
                             2004.41  2030.62  2066.22  2110.37  2155.52
                             2176.81  2189.49  2204.09  2212.02  2253.15
                             2343.81  2371.15  2403.91  2568.30  4345.71
                             4357.48  4366.20  4386.92  4431.47  4455.05
                             4464.43  4490.47  4525.11  4569.90  4597.26
                             4601.84  4619.59  4628.42  4634.95  4655.18
                             5146.61  5315.88

 Zero-point correction=                           0.306390 (Hartree/Particle)
 Thermal correction to Energy=                    0.322391
 Thermal correction to Enthalpy=                  0.323336
 Thermal correction to Gibbs Free Energy=         0.261211
 Sum of electronic and zero-point Energies=           -803.998520
 Sum of electronic and thermal Energies=              -803.982518
 Sum of electronic and thermal Enthalpies=            -803.981574
 Sum of electronic and thermal Free Energies=         -804.043699

                     E (Thermal)             CV                S
                      KCal/Mol        Cal/Mol-Kelvin    Cal/Mol-Kelvin
 Total                  202.304             63.105            130.752
 Electronic               0.000              0.000              0.000
 Translational            0.889              2.981             42.403
 Rotational               0.889              2.981             33.519
 Vibrational            200.526             57.143             54.830
 Vibration     1          0.593              1.986              6.723
 Vibration     2          0.594              1.983              5.663
 Vibration     3          0.596              1.974              4.516
 Vibration     4          0.599              1.964              3.937
 Vibration     5          0.600              1.962              3.869
 Vibration     6          0.607              1.939              3.215
 Vibration     7          0.612              1.921              2.915
 Vibration     8          0.625              1.880              2.444
 Vibration     9          0.646              1.814              1.980
 Vibration    10          0.656              1.783              1.820
 Vibration    11          0.680              1.712              1.538
 Vibration    12          0.688              1.688              1.462
 Vibration    13          0.689              1.684              1.448
 Vibration    14          0.741              1.538              1.088
 Vibration    15          0.786              1.418              0.879
 Vibration    16          0.791              1.404              0.858
 Vibration    17          0.796              1.392              0.840
 Vibration    18          0.798              1.387              0.833
 Vibration    19          0.806              1.367              0.804
 Vibration    20          0.851              1.260              0.670
 Vibration    21          0.875              1.205              0.609
 Vibration    22          0.893              1.166              0.569
 Vibration    23          0.923              1.103              0.511
 Vibration    24          0.972              1.005              0.429

                           ! Non-Optimized Parameters !
 Normal termination of Gaussian 16 at Fri Dec 11 18:59:14 2020.

 ----------------------------------------------------------------------
 # B3LYP/6-311++G(d,p) empiricaldispersion=gd3bj scf=xqc pop=npa geom=c
 heck
 ----------------------------------------------------------------------

 --------------------------------------
 CID_75045580_JID_8103_Energie_neutraal
 --------------------------------------
 Structure from the checkpoint file:  "JID_8103.chk"
 Charge =  0 Multiplicity = 1

 SCF Done:  E(RB3LYP) =  -804.530416906     A.U. after   15 cycles
 Normal termination of Gaussian 16 at Fri Dec 11 19:06:54 2020.

 ----------------------------------------------------------------------
 # B3LYP/6-311++G(d,p) empiricaldispersion=gd3bj scf=xqc pop=npa geom=c
 heck
 ----------------------------------------------------------------------

 ------------------------------------
 CID_75045580_JID_8103_Energie_kation
 ------------------------------------
 Structure from the checkpoint file:  "JID_8103.chk"
 Charge =  1 Multiplicity = 2

 SCF Done:  E(UB3LYP) =  -804.246102092     A.U. after   27 cycles
 Normal termination of Gaussian 16 at Fri Dec 11 19:26:57 2020.
 Gaussian 16:  ES64L-G16RevA.03 25-Dec-2016

 ----------------------------------------------------------------------
 # B3LYP/6-311++G(d,p) empiricaldispersion=gd3bj scf=xqc pop=npa geom=c
 heck
 ----------------------------------------------------------------------

 -----------------------------------
 CID_75045580_JID_8103_Energie_anion
 -----------------------------------
 Structure from the checkpoint file:  "JID_8103.chk"
 Charge = -1 Multiplicity = 2

                         Standard orientation:
 ---------------------------------------------------------------------
 Center     Atomic      Atomic             Coordinates (Angstroms)
 Number     Number       Type             X           Y           Z
 ---------------------------------------------------------------------
      1          6           0       -2.909824    2.564422   -0.616211
      2          6           0       -2.285596    1.499213    0.246790
      3          6           0       -2.632760    1.199372   -1.193442
      4          6           0       -3.780109    0.177774   -1.143774
      5          7           0       -3.787750   -0.410264    0.210666
      6          6           0       -3.236293    0.640274    1.094095
      7          6           0       -3.116330   -1.703046    0.296448
      8          6           0       -1.654199   -1.794810   -0.149977
      9          8           0       -0.844472   -1.118203    0.812173
     10          6           0        0.441660   -0.817959    0.497812
     11          6           0        1.105976   -1.270897   -0.650103
     12          6           0        2.427259   -0.893219   -0.870318
     13          6           0        3.105313   -0.061869    0.025948
     14          6           0        2.433869    0.368951    1.181582
     15          6           0        1.118454   -0.002059    1.417628
     16          6           0        4.518663    0.299889   -0.297190
     17          8           0        5.176924   -0.311299   -1.130792
     18          7           0        5.058665    1.348346    0.418552
     19          1           0       -2.286383    3.393466   -0.941057
     20          1           0       -3.948117    2.835175   -0.426189
     21          1           0       -1.252924    1.608028    0.560775
     22          1           0       -1.859156    1.091987   -1.948883
     23          1           0       -4.743912    0.672483   -1.324354
     24          1           0       -3.674334   -0.605852   -1.900566
     25          1           0       -4.067232    1.250743    1.473702
     26          1           0       -2.731223    0.189534    1.949427
     27          1           0       -3.182249   -2.056031    1.331892
     28          1           0       -3.683843   -2.415788   -0.315869
     29          1           0       -1.345787   -2.848444   -0.214274
     30          1           0       -1.518025   -1.337617   -1.136835
     31          1           0        0.608466   -1.920076   -1.360354
     32          1           0        2.961898   -1.242137   -1.747281
     33          1           0        2.948805    0.972369    1.923354
     34          1           0        0.593156    0.315840    2.312346
     35          1           0        4.450081    2.063263    0.790635
     36          1           0        5.958259    1.666279    0.082234
 ---------------------------------------------------------------------

 SCF Done:  E(UB3LYP) =  -804.525127830     A.U. after   33 cycles
 SCF Done:  E(UB3LYP) =  -804.525127829     a.u. after    1 cycles

 The electronic state is 2-A.
 Alpha  occ. eigenvalues --  -19.05242 -18.96615 -14.21521 -14.21179 -10.14872
 Alpha  occ. eigenvalues --  -10.13053 -10.12518 -10.10735 -10.10492 -10.10099
 Alpha  occ. eigenvalues --  -10.08577 -10.08344 -10.08244 -10.07119 -10.06726
 Alpha  occ. eigenvalues --  -10.06721 -10.06578 -10.05979  -0.97206  -0.91785
 Alpha  occ. eigenvalues --   -0.84684  -0.78872  -0.76301  -0.74819  -0.67594
 Alpha  occ. eigenvalues --   -0.64571  -0.63415  -0.63098  -0.57730  -0.52520
 Alpha  occ. eigenvalues --   -0.51922  -0.49929  -0.48063  -0.47332  -0.46517
 Alpha  occ. eigenvalues --   -0.44416  -0.42976  -0.42648  -0.39484  -0.38863
 Alpha  occ. eigenvalues --   -0.37130  -0.35843  -0.35607  -0.34895  -0.33970
 Alpha  occ. eigenvalues --   -0.32245  -0.32083  -0.31590  -0.30659  -0.30255
 Alpha  occ. eigenvalues --   -0.29501  -0.27794  -0.27683  -0.26634  -0.26317
 Alpha  occ. eigenvalues --   -0.26257  -0.25798  -0.22809  -0.21858  -0.19934
 Alpha  occ. eigenvalues --   -0.19027  -0.16811  -0.15455  -0.14255  -0.12869
 Alpha  occ. eigenvalues --   -0.12228   0.04081
 Alpha virt. eigenvalues --    0.05708   0.06577   0.06972   0.07647   0.08158
 Alpha virt. eigenvalues --    0.08804   0.09064   0.09198   0.09735   0.09863
 Alpha virt. eigenvalues --    0.10778   0.11343   0.11816   0.12244   0.12609

  Beta  occ. eigenvalues --  -19.05197 -18.96482 -14.21472 -14.21180 -10.14745
  Beta  occ. eigenvalues --  -10.13042 -10.12344 -10.10721 -10.10478 -10.10092
  Beta  occ. eigenvalues --  -10.08572 -10.08336 -10.08243 -10.07039 -10.06770
  Beta  occ. eigenvalues --  -10.06741 -10.06524 -10.05889  -0.97089  -0.91533
  Beta  occ. eigenvalues --   -0.84675  -0.78738  -0.76283  -0.74683  -0.67486
  Beta  occ. eigenvalues --   -0.64463  -0.63328  -0.63001  -0.57663  -0.52342
  Beta  occ. eigenvalues --   -0.51780  -0.49863  -0.48014  -0.47308  -0.46357
  Beta  occ. eigenvalues --   -0.44334  -0.42944  -0.42552  -0.39419  -0.38769
  Beta  occ. eigenvalues --   -0.37082  -0.35779  -0.35547  -0.34806  -0.33871
  Beta  occ. eigenvalues --   -0.32181  -0.32031  -0.31479  -0.30623  -0.29656
  Beta  occ. eigenvalues --   -0.29429  -0.27663  -0.27480  -0.26563  -0.26281
  Beta  occ. eigenvalues --   -0.26170  -0.25701  -0.22717  -0.21557  -0.19915
  Beta  occ. eigenvalues --   -0.19019  -0.16345  -0.15179  -0.14090  -0.12771
  Beta  occ. eigenvalues --   -0.11738
  Beta virt. eigenvalues --    0.06160   0.07022   0.07226   0.07735   0.07916
  Beta virt. eigenvalues --    0.08348   0.08939   0.09251   0.09359   0.09875
  Beta virt. eigenvalues --    0.09985   0.10949   0.11532   0.11923   0.12386

 Mulliken charges and spin densities:
               1          2
     1  C    0.094127  -0.771473
     2  C   -0.364758   0.634537
     3  C   -0.134900   0.146996
     4  C    0.039002  -0.480911
     5  N    0.061524   0.136904
     6  C   -0.076814  -0.554268
     7  C    0.142414  -1.105371
     8  C   -0.179664   0.350274
     9  O   -0.028895   0.016745
    10  C    0.314887  -0.400013
    11  C    0.064367   0.010556
    12  C   -0.319692   0.228421
    13  C    0.576681   0.245219
    14  C   -0.735802   0.258680
    15  C   -0.104099  -0.375184
    16  C    0.159105  -0.302757
    17  O   -0.385155   0.044534
    18  N   -0.295142  -0.070194
    19  H   -0.017727   0.149342
    20  H    0.017076   0.100877
    21  H    0.020395   0.213915
    22  H    0.004750   0.220977
    23  H    0.019231   0.158826
    24  H   -0.274287   0.413555
    25  H    0.074828   0.099628
    26  H    0.205421  -0.059020
    27  H    0.157956   0.018068
    28  H   -0.290570   0.479476
    29  H   -0.082146   0.244317
    30  H    0.244730  -0.136695
    31  H   -0.126444   0.289451
    32  H    0.194410   0.008051
    33  H    0.064149   0.072939
    34  H   -0.000771   0.150685
    35  H   -0.192167   0.420612
    36  H    0.153979   0.142301
 Sum of Mulliken charges =  -1.00000   1.00000

 Dipole moment (field-independent basis, Debye):
    X=             -4.8835    Y=              0.4814    Z=              2.5177  Tot=              5.5153
 Quadrupole moment (field-independent basis, Debye-Ang):
   XX=           -208.0120   YY=           -142.7659   ZZ=           -133.0671
   XY=             -5.7882   XZ=              1.8735   YZ=             -3.9224

 Summary of Natural Population Analysis:

                                       Natural Population
                Natural  -----------------------------------------------
    Atom  No    Charge         Core      Valence    Rydberg      Total
 -----------------------------------------------------------------------
      C    1   -0.19341      0.99960     2.18556    0.00825     3.19341
      C    2   -0.12458      0.99958     2.11462    0.01038     3.12458
      C    3   -0.12569      0.99958     2.11653    0.00958     3.12569
      C    4   -0.09181      0.99961     2.08035    0.01185     3.09181
      N    5   -0.28046      0.99975     2.76706    0.01365     3.78046
      C    6   -0.08796      0.99961     2.07845    0.00991     3.08796
      C    7   -0.09044      0.99960     2.07726    0.01358     3.09044
      C    8   -0.02418      0.99956     2.01302    0.01160     3.02418
      O    9   -0.27848      0.99985     3.26847    0.01016     4.27848
      C   10    0.19345      0.99939     1.79496    0.01221     2.80655
      C   11   -0.15533      0.99952     2.14774    0.00807     3.15533
      C   12   -0.05718      0.99954     2.04849    0.00914     3.05718
      C   13   -0.07495      0.99946     2.06535    0.01014     3.07495
      C   14   -0.07012      0.99954     2.06115    0.00942     3.07012
      C   15   -0.13809      0.99953     2.12871    0.00985     3.13809
      C   16    0.34651      0.99965     1.63067    0.02316     2.65349
      O   17   -0.31629      0.99988     3.31100    0.00541     4.31629
      N   18   -0.40930      0.99972     2.90130    0.00828     3.90930
      H   19    0.10445      0.00000     0.39466    0.00088     0.39555
      H   20    0.09564      0.00000     0.40308    0.00128     0.40436
      H   21    0.11450      0.00000     0.38387    0.00163     0.38550
      H   22    0.10848      0.00000     0.39031    0.00120     0.39152
      H   23    0.09317      0.00000     0.40552    0.00132     0.40683
      H   24    0.10083      0.00000     0.39795    0.00122     0.39917
      H   25    0.08916      0.00000     0.40963    0.00121     0.41084
      H   26    0.10550      0.00000     0.39337    0.00113     0.39450
      H   27    0.09738      0.00000     0.40147    0.00115     0.40262
      H   28    0.09883      0.00000     0.39987    0.00130     0.40117
      H   29    0.08766      0.00000     0.41082    0.00152     0.41234
      H   30    0.08675      0.00000     0.41083    0.00242     0.41325
      H   31    0.10318      0.00000     0.39577    0.00105     0.39682
      H   32    0.11030      0.00000     0.38871    0.00099     0.38970
      H   33    0.09926      0.00000     0.39970    0.00105     0.40074
      H   34    0.10215      0.00000     0.39638    0.00147     0.39785
      H   35    0.19173      0.00000     0.30410    0.00416     0.30827
      H   36    0.18934      0.00000     0.30870    0.00197     0.31066
 =======================================================================
   * Total *    0.00000     17.99298    47.78543    0.22159    66.00000

 Normal termination of Gaussian 16 at Fri Dec 11 19:51:43 2020.
