 Gaussian 16, Revision A.03,

 -----------------------------------------------------------
 # opt freq B3LYP/6-31G(d) empiricaldispersion=gd3bj scf=xqc
 -----------------------------------------------------------

 -------------------------------
 CID_134095665_JID_7013_neutraal
 -------------------------------
 Symbolic Z-matrix:
 Charge =  0 Multiplicity = 1

 SCF Done:  E(RB3LYP) =  -762.576502790     A.U. after   15 cycles
 SCF Done:  E(RB3LYP) =  -762.587811900     A.U. after   13 cycles
 SCF Done:  E(RB3LYP) =  -762.589379547     A.U. after   14 cycles
 SCF Done:  E(RB3LYP) =  -762.590195064     A.U. after   13 cycles
 SCF Done:  E(RB3LYP) =  -762.590661025     A.U. after   12 cycles
 SCF Done:  E(RB3LYP) =  -762.590933895     A.U. after   12 cycles
 SCF Done:  E(RB3LYP) =  -762.591047821     A.U. after   11 cycles
 SCF Done:  E(RB3LYP) =  -762.591089722     A.U. after   11 cycles
 SCF Done:  E(RB3LYP) =  -762.591101511     A.U. after   10 cycles
 SCF Done:  E(RB3LYP) =  -762.591103014     A.U. after    8 cycles
 SCF Done:  E(RB3LYP) =  -762.591103653     A.U. after    8 cycles
 SCF Done:  E(RB3LYP) =  -762.591103881     A.U. after    8 cycles
 SCF Done:  E(RB3LYP) =  -762.591103919     A.U. after    7 cycles
 Optimization completed.
    -- Stationary point found.
 Normal termination of Gaussian 16 at Sun Dec 13 20:05:48 2020.

 --------------------------------------------------------------------
 #N Geom=AllCheck Guess=TCheck SCRF=Check GenChk RB3LYP/6-31G(d) Freq
 --------------------------------------------------------------------

 Structure from the checkpoint file:  "JID_7013.chk"
 -------------------------------
 CID_134095665_JID_7013_neutraal
 -------------------------------
 Charge =  0 Multiplicity = 1

 SCF Done:  E(RB3LYP) =  -762.591103919     A.U. after    1 cycles

  Exact polarizability: 219.353   0.256 148.986   0.657 -13.173  89.359
 Approx polarizability: 291.540 -10.979 275.554   3.421 -31.512 145.887

                      1                      2                      3
                      A                      A                      A
 Frequencies --     42.8932                59.4289                88.0664
 Red. masses --      6.0443                 4.1277                 3.7106
 Frc consts  --      0.0066                 0.0086                 0.0170
 IR Inten    --      0.2148                 4.4084                 3.1149

                      4                      5                      6
                      A                      A                      A
 Frequencies --     98.3874               119.9861               146.0387
 Red. masses --      4.5106                 2.2721                 3.9530
 Frc consts  --      0.0257                 0.0193                 0.0497
 IR Inten    --      0.6310                 1.1671                 3.1976

                      7                      8                      9
                      A                      A                      A
 Frequencies --    177.5297               199.4203               216.9428
 Red. masses --      1.8178                 1.5873                 6.9578
 Frc consts  --      0.0338                 0.0372                 0.1929
 IR Inten    --      0.2216                 0.3112                 1.9150

                     10                     11                     12
                      A                      A                      A
 Frequencies --    262.5885               277.8924               299.7298
 Red. masses --      3.9133                 5.5594                 5.3732
 Frc consts  --      0.1590                 0.2529                 0.2844
 IR Inten    --      5.1895                 0.1113                13.1655

                     13                     14                     15
                      A                      A                      A
 Frequencies --    336.3581               420.9838               426.1350
 Red. masses --      5.0112                 3.2371                 5.6528
 Frc consts  --      0.3340                 0.3380                 0.6048
 IR Inten    --      4.6203                 0.6692                10.6721

                     16                     17                     18
                      A                      A                      A
 Frequencies --    478.0965               513.5395               550.0893
 Red. masses --      6.4341                 3.3453                 4.1838
 Frc consts  --      0.8665                 0.5198                 0.7459
 IR Inten    --      7.6863                 7.1708                 1.3606

                     19                     20                     21
                      A                      A                      A
 Frequencies --    558.3255               592.9572               620.5505
 Red. masses --      3.5196                 3.6177                 6.1720
 Frc consts  --      0.6464                 0.7494                 1.4003
 IR Inten    --      2.6768                10.4974                39.8983

                     22                     23                     24
                      A                      A                      A
 Frequencies --    633.3101               635.4922               697.4327
 Red. masses --      6.3027                 6.5886                 5.2320
 Frc consts  --      1.4894                 1.5677                 1.4994
 IR Inten    --     23.4868                 7.0999                 3.5241

                     25                     26                     27
                      A                      A                      A
 Frequencies --    700.9943               717.5106               745.8315
 Red. masses --      4.1716                 2.6191                 3.7610
 Frc consts  --      1.2077                 0.7944                 1.2326
 IR Inten    --     11.2989                34.1640                 9.3985

                     28                     29                     30
                      A                      A                      A
 Frequencies --    774.0347               805.8600               847.2975
 Red. masses --      2.1011                 5.5833                 1.2496
 Frc consts  --      0.7417                 2.1363                 0.5286
 IR Inten    --     37.3522                 4.3992                 0.4957

                     31                     32                     33
                      A                      A                      A
 Frequencies --    849.7191               915.6104               964.3133
 Red. masses --      1.7074                 1.4119                 1.4501
 Frc consts  --      0.7263                 0.6974                 0.7945
 IR Inten    --     10.5312                 2.1271                 2.8037

                     34                     35                     36
                      A                      A                      A
 Frequencies --    968.8406               982.5324               991.2428
 Red. masses --      4.9330                 2.6124                 1.2488
 Frc consts  --      2.7281                 1.4859                 0.7230
 IR Inten    --     14.4146                 1.5238                 0.1748

                     37                     38                     39
                      A                      A                      A
 Frequencies --   1007.1542              1019.8940              1021.6402
 Red. masses --      6.0094                 2.1921                 5.9693
 Frc consts  --      3.5915                 1.3435                 3.6709
 IR Inten    --     37.3270                 1.8873                 0.8205

                     40                     41                     42
                      A                      A                      A
 Frequencies --   1053.1477              1057.6962              1076.0213
 Red. masses --      3.3585                 4.4945                 2.3621
 Frc consts  --      2.1947                 2.9625                 1.6114
 IR Inten    --     42.2983                11.4043                 2.5122

                     43                     44                     45
                      A                      A                      A
 Frequencies --   1120.1784              1162.9266              1171.7737
 Red. masses --      1.5812                 1.3984                 1.2124
 Frc consts  --      1.1690                 1.1143                 0.9808
 IR Inten    --     11.0377                65.0482                 0.7322

                     46                     47                     48
                      A                      A                      A
 Frequencies --   1182.4815              1194.3485              1211.5498
 Red. masses --      1.8281                 1.0944                 1.1451
 Frc consts  --      1.5060                 0.9198                 0.9903
 IR Inten    --      5.5791                 0.1910                 0.1847

                     49                     50                     51
                      A                      A                      A
 Frequencies --   1237.6791              1244.4733              1277.3333
 Red. masses --      4.7440                 1.1232                 1.5411
 Frc consts  --      4.2816                 1.0249                 1.4814
 IR Inten    --     21.2744                 0.7522                 2.3160

                     52                     53                     54
                      A                      A                      A
 Frequencies --   1314.7797              1343.9867              1360.7669
 Red. masses --      1.8519                 3.1573                 2.9603
 Frc consts  --      1.8861                 3.3601                 3.2296
 IR Inten    --     89.0489                56.6115                14.5123

                     55                     56                     57
                      A                      A                      A
 Frequencies --   1369.0138              1389.3427              1463.7267
 Red. masses --      2.0922                 8.6217                 1.3436
 Frc consts  --      2.3103                 9.8053                 1.6961
 IR Inten    --      0.9029               166.0379                62.9829

                     58                     59                     60
                      A                      A                      A
 Frequencies --   1485.8484              1501.5789              1505.0359
 Red. masses --      1.0894                 1.3498                 1.8764
 Frc consts  --      1.4170                 1.7931                 2.5042
 IR Inten    --      0.9009                26.4601                 5.0289

                     61                     62                     63
                      A                      A                      A
 Frequencies --   1510.2045              1523.0933              1546.2806
 Red. masses --      1.1740                 1.4711                 2.2887
 Frc consts  --      1.5775                 2.0107                 3.2242
 IR Inten    --     33.7424                95.6866                91.4641

                     64                     65                     66
                      A                      A                      A
 Frequencies --   1558.0381              1626.2625              1648.0110
 Red. masses --      1.5404                 8.0190                 6.0470
 Frc consts  --      2.2031                12.4955                 9.6763
 IR Inten    --     51.8140               174.5360                 9.0592

                     67                     68                     69
                      A                      A                      A
 Frequencies --   1662.8044              1807.7429              1847.5498
 Red. masses --      5.5998                12.9181                12.8475
 Frc consts  --      9.1224                24.8727                25.8382
 IR Inten    --     31.5862               185.7901               551.8006

                     70                     71                     72
                      A                      A                      A
 Frequencies --   3055.5913              3057.1825              3087.4243
 Red. masses --      1.0467                 1.0558                 1.0708
 Frc consts  --      5.7581                 5.8141                 6.0138
 IR Inten    --     14.9703                45.0387                11.7552

                     73                     74                     75
                      A                      A                      A
 Frequencies --   3092.7792              3133.6440              3143.4298
 Red. masses --      1.0932                 1.1043                 1.0949
 Frc consts  --      6.1609                 6.3889                 6.3743
 IR Inten    --      9.9062                 9.2548                10.3636

                     76                     77                     78
                      A                      A                      A
 Frequencies --   3177.2199              3188.7429              3198.7602
 Red. masses --      1.1049                 1.0855                 1.0895
 Frc consts  --      6.5716                 6.5031                 6.5683
 IR Inten    --      8.5764                 1.6967                13.9333

                     79                     80                     81
                      A                      A                      A
 Frequencies --   3211.1194              3218.0311              3253.4648
 Red. masses --      1.0931                 1.0960                 1.0931
 Frc consts  --      6.6408                 6.6871                 6.8174
 IR Inten    --     31.1112                 9.4589                 0.4372

 - Thermochemistry -
 -------------------
 Temperature   298.150 Kelvin.  Pressure   1.00000 Atm.
 Atom     1 has atomic number  6 and mass  12.00000

 Molecular mass:   228.08988 amu.
 Principal axes and moments of inertia in atomic units:
                           1         2         3
     Eigenvalues --  1635.486456039.302407179.64888
           X            0.99985   0.01731   0.00102
           Y           -0.01731   0.99985  -0.00139
           Z           -0.00104   0.00138   1.00000
 This molecule is an asymmetric top.
 Rotational symmetry number  1.
 Warning -- assumption of classical behavior for rotation
           may cause significant error
 Rotational temperatures (Kelvin)      0.05296     0.01434     0.01206
 Rotational constants (GHZ):           1.10349     0.29883     0.25137
 Zero-point vibrational energy     604327.8 (Joules/Mol)
                                  144.43781 (Kcal/Mol)
 Warning -- explicit consideration of  21 degrees of freedom as
           vibrations may cause significant error
 Vibrational temperatures:     61.71    85.50   126.71   141.56   172.63
          (Kelvin)            210.12   255.43   286.92   312.13   377.81
                              399.83   431.24   483.94   605.70   613.11
                              687.87   738.87   791.46   803.31   853.13
                              892.83   911.19   914.33  1003.45  1008.57
                             1032.34  1073.09  1113.66  1159.45  1219.07
                             1222.56  1317.36  1387.43  1393.95  1413.64
                             1426.18  1449.07  1467.40  1469.91  1515.24
                             1521.79  1548.15  1611.69  1673.19  1685.92
                             1701.33  1718.40  1743.15  1780.74  1790.52
                             1837.80  1891.67  1933.70  1957.84  1969.71
                             1998.95  2105.98  2137.80  2160.44  2165.41
                             2172.85  2191.39  2224.75  2241.67  2339.83
                             2371.12  2392.40  2600.94  2658.21  4396.31
                             4398.60  4442.12  4449.82  4508.61  4522.69
                             4571.31  4587.89  4602.30  4620.08  4630.03
                             4681.01

 Zero-point correction=                           0.230176 (Hartree/Particle)
 Thermal correction to Energy=                    0.244295
 Thermal correction to Enthalpy=                  0.245239
 Thermal correction to Gibbs Free Energy=         0.188640
 Sum of electronic and zero-point Energies=           -762.360928
 Sum of electronic and thermal Energies=              -762.346809
 Sum of electronic and thermal Enthalpies=            -762.345865
 Sum of electronic and thermal Free Energies=         -762.402464

                     E (Thermal)             CV                S
                      KCal/Mol        Cal/Mol-Kelvin    Cal/Mol-Kelvin
 Total                  153.297             54.529            119.123
 Electronic               0.000              0.000              0.000
 Translational            0.889              2.981             42.176
 Rotational               0.889              2.981             32.628
 Vibrational            151.520             48.567             44.319
 Vibration     1          0.595              1.980              5.121
 Vibration     2          0.597              1.974              4.476
 Vibration     3          0.601              1.958              3.703
 Vibration     4          0.604              1.950              3.486
 Vibration     5          0.609              1.933              3.101
 Vibration     6          0.617              1.907              2.723
 Vibration     7          0.628              1.870              2.354
 Vibration     8          0.638              1.841              2.138
 Vibration     9          0.646              1.815              1.984
 Vibration    10          0.670              1.741              1.644
 Vibration    11          0.679              1.714              1.547
 Vibration    12          0.692              1.674              1.418
 Vibration    13          0.717              1.603              1.229
 Vibration    14          0.783              1.425              0.889
 Vibration    15          0.788              1.413              0.871
 Vibration    16          0.835              1.299              0.715
 Vibration    17          0.869              1.220              0.625
 Vibration    18          0.905              1.139              0.544
 Vibration    19          0.914              1.122              0.527
 Vibration    20          0.951              1.047              0.462
 Vibration    21          0.981              0.989              0.416

                           ! Non-Optimized Parameters !
 Normal termination of Gaussian 16 at Sun Dec 13 20:16:00 2020.

 ----------------------------------------------------------------------
 # B3LYP/6-311++G(d,p) empiricaldispersion=gd3bj scf=xqc pop=npa geom=c
 heck
 ----------------------------------------------------------------------

 ---------------------------------------
 CID_134095665_JID_7013_Energie_neutraal
 ---------------------------------------
 Structure from the checkpoint file:  "JID_7013.chk"
 Charge =  0 Multiplicity = 1

 SCF Done:  E(RB3LYP) =  -762.795756937     A.U. after   17 cycles
 Normal termination of Gaussian 16 at Sun Dec 13 20:21:09 2020.

 ----------------------------------------------------------------------
 # B3LYP/6-311++G(d,p) empiricaldispersion=gd3bj scf=xqc pop=npa geom=c
 heck
 ----------------------------------------------------------------------

 -------------------------------------
 CID_134095665_JID_7013_Energie_kation
 -------------------------------------
 Structure from the checkpoint file:  "JID_7013.chk"
 Charge =  1 Multiplicity = 2

 SCF Done:  E(UB3LYP) =  -762.503221363     A.U. after   27 cycles
 Normal termination of Gaussian 16 at Sun Dec 13 20:32:45 2020.
 Gaussian 16:  ES64L-G16RevA.03 25-Dec-2016

 ----------------------------------------------------------------------
 # B3LYP/6-311++G(d,p) empiricaldispersion=gd3bj scf=xqc pop=npa geom=c
 heck
 ----------------------------------------------------------------------

 ------------------------------------
 CID_134095665_JID_7013_Energie_anion
 ------------------------------------
 Structure from the checkpoint file:  "JID_7013.chk"
 Charge = -1 Multiplicity = 2

                         Standard orientation:
 ---------------------------------------------------------------------
 Center     Atomic      Atomic             Coordinates (Angstroms)
 Number     Number       Type             X           Y           Z
 ---------------------------------------------------------------------
      1          6           0       -0.022168    2.315848    1.047042
      2          7           0        0.352072    1.189291    0.193248
      3          6           0        1.648571    0.825743    0.015665
      4          6           0        1.807071   -0.527817   -0.049167
      5          6           0        3.214922   -0.864467   -0.273769
      6          8           0        3.754764   -1.947538   -0.361626
      7          6           0        3.959606    0.500899   -0.373291
      8          6           0        2.913195    1.619554   -0.102726
      9          6           0        0.510560   -1.156143    0.178477
     10          8           0        0.125124   -2.307278    0.192945
     11          7           0       -0.362309   -0.020983    0.399242
     12          6           0       -1.747055   -0.043717    0.096664
     13          6           0       -2.312881    0.889165   -0.780600
     14          6           0       -3.681045    0.846464   -1.044173
     15          6           0       -4.482018   -0.135176   -0.460376
     16          6           0       -3.905095   -1.075241    0.395685
     17          6           0       -2.544191   -1.029953    0.688895
     18          1           0        0.134904    2.078205    2.106083
     19          1           0       -1.071665    2.562573    0.882826
     20          1           0        0.593807    3.171148    0.761468
     21          1           0        4.784051    0.511988    0.345171
     22          1           0        4.401465    0.587317   -1.371016
     23          1           0        3.127927    2.174169    0.819065
     24          1           0        2.854876    2.355699   -0.912513
     25          1           0       -1.678753    1.623997   -1.265175
     26          1           0       -4.116109    1.575154   -1.722245
     27          1           0       -5.546150   -0.170007   -0.673537
     28          1           0       -4.519647   -1.847008    0.849833
     29          1           0       -2.088984   -1.753826    1.352101
 ---------------------------------------------------------------------

 SCF Done:  E(UB3LYP) =  -762.799872524     A.U. after   33 cycles
 SCF Done:  E(UB3LYP) =  -762.799872524     a.u. after    1 cycles

 The electronic state is 2-A.
 Alpha  occ. eigenvalues --  -18.97653 -18.97324 -14.27485 -14.26798 -10.15855
 Alpha  occ. eigenvalues --  -10.13314 -10.12148 -10.10417 -10.09274 -10.08555
 Alpha  occ. eigenvalues --  -10.08436 -10.08364 -10.08125 -10.07918 -10.07827
 Alpha  occ. eigenvalues --  -10.07289 -10.04572  -0.95240  -0.91211  -0.90539
 Alpha  occ. eigenvalues --   -0.78802  -0.74540  -0.72903  -0.67315  -0.65720
 Alpha  occ. eigenvalues --   -0.62505  -0.59735  -0.56194  -0.53450  -0.52131
 Alpha  occ. eigenvalues --   -0.48934  -0.46173  -0.42707  -0.42317  -0.39099
 Alpha  occ. eigenvalues --   -0.38657  -0.37347  -0.36579  -0.35371  -0.34254
 Alpha  occ. eigenvalues --   -0.33514  -0.32897  -0.31887  -0.31355  -0.31044
 Alpha  occ. eigenvalues --   -0.28917  -0.28800  -0.28142  -0.27814  -0.27415
 Alpha  occ. eigenvalues --   -0.26533  -0.25755  -0.24445  -0.23159  -0.19036
 Alpha  occ. eigenvalues --   -0.16661  -0.14970  -0.13737  -0.12645  -0.11031
 Alpha  occ. eigenvalues --    0.03725
 Alpha virt. eigenvalues --    0.06471   0.06668   0.07522   0.07786   0.08059
 Alpha virt. eigenvalues --    0.08351   0.08985   0.09539   0.09973   0.10828
 Alpha virt. eigenvalues --    0.11395   0.11775   0.12505   0.12787   0.13752

  Beta  occ. eigenvalues --  -18.97568 -18.97262 -14.27440 -14.26815 -10.15796
  Beta  occ. eigenvalues --  -10.13241 -10.12128 -10.10315 -10.08809 -10.08558
  Beta  occ. eigenvalues --  -10.08425 -10.08376 -10.08104 -10.07879 -10.07827
  Beta  occ. eigenvalues --  -10.07288 -10.04596  -0.95120  -0.91054  -0.90404
  Beta  occ. eigenvalues --   -0.78651  -0.74375  -0.72728  -0.67230  -0.65678
  Beta  occ. eigenvalues --   -0.62391  -0.59513  -0.56027  -0.53346  -0.52070
  Beta  occ. eigenvalues --   -0.48857  -0.45994  -0.42548  -0.42155  -0.38953
  Beta  occ. eigenvalues --   -0.38404  -0.37142  -0.36452  -0.35278  -0.34198
  Beta  occ. eigenvalues --   -0.33406  -0.32831  -0.31779  -0.31251  -0.30885
  Beta  occ. eigenvalues --   -0.28715  -0.28490  -0.27983  -0.27747  -0.27266
  Beta  occ. eigenvalues --   -0.26461  -0.25704  -0.23989  -0.22833  -0.18565
  Beta  occ. eigenvalues --   -0.16577  -0.14792  -0.13327  -0.12506  -0.10704
  Beta virt. eigenvalues --    0.06318   0.07118   0.07551   0.07825   0.08109
  Beta virt. eigenvalues --    0.08525   0.09197   0.09499   0.09851   0.10299
  Beta virt. eigenvalues --    0.11049   0.11721   0.12248   0.12599   0.13022

 Mulliken charges and spin densities:
               1          2
     1  C    0.993031  -1.288094
     2  N   -0.041192   0.264012
     3  C   -1.252048   0.439471
     4  C    1.250924   0.533979
     5  C   -0.756596   0.154201
     6  O   -0.338308   0.029203
     7  C   -0.064140  -0.144564
     8  C    0.981199  -1.499636
     9  C   -0.072667  -0.070063
    10  O   -0.347318   0.027281
    11  N    0.364344   0.062062
    12  C   -1.395399   0.155591
    13  C    1.446828  -0.578698
    14  C   -0.176937   0.054220
    15  C   -0.184998  -0.206849
    16  C    0.028531   0.012954
    17  C   -0.818758   0.388461
    18  H   -0.305747   0.495863
    19  H   -0.071369   0.214920
    20  H   -0.551212   0.713699
    21  H    0.089645   0.060356
    22  H    0.181266  -0.016132
    23  H    0.166150  -0.002568
    24  H   -0.397309   0.596168
    25  H   -0.048825   0.280969
    26  H   -0.061222   0.226226
    27  H    0.079676   0.040873
    28  H    0.133723   0.023739
    29  H    0.168728   0.032354
 Sum of Mulliken charges =  -1.00000   1.00000

 Dipole moment (field-independent basis, Debye):
    X=             -3.9554    Y=              1.1023    Z=              0.4781  Tot=              4.1339
 Quadrupole moment (field-independent basis, Debye-Ang):
   XX=           -142.8693   YY=           -151.6160   ZZ=           -118.3503
   XY=             11.8695   XZ=              2.5524   YZ=             -3.0052

 Summary of Natural Population Analysis:

                                       Natural Population
                Natural  -----------------------------------------------
    Atom  No    Charge         Core      Valence    Rydberg      Total
 -----------------------------------------------------------------------
      C    1   -0.17304      0.99962     2.16502    0.00839     3.17304
      N    2   -0.12957      0.99961     2.61704    0.01293     3.62957
      C    3    0.23275      0.99943     1.75660    0.01122     2.76725
      C    4   -0.16521      0.99926     2.15518    0.01077     3.16521
      C    5    0.28575      0.99962     1.69283    0.02179     2.71425
      O    6   -0.29188      0.99987     3.28559    0.00642     4.29188
      C    7   -0.22784      0.99962     2.21834    0.00988     3.22784
      C    8   -0.21420      0.99961     2.20743    0.00717     3.21420
      C    9    0.34317      0.99960     1.63450    0.02273     2.65683
      O   10   -0.30464      0.99987     3.29955    0.00522     4.30464
      N   11   -0.16667      0.99963     2.65519    0.01185     3.66667
      C   12    0.08347      0.99947     1.90440    0.01266     2.91653
      C   13   -0.11267      0.99952     2.10370    0.00945     3.11267
      C   14   -0.10205      0.99957     2.09223    0.01025     3.10205
      C   15   -0.11328      0.99957     2.10422    0.00949     3.11328
      C   16   -0.09948      0.99957     2.09048    0.00943     3.09948
      C   17   -0.10103      0.99952     2.09266    0.00885     3.10103
      H   18    0.09633      0.00000     0.40143    0.00224     0.40367
      H   19    0.10130      0.00000     0.39731    0.00139     0.39870
      H   20    0.10407      0.00000     0.39431    0.00162     0.39593
      H   21    0.10437      0.00000     0.39447    0.00116     0.39563
      H   22    0.10554      0.00000     0.39332    0.00113     0.39446
      H   23    0.10793      0.00000     0.39089    0.00118     0.39207
      H   24    0.11497      0.00000     0.38179    0.00324     0.38503
      H   25    0.11138      0.00000     0.38731    0.00131     0.38862
      H   26    0.09951      0.00000     0.39971    0.00078     0.40049
      H   27    0.09726      0.00000     0.40201    0.00074     0.40274
      H   28    0.09805      0.00000     0.40121    0.00074     0.40195
      H   29    0.11572      0.00000     0.38321    0.00106     0.38428
 =======================================================================
   * Total *   -0.00000     16.99296    42.80193    0.20510    60.00000

 Normal termination of Gaussian 16 at Sun Dec 13 20:46:27 2020.
