 Gaussian 16, Revision A.03,

 -----------------------------------------------------------
 # opt freq B3LYP/6-31G(d) empiricaldispersion=gd3bj scf=xqc
 -----------------------------------------------------------

 ------------------------------
 CID_60704222_JID_2814_neutraal
 ------------------------------
 Symbolic Z-matrix:
 Charge =  0 Multiplicity = 1

 SCF Done:  E(RB3LYP) =  -572.049689018     A.U. after   15 cycles
 SCF Done:  E(RB3LYP) =  -572.052587462     A.U. after   12 cycles
 SCF Done:  E(RB3LYP) =  -572.052613984     A.U. after   12 cycles
 SCF Done:  E(RB3LYP) =  -572.053023856     A.U. after   12 cycles
 SCF Done:  E(RB3LYP) =  -572.053232718     A.U. after   11 cycles
 SCF Done:  E(RB3LYP) =  -572.053336902     A.U. after   11 cycles
 SCF Done:  E(RB3LYP) =  -572.053435808     A.U. after   12 cycles
 SCF Done:  E(RB3LYP) =  -572.053500191     A.U. after   11 cycles
 SCF Done:  E(RB3LYP) =  -572.053535611     A.U. after   12 cycles
 SCF Done:  E(RB3LYP) =  -572.053580511     A.U. after   11 cycles
 SCF Done:  E(RB3LYP) =  -572.054748249     A.U. after   11 cycles
 SCF Done:  E(RB3LYP) =  -572.054761878     A.U. after   11 cycles
 SCF Done:  E(RB3LYP) =  -572.054764756     A.U. after   11 cycles
 SCF Done:  E(RB3LYP) =  -572.054765525     A.U. after    8 cycles
 SCF Done:  E(RB3LYP) =  -572.054765597     A.U. after    8 cycles
 SCF Done:  E(RB3LYP) =  -572.054765669     A.U. after    8 cycles
 Optimization completed.
    -- Stationary point found.
 Normal termination of Gaussian 16 at Wed Dec  9 18:33:31 2020.

 --------------------------------------------------------------------
 #N Geom=AllCheck Guess=TCheck SCRF=Check GenChk RB3LYP/6-31G(d) Freq
 --------------------------------------------------------------------

 Structure from the checkpoint file:  "JID_2814.chk"
 ------------------------------
 CID_60704222_JID_2814_neutraal
 ------------------------------
 Charge =  0 Multiplicity = 1

 SCF Done:  E(RB3LYP) =  -572.054765669     A.U. after    1 cycles

  Exact polarizability: 103.819 -13.834  91.307  -0.964  -0.509  90.208
 Approx polarizability: 134.305 -31.831 142.224  -6.626   4.657 145.726

                      1                      2                      3
                      A                      A                      A
 Frequencies --     17.5118                35.7451                59.1496
 Red. masses --      3.4941                 4.4191                 4.4608
 Frc consts  --      0.0006                 0.0033                 0.0092
 IR Inten    --      0.6515                 3.0745                 0.7615

                      4                      5                      6
                      A                      A                      A
 Frequencies --     87.8456               119.1469               192.9793
 Red. masses --      4.3394                 3.1358                 5.2225
 Frc consts  --      0.0197                 0.0262                 0.1146
 IR Inten    --      2.6660                 0.0760                 1.4257

                      7                      8                      9
                      A                      A                      A
 Frequencies --    236.5340               239.7237               250.9664
 Red. masses --      1.1338                 4.0859                 1.0532
 Frc consts  --      0.0374                 0.1383                 0.0391
 IR Inten    --      0.2711                 6.2714                 0.0092

                     10                     11                     12
                      A                      A                      A
 Frequencies --    349.1030               362.1911               403.9641
 Red. masses --      2.1562                 2.6722                 4.4859
 Frc consts  --      0.1548                 0.2065                 0.4313
 IR Inten    --      5.6162                 3.7751                 3.4317

                     13                     14                     15
                      A                      A                      A
 Frequencies --    418.9924               471.0129               589.8431
 Red. masses --      4.2815                 2.8370                 3.7187
 Frc consts  --      0.4429                 0.3708                 0.7623
 IR Inten    --      3.3340                 6.2970                11.6727

                     16                     17                     18
                      A                      A                      A
 Frequencies --    625.6161               665.5053               688.7451
 Red. masses --      3.4845                 4.6936                 3.7709
 Frc consts  --      0.8035                 1.2248                 1.0539
 IR Inten    --      5.1973                 8.0274                 4.5431

                     19                     20                     21
                      A                      A                      A
 Frequencies --    750.5304               774.4849               823.5790
 Red. masses --      1.2151                 5.4389                 1.5007
 Frc consts  --      0.4033                 1.9222                 0.5997
 IR Inten    --     45.2276                40.1967                 0.0817

                     22                     23                     24
                      A                      A                      A
 Frequencies --    834.5883               883.6697               899.2105
 Red. masses --      2.9849                 1.3028                 3.2601
 Frc consts  --      1.2250                 0.5994                 1.5531
 IR Inten    --      8.7969                 3.0641                 3.8945

                     25                     26                     27
                      A                      A                      A
 Frequencies --    942.4320               950.0991               959.0489
 Red. masses --      5.8632                 1.2170                 1.3852
 Frc consts  --      3.0682                 0.6472                 0.7506
 IR Inten    --      4.3175                 1.4097                 0.2887

                     28                     29                     30
                      A                      A                      A
 Frequencies --    967.1221               981.1741               998.9749
 Red. masses --      3.2266                 2.6859                 2.2750
 Frc consts  --      1.7781                 1.5234                 1.3377
 IR Inten    --     27.6627                12.4707                15.5237

                     31                     32                     33
                      A                      A                      A
 Frequencies --   1076.0394              1121.1233              1173.3398
 Red. masses --      1.4706                 1.8127                 2.1451
 Frc consts  --      1.0032                 1.3424                 1.7400
 IR Inten    --     22.1571                13.7437                 9.2132

                     34                     35                     36
                      A                      A                      A
 Frequencies --   1178.2543              1195.5556              1220.4954
 Red. masses --      1.9730                 1.5057                 1.9391
 Frc consts  --      1.6139                 1.2680                 1.7018
 IR Inten    --     92.9797                16.1918                 3.7227

                     37                     38                     39
                      A                      A                      A
 Frequencies --   1256.1777              1296.3757              1337.6565
 Red. masses --      1.6922                 3.7110                 2.7673
 Frc consts  --      1.5733                 3.6745                 2.9174
 IR Inten    --     48.1892               311.9081                14.3874

                     40                     41                     42
                      A                      A                      A
 Frequencies --   1375.1126              1392.2338              1393.2147
 Red. masses --      1.6647                 1.3109                 2.1872
 Frc consts  --      1.8547                 1.4971                 2.5013
 IR Inten    --     20.1325                 2.7330                 6.5005

                     43                     44                     45
                      A                      A                      A
 Frequencies --   1426.7120              1428.9277              1443.2728
 Red. masses --      1.3446                 1.3436                 1.2472
 Frc consts  --      1.6126                 1.6163                 1.5307
 IR Inten    --     23.2294                20.3957                19.7437

                     46                     47                     48
                      A                      A                      A
 Frequencies --   1445.6788              1479.1331              1502.3462
 Red. masses --      3.9863                 1.1266                 3.9557
 Frc consts  --      4.9087                 1.4522                 5.2604
 IR Inten    --     31.3953                 4.4723                13.3288

                     49                     50                     51
                      A                      A                      A
 Frequencies --   1510.6437              1521.9870              1529.7197
 Red. masses --      1.0486                 1.0498                 1.0489
 Frc consts  --      1.4099                 1.4328                 1.4461
 IR Inten    --      0.1469                15.3641                 0.0413

                     52                     53                     54
                      A                      A                      A
 Frequencies --   1549.4763              1575.9517              1822.9495
 Red. masses --      1.0549                 4.2191                11.2715
 Frc consts  --      1.4922                 6.1738                22.0690
 IR Inten    --      6.6096                21.2604               228.8269

                     55                     56                     57
                      A                      A                      A
 Frequencies --   3062.1397              3066.6419              3089.6957
 Red. masses --      1.0379                 1.0390                 1.0649
 Frc consts  --      5.7340                 5.7571                 5.9894
 IR Inten    --     19.2101                11.4908                12.2713

                     58                     59                     60
                      A                      A                      A
 Frequencies --   3091.4834              3125.2894              3131.2281
 Red. masses --      1.0857                 1.1020                 1.1018
 Frc consts  --      6.1133                 6.3416                 6.3648
 IR Inten    --     21.8260                20.0705                27.6763

                     61                     62                     63
                      A                      A                      A
 Frequencies --   3160.6489              3166.6897              3171.4687
 Red. masses --      1.0999                 1.1014                 1.1003
 Frc consts  --      6.4739                 6.5073                 6.5204
 IR Inten    --      1.6553                 1.9175                17.3800

                     64                     65                     66
                      A                      A                      A
 Frequencies --   3256.7377              3271.3583              3289.7018
 Red. masses --      1.0929                 1.0929                 1.1064
 Frc consts  --      6.8299                 6.8912                 7.0544
 IR Inten    --      6.6149                 3.3619                 2.1915

 - Thermochemistry -
 -------------------
 Temperature   298.150 Kelvin.  Pressure   1.00000 Atm.
 Atom     1 has atomic number  6 and mass  12.00000

 Molecular mass:   168.08988 amu.
 Principal axes and moments of inertia in atomic units:
                           1         2         3
     Eigenvalues --  1005.078203222.158443444.35495
           X            0.99990   0.01415  -0.00221
           Y           -0.01427   0.99767  -0.06671
           Z            0.00126   0.06674   0.99777
 This molecule is an asymmetric top.
 Rotational symmetry number  1.
 Warning -- assumption of classical behavior for rotation
           may cause significant error
 Rotational temperatures (Kelvin)      0.08618     0.02688     0.02515
 Rotational constants (GHZ):           1.79562     0.56010     0.52397
 Zero-point vibrational energy     524651.9 (Joules/Mol)
                                  125.39482 (Kcal/Mol)
 Warning -- explicit consideration of  15 degrees of freedom as
           vibrations may cause significant error
 Vibrational temperatures:     25.20    51.43    85.10   126.39   171.43
          (Kelvin)            277.65   340.32   344.91   361.08   502.28
                              521.11   581.21   602.84   677.68   848.65
                              900.12   957.51   990.95  1079.85  1114.31
                             1184.95  1200.79  1271.40  1293.76  1355.95
                             1366.98  1379.86  1391.47  1411.69  1437.30
                             1548.18  1613.05  1688.17  1695.25  1720.14
                             1756.02  1807.36  1865.20  1924.59  1978.48
                             2003.11  2004.53  2052.72  2055.91  2076.55
                             2080.01  2128.14  2161.54  2173.48  2189.80
                             2200.93  2229.35  2267.44  2622.82  4405.74
                             4412.21  4445.38  4447.96  4496.59  4505.14
                             4547.47  4556.16  4563.04  4685.72  4706.75
                             4733.15

 Zero-point correction=                           0.199829 (Hartree/Particle)
 Thermal correction to Energy=                    0.211799
 Thermal correction to Enthalpy=                  0.212743
 Thermal correction to Gibbs Free Energy=         0.159496
 Sum of electronic and zero-point Energies=           -571.854936
 Sum of electronic and thermal Energies=              -571.842967
 Sum of electronic and thermal Enthalpies=            -571.842023
 Sum of electronic and thermal Free Energies=         -571.895269

                     E (Thermal)             CV                S
                      KCal/Mol        Cal/Mol-Kelvin    Cal/Mol-Kelvin
 Total                  132.906             43.310            112.067
 Electronic               0.000              0.000              0.000
 Translational            0.889              2.981             41.266
 Rotational               0.889              2.981             30.790
 Vibrational            131.128             37.348             40.011
 Vibration     1          0.593              1.986              6.898
 Vibration     2          0.594              1.982              5.482
 Vibration     3          0.597              1.974              4.485
 Vibration     4          0.601              1.958              3.707
 Vibration     5          0.609              1.933              3.114
 Vibration     6          0.635              1.850              2.199
 Vibration     7          0.655              1.785              1.829
 Vibration     8          0.657              1.780              1.805
 Vibration     9          0.663              1.761              1.724
 Vibration    10          0.726              1.577              1.170
 Vibration    11          0.736              1.550              1.113
 Vibration    12          0.769              1.462              0.948
 Vibration    13          0.782              1.429              0.895
 Vibration    14          0.828              1.314              0.735
 Vibration    15          0.947              1.053              0.467

                           ! Non-Optimized Parameters !
 Normal termination of Gaussian 16 at Wed Dec  9 18:38:19 2020.

 ----------------------------------------------------------------------
 # B3LYP/6-311++G(d,p) empiricaldispersion=gd3bj scf=xqc pop=npa geom=c
 heck
 ----------------------------------------------------------------------

 --------------------------------------
 CID_60704222_JID_2814_Energie_neutraal
 --------------------------------------
 Structure from the checkpoint file:  "JID_2814.chk"
 Charge =  0 Multiplicity = 1

 SCF Done:  E(RB3LYP) =  -572.218725382     A.U. after   14 cycles
 Normal termination of Gaussian 16 at Wed Dec  9 18:39:56 2020.

 ----------------------------------------------------------------------
 # B3LYP/6-311++G(d,p) empiricaldispersion=gd3bj scf=xqc pop=npa geom=c
 heck
 ----------------------------------------------------------------------

 ------------------------------------
 CID_60704222_JID_2814_Energie_kation
 ------------------------------------
 Structure from the checkpoint file:  "JID_2814.chk"
 Charge =  1 Multiplicity = 2

 SCF Done:  E(UB3LYP) =  -571.894573183     A.U. after   24 cycles
 Normal termination of Gaussian 16 at Wed Dec  9 18:43:32 2020.
 Gaussian 16:  ES64L-G16RevA.03 25-Dec-2016

 ----------------------------------------------------------------------
 # B3LYP/6-311++G(d,p) empiricaldispersion=gd3bj scf=xqc pop=npa geom=c
 heck
 ----------------------------------------------------------------------

 -----------------------------------
 CID_60704222_JID_2814_Energie_anion
 -----------------------------------
 Structure from the checkpoint file:  "JID_2814.chk"
 Charge = -1 Multiplicity = 2

                         Standard orientation:
 ---------------------------------------------------------------------
 Center     Atomic      Atomic             Coordinates (Angstroms)
 Number     Number       Type             X           Y           Z
 ---------------------------------------------------------------------
      1          6           0        3.173659    0.352458    1.129472
      2          6           0        2.088361    0.986402    0.266595
      3          6           0        2.493305    1.214898   -1.185047
      4          8           0        0.833549    0.235513    0.348997
      5          6           0        0.764657   -1.009016   -0.130571
      6          8           0        1.676431   -1.662543   -0.589597
      7          6           0       -0.647201   -1.584843    0.007124
      8          7           0       -1.698255   -0.599833    0.051436
      9          6           0       -2.267616   -0.026546    1.145848
     10          6           0       -3.104290    0.968823    0.682252
     11          6           0       -2.954904    0.927057   -0.723024
     12          7           0       -2.096360   -0.017158   -1.104875
     13          1           0        3.507450   -0.596776    0.706959
     14          1           0        2.803679    0.180367    2.145594
     15          1           0        4.029843    1.033445    1.190193
     16          1           0        1.789934    1.941048    0.709069
     17          1           0        2.824895    0.286253   -1.653188
     18          1           0        1.650534    1.619351   -1.754271
     19          1           0        3.313401    1.940491   -1.221215
     20          1           0       -0.814221   -2.247046   -0.843617
     21          1           0       -0.684494   -2.186518    0.921324
     22          1           0       -2.035546   -0.368189    2.144242
     23          1           0       -3.736128    1.619226    1.268975
     24          1           0       -3.442709    1.538127   -1.471091
 ---------------------------------------------------------------------

 SCF Done:  E(UB3LYP) =  -572.205177057     A.U. after   30 cycles

 The electronic state is 2-A.
 Alpha  occ. eigenvalues --  -19.06780 -19.01385 -14.29412 -14.23172 -10.20709
 Alpha  occ. eigenvalues --  -10.13751 -10.12950 -10.10735 -10.09469 -10.06930
 Alpha  occ. eigenvalues --  -10.06538 -10.05895  -1.00956  -0.95472  -0.92602
 Alpha  occ. eigenvalues --   -0.75582  -0.69925  -0.68891  -0.62537  -0.59688
 Alpha  occ. eigenvalues --   -0.55188  -0.50948  -0.48678  -0.44692  -0.42903
 Alpha  occ. eigenvalues --   -0.40836  -0.38803  -0.37398  -0.36510  -0.35156
 Alpha  occ. eigenvalues --   -0.34094  -0.32584  -0.31713  -0.31191  -0.30711
 Alpha  occ. eigenvalues --   -0.29745  -0.28039  -0.26702  -0.25803  -0.24163
 Alpha  occ. eigenvalues --   -0.20929  -0.20201  -0.19035  -0.15702  -0.15158
 Alpha  occ. eigenvalues --    0.04539
 Alpha virt. eigenvalues --    0.06628   0.07310   0.08482   0.08908   0.09523
 Alpha virt. eigenvalues --    0.09578   0.09743   0.10514   0.10887   0.11580
 Alpha virt. eigenvalues --    0.12744   0.13097   0.13815   0.13972   0.14639

  Beta  occ. eigenvalues --  -19.06775 -19.01367 -14.29414 -14.23165 -10.20678
  Beta  occ. eigenvalues --  -10.13737 -10.12924 -10.10703 -10.09466 -10.06920
  Beta  occ. eigenvalues --  -10.06520 -10.05854  -1.00923  -0.95461  -0.92574
  Beta  occ. eigenvalues --   -0.75561  -0.69887  -0.68858  -0.62487  -0.59630
  Beta  occ. eigenvalues --   -0.55142  -0.50922  -0.48630  -0.44624  -0.42835
  Beta  occ. eigenvalues --   -0.40792  -0.38728  -0.37345  -0.36472  -0.35117
  Beta  occ. eigenvalues --   -0.34053  -0.32537  -0.31676  -0.31158  -0.30669
  Beta  occ. eigenvalues --   -0.29711  -0.27984  -0.26669  -0.25750  -0.24127
  Beta  occ. eigenvalues --   -0.20881  -0.20191  -0.19015  -0.15682  -0.15141
  Beta virt. eigenvalues --    0.07021   0.07665   0.08162   0.08817   0.09289
  Beta virt. eigenvalues --    0.09828   0.10020   0.10197   0.10971   0.11465
  Beta virt. eigenvalues --    0.12253   0.13046   0.13432   0.13898   0.14105

 Mulliken charges and spin densities:
               1          2
     1  C    1.305982  -1.755953
     2  C   -1.154074   1.123899
     3  C    0.465697  -0.884149
     4  O    0.124666  -0.003307
     5  C   -0.456778   0.489526
     6  O   -0.266521   0.026173
     7  C    1.030565  -1.578333
     8  N    0.316335   0.044386
     9  C    0.609410  -0.941575
    10  C    0.141086  -0.076800
    11  C    0.453614  -0.752065
    12  N   -0.525348   0.225890
    13  H   -0.081471   0.249684
    14  H   -0.193196   0.346586
    15  H   -0.393986   0.549902
    16  H   -0.502938   0.700826
    17  H    0.070401   0.100025
    18  H    0.101175   0.031407
    19  H   -0.248805   0.405152
    20  H    0.131176   0.080452
    21  H   -0.580047   0.823203
    22  H   -1.000264   1.159884
    23  H   -0.424428   0.591508
    24  H    0.077748   0.043681
 Sum of Mulliken charges =  -1.00000   1.00000

 Dipole moment (field-independent basis, Debye):
    X=             -2.0669    Y=             -0.0963    Z=             -5.3444  Tot=              5.7310
 Quadrupole moment (field-independent basis, Debye-Ang):
   XX=           -131.3041   YY=           -108.9819   ZZ=           -114.8057
   XY=             -7.2697   XZ=              1.7492   YZ=              0.8002

 Summary of Natural Population Analysis:

                                       Natural Population
                Natural  -----------------------------------------------
    Atom  No    Charge         Core      Valence    Rydberg      Total
 -----------------------------------------------------------------------
      C    1   -0.30082      0.99964     2.29526    0.00592     3.30082
      C    2    0.06454      0.99955     1.92249    0.01342     2.93546
      C    3   -0.30118      0.99964     2.29571    0.00583     3.30118
      O    4   -0.27975      0.99986     3.26918    0.01071     4.27975
      C    5    0.41170      0.99970     1.56281    0.02578     2.58830
      O    6   -0.30864      0.99987     3.30346    0.00531     4.30864
      C    7   -0.12621      0.99956     2.11388    0.01277     3.12621
      N    8   -0.10948      0.99966     2.59480    0.01502     3.60948
      C    9    0.00665      0.99955     1.98128    0.01252     2.99335
      C   10   -0.16664      0.99957     2.15756    0.00951     3.16664
      C   11   -0.01476      0.99963     2.00119    0.01393     3.01476
      N   12   -0.15527      0.99973     2.64468    0.01085     3.65527
      H   13    0.10833      0.00000     0.39060    0.00107     0.39167
      H   14    0.10657      0.00000     0.39173    0.00170     0.39343
      H   15    0.10440      0.00000     0.39370    0.00190     0.39560
      H   16    0.09438      0.00000     0.40377    0.00185     0.40562
      H   17    0.10804      0.00000     0.39104    0.00092     0.39196
      H   18    0.10366      0.00000     0.39531    0.00102     0.39634
      H   19    0.10396      0.00000     0.39505    0.00099     0.39604
      H   20    0.11510      0.00000     0.38360    0.00130     0.38490
      H   21    0.11981      0.00000     0.37713    0.00306     0.38019
      H   22    0.11150      0.00000     0.38314    0.00536     0.38850
      H   23    0.10894      0.00000     0.39015    0.00091     0.39106
      H   24    0.09515      0.00000     0.40404    0.00081     0.40485
 =======================================================================
   * Total *    0.00000     11.99595    32.84160    0.16245    45.00000

 Normal termination of Gaussian 16 at Wed Dec  9 18:47:59 2020.
