 Gaussian 16, Revision A.03,

 -----------------------------------------------------------
 # opt freq B3LYP/6-31G(d) empiricaldispersion=gd3bj scf=xqc
 -----------------------------------------------------------

 --------------------------------
 CID_112725893_JID_10043_neutraal
 --------------------------------
 Symbolic Z-matrix:
 Charge =  0 Multiplicity = 1

 SCF Done:  E(RB3LYP) =  -1290.08290983     A.U. after   16 cycles
 SCF Done:  E(RB3LYP) =  -1290.08851719     A.U. after   14 cycles
 SCF Done:  E(RB3LYP) =  -1290.08891930     A.U. after   14 cycles
 SCF Done:  E(RB3LYP) =  -1290.08449081     A.U. after   15 cycles
 SCF Done:  E(RB3LYP) =  -1290.09033076     A.U. after   13 cycles
 SCF Done:  E(RB3LYP) =  -1290.09092223     A.U. after   15 cycles
 SCF Done:  E(RB3LYP) =  -1290.09108292     A.U. after   14 cycles
 SCF Done:  E(RB3LYP) =  -1290.09119832     A.U. after   13 cycles
 SCF Done:  E(RB3LYP) =  -1290.09125840     A.U. after   12 cycles
 SCF Done:  E(RB3LYP) =  -1290.09127515     A.U. after   11 cycles
 SCF Done:  E(RB3LYP) =  -1290.09128734     A.U. after   11 cycles
 SCF Done:  E(RB3LYP) =  -1290.09129081     A.U. after   12 cycles
 SCF Done:  E(RB3LYP) =  -1290.09129125     A.U. after    9 cycles
 SCF Done:  E(RB3LYP) =  -1290.09129127     A.U. after    8 cycles
 Optimization completed.
    -- Stationary point found.
 Normal termination of Gaussian 16 at Sat Dec 12 14:54:20 2020.

 --------------------------------------------------------------------
 #N Geom=AllCheck Guess=TCheck SCRF=Check GenChk RB3LYP/6-31G(d) Freq
 --------------------------------------------------------------------

 Structure from the checkpoint file:  "JID_10043.chk"
 --------------------------------
 CID_112725893_JID_10043_neutraal
 --------------------------------
 Charge =  0 Multiplicity = 1

 SCF Done:  E(RB3LYP) =  -1290.09129127     A.U. after    1 cycles

  Exact polarizability: 261.293 -32.839 154.375  -0.826  16.145 139.527
 Approx polarizability: 386.348 -73.809 268.807  -2.356  52.470 264.964

                      1                      2                      3
                      A                      A                      A
 Frequencies --     17.5607                29.1602                37.5699
 Red. masses --      7.9289                 6.0073                 6.9675
 Frc consts  --      0.0014                 0.0030                 0.0058
 IR Inten    --      0.2938                 0.8005                 0.7613

                      4                      5                      6
                      A                      A                      A
 Frequencies --     61.2680                87.1101                90.4153
 Red. masses --     11.9926                 4.8108                 7.3593
 Frc consts  --      0.0265                 0.0215                 0.0354
 IR Inten    --      0.1592                 0.5394                 0.0603

                      7                      8                      9
                      A                      A                      A
 Frequencies --    133.1783               180.5901               193.7436
 Red. masses --      5.8500                 4.3611                 6.0931
 Frc consts  --      0.0611                 0.0838                 0.1348
 IR Inten    --      2.0830                 0.1651                 2.8194

                     10                     11                     12
                      A                      A                      A
 Frequencies --    209.4138               258.7631               271.4721
 Red. masses --      5.9662                 1.4908                 1.9724
 Frc consts  --      0.1542                 0.0588                 0.0856
 IR Inten    --      2.2444                 0.2858                 0.3891

                     13                     14                     15
                      A                      A                      A
 Frequencies --    278.8866               310.6133               353.9140
 Red. masses --      6.5999                 4.7067                 6.5506
 Frc consts  --      0.3024                 0.2676                 0.4834
 IR Inten    --      0.9804                 1.1172                 0.5412

                     16                     17                     18
                      A                      A                      A
 Frequencies --    362.6453               404.2326               434.9433
 Red. masses --      6.5072                 6.0336                 3.2629
 Frc consts  --      0.5042                 0.5809                 0.3637
 IR Inten    --      1.5776                 4.9434                 0.4804

                     19                     20                     21
                      A                      A                      A
 Frequencies --    441.4434               498.3894               543.6433
 Red. masses --      4.7624                 5.1035                 4.3220
 Frc consts  --      0.5468                 0.7469                 0.7526
 IR Inten    --      0.4638                 7.0344                17.1191

                     22                     23                     24
                      A                      A                      A
 Frequencies --    561.8714               563.8558               581.8144
 Red. masses --      2.6417                 2.5565                 4.3631
 Frc consts  --      0.4914                 0.4789                 0.8702
 IR Inten    --     51.9578                69.2223                 6.2768

                     25                     26                     27
                      A                      A                      A
 Frequencies --    588.5093               635.6702               642.4285
 Red. masses --      3.7252                 4.3580                 5.5879
 Frc consts  --      0.7602                 1.0375                 1.3588
 IR Inten    --     12.3909                15.0887                28.9017

                     28                     29                     30
                      A                      A                      A
 Frequencies --    669.0731               706.3861               711.8255
 Red. masses --      4.6064                 7.7305                 1.1921
 Frc consts  --      1.2150                 2.2727                 0.3559
 IR Inten    --     25.3105                17.6754                67.9731

                     31                     32                     33
                      A                      A                      A
 Frequencies --    734.7030               738.5257               750.6792
 Red. masses --      9.2310                 5.1406                 6.4421
 Frc consts  --      2.9358                 1.6519                 2.1389
 IR Inten    --     32.9008                 6.7499                 1.8671

                     34                     35                     36
                      A                      A                      A
 Frequencies --    758.0644               763.4845               843.1244
 Red. masses --      6.7167                 4.0638                10.5703
 Frc consts  --      2.2742                 1.3957                 4.4271
 IR Inten    --     26.3387                14.6956                18.1550

                     37                     38                     39
                      A                      A                      A
 Frequencies --    846.5009               849.9749               864.7181
 Red. masses --      1.3188                 1.5046                 3.8758
 Frc consts  --      0.5568                 0.6405                 1.7075
 IR Inten    --     11.1912                13.9188                24.6837

                     40                     41                     42
                      A                      A                      A
 Frequencies --    876.4015               905.7751               914.8882
 Red. masses --      3.9229                 1.4429                 1.3395
 Frc consts  --      1.7753                 0.6975                 0.6606
 IR Inten    --     20.7633                20.6862                 1.2286

                     43                     44                     45
                      A                      A                      A
 Frequencies --    922.8861               963.3896               974.2122
 Red. masses --      3.7227                 3.7925                 1.2899
 Frc consts  --      1.8681                 2.0739                 0.7213
 IR Inten    --     16.9960                 2.2066                 0.4407

                     46                     47                     48
                      A                      A                      A
 Frequencies --    978.4441              1012.8920              1072.9166
 Red. masses --      3.1294                 2.0600                 1.7603
 Frc consts  --      1.7652                 1.2452                 1.1939
 IR Inten    --      4.0957                13.5906                17.1266

                     49                     50                     51
                      A                      A                      A
 Frequencies --   1084.5510              1111.4981              1120.2025
 Red. masses --      2.0479                 2.2952                 1.2011
 Frc consts  --      1.4193                 1.6706                 0.8880
 IR Inten    --     74.7872                39.8552                 5.7343

                     52                     53                     54
                      A                      A                      A
 Frequencies --   1146.5698              1153.4340              1213.8223
 Red. masses --      1.9334                 1.6497                 4.9925
 Frc consts  --      1.4975                 1.2931                 4.3339
 IR Inten    --     50.4681                27.9693                77.8501

                     55                     56                     57
                      A                      A                      A
 Frequencies --   1221.2457              1257.7817              1269.9296
 Red. masses --      3.3903                 1.4393                 1.7085
 Frc consts  --      2.9792                 1.3416                 1.6234
 IR Inten    --     40.9960                15.2547                34.2145

                     58                     59                     60
                      A                      A                      A
 Frequencies --   1311.0888              1335.2984              1349.6786
 Red. masses --      2.8405                 1.5890                 1.5007
 Frc consts  --      2.8768                 1.6693                 1.6107
 IR Inten    --    147.5670               110.1881                19.2488

                     61                     62                     63
                      A                      A                      A
 Frequencies --   1384.5678              1399.6000              1415.5908
 Red. masses --      7.9142                 4.8997                 2.0577
 Frc consts  --      8.9390                 5.6549                 2.4295
 IR Inten    --    535.9240               169.8167                13.0815

                     64                     65                     66
                      A                      A                      A
 Frequencies --   1418.0166              1443.2527              1468.9384
 Red. masses --      5.3269                 1.2738                 1.4724
 Frc consts  --      6.3109                 1.5633                 1.8719
 IR Inten    --     22.6584                 7.7387                40.5116

                     67                     68                     69
                      A                      A                      A
 Frequencies --   1494.4491              1499.9625              1507.6456
 Red. masses --      3.5563                 5.9757                 3.2622
 Frc consts  --      4.6796                 7.9214                 4.3688
 IR Inten    --     86.2036                10.3093                31.8495

                     70                     71                     72
                      A                      A                      A
 Frequencies --   1522.5103              1528.1495              1603.0290
 Red. masses --      1.0633                 1.0620                 5.5074
 Frc consts  --      1.4523                 1.4612                 8.3384
 IR Inten    --      8.6032                 1.5053                19.2251

                     73                     74                     75
                      A                      A                      A
 Frequencies --   1609.5479              1645.0445              1675.0887
 Red. masses --      9.6430                 9.5490                 8.9146
 Frc consts  --     14.7187                15.2251                14.7376
 IR Inten    --     75.1070               669.9331                60.7300

                     76                     77                     78
                      A                      A                      A
 Frequencies --   1706.2655              3057.3395              3104.6673
 Red. masses --      7.5502                 1.0408                 1.0851
 Frc consts  --     12.9509                 5.7318                 6.1622
 IR Inten    --    510.5871                11.8824                 0.9239

                     79                     80                     81
                      A                      A                      A
 Frequencies --   3130.5101              3155.9277              3221.8732
 Red. masses --      1.0965                 1.1041                 1.0890
 Frc consts  --      6.3311                 6.4789                 6.6601
 IR Inten    --     23.9713                16.3953                 5.6148

                     82                     83                     84
                      A                      A                      A
 Frequencies --   3230.4591              3235.2019              3257.0402
 Red. masses --      1.0910                 1.0953                 1.0925
 Frc consts  --      6.7079                 6.7546                 6.8282
 IR Inten    --      3.1584                 3.2472                 1.0961

                     85                     86                     87
                      A                      A                      A
 Frequencies --   3269.9421              3274.1048              3588.6620
 Red. masses --      1.0928                 1.0973                 1.0758
 Frc consts  --      6.8846                 6.9308                 8.1626
 IR Inten    --      4.7890                 0.7219                56.6285

 - Thermochemistry -
 -------------------
 Temperature   298.150 Kelvin.  Pressure   1.00000 Atm.
 Atom     1 has atomic number  6 and mass  12.00000

 Molecular mass:   289.05211 amu.
 Principal axes and moments of inertia in atomic units:
                           1         2         3
     Eigenvalues --  2705.97292********************
           X            0.99996   0.00071   0.00909
           Y           -0.00050   0.99974  -0.02274
           Z           -0.00911   0.02274   0.99970
 This molecule is an asymmetric top.
 Rotational symmetry number  1.
 Warning -- assumption of classical behavior for rotation
           may cause significant error
 Rotational temperatures (Kelvin)      0.03201     0.00709     0.00658
 Rotational constants (GHZ):           0.66695     0.14776     0.13719
 Zero-point vibrational energy     604439.9 (Joules/Mol)
                                  144.46460 (Kcal/Mol)
 Warning -- explicit consideration of  25 degrees of freedom as
           vibrations may cause significant error
 Vibrational temperatures:     25.27    41.95    54.05    88.15   125.33
          (Kelvin)            130.09   191.61   259.83   278.75   301.30
                              372.30   390.59   401.26   446.90   509.20
                              521.77   581.60   625.79   635.14   717.07
                              782.18   808.41   811.26   837.10   846.73
                              914.59   924.31   962.65  1016.33  1024.16
                             1057.07  1062.57  1080.06  1090.69  1098.48
                             1213.07  1217.93  1222.92  1244.14  1260.95
                             1303.21  1316.32  1327.83  1386.10  1401.67
                             1407.76  1457.33  1543.69  1560.43  1599.20
                             1611.72  1649.66  1659.53  1746.42  1757.10
                             1809.67  1827.15  1886.36  1921.20  1941.89
                             1992.08  2013.71  2036.72  2040.21  2076.52
                             2113.47  2150.18  2158.11  2169.17  2190.55
                             2198.67  2306.40  2315.78  2366.85  2410.08
                             2454.94  4398.83  4466.92  4504.11  4540.68
                             4635.56  4647.91  4654.73  4686.15  4704.72
                             4710.71  5163.28

 Zero-point correction=                           0.230219 (Hartree/Particle)
 Thermal correction to Energy=                    0.246898
 Thermal correction to Enthalpy=                  0.247842
 Thermal correction to Gibbs Free Energy=         0.183070
 Sum of electronic and zero-point Energies=          -1289.861072
 Sum of electronic and thermal Energies=             -1289.844394
 Sum of electronic and thermal Enthalpies=           -1289.843450
 Sum of electronic and thermal Free Energies=        -1289.908221

                     E (Thermal)             CV                S
                      KCal/Mol        Cal/Mol-Kelvin    Cal/Mol-Kelvin
 Total                  154.931             64.071            136.323
 Electronic               0.000              0.000              0.000
 Translational            0.889              2.981             42.882
 Rotational               0.889              2.981             34.430
 Vibrational            153.153             58.110             59.011
 Vibration     1          0.593              1.986              6.893
 Vibration     2          0.593              1.984              5.886
 Vibration     3          0.594              1.982              5.383
 Vibration     4          0.597              1.973              4.416
 Vibration     5          0.601              1.958              3.724
 Vibration     6          0.602              1.956              3.651
 Vibration     7          0.613              1.920              2.900
 Vibration     8          0.630              1.866              2.322
 Vibration     9          0.635              1.849              2.192
 Vibration    10          0.642              1.826              2.049
 Vibration    11          0.668              1.748              1.670
 Vibration    12          0.675              1.726              1.587
 Vibration    13          0.679              1.713              1.540
 Vibration    14          0.699              1.653              1.359
 Vibration    15          0.730              1.567              1.149
 Vibration    16          0.736              1.549              1.111
 Vibration    17          0.769              1.461              0.947
 Vibration    18          0.796              1.394              0.843
 Vibration    19          0.801              1.380              0.822
 Vibration    20          0.854              1.254              0.662
 Vibration    21          0.899              1.154              0.558
 Vibration    22          0.918              1.114              0.520
 Vibration    23          0.920              1.109              0.516
 Vibration    24          0.939              1.071              0.482
 Vibration    25          0.946              1.056              0.470

                           ! Non-Optimized Parameters !
 Normal termination of Gaussian 16 at Sat Dec 12 15:07:49 2020.

 ----------------------------------------------------------------------
 # B3LYP/6-311++G(d,p) empiricaldispersion=gd3bj scf=xqc pop=npa geom=c
 heck
 ----------------------------------------------------------------------

 ----------------------------------------
 CID_112725893_JID_10043_Energie_neutraal
 ----------------------------------------
 Structure from the checkpoint file:  "JID_10043.chk"
 Charge =  0 Multiplicity = 1

 SCF Done:  E(RB3LYP) =  -1290.36166033     A.U. after   16 cycles
 Normal termination of Gaussian 16 at Sat Dec 12 15:12:50 2020.

 ----------------------------------------------------------------------
 # B3LYP/6-311++G(d,p) empiricaldispersion=gd3bj scf=xqc pop=npa geom=c
 heck
 ----------------------------------------------------------------------

 --------------------------------------
 CID_112725893_JID_10043_Energie_kation
 --------------------------------------
 Structure from the checkpoint file:  "JID_10043.chk"
 Charge =  1 Multiplicity = 2

 SCF Done:  E(UB3LYP) =  -1290.06586595     A.U. after   25 cycles
 Normal termination of Gaussian 16 at Sat Dec 12 15:23:39 2020.
 Gaussian 16:  ES64L-G16RevA.03 25-Dec-2016

 ----------------------------------------------------------------------
 # B3LYP/6-311++G(d,p) empiricaldispersion=gd3bj scf=xqc pop=npa geom=c
 heck
 ----------------------------------------------------------------------

 -------------------------------------
 CID_112725893_JID_10043_Energie_anion
 -------------------------------------
 Structure from the checkpoint file:  "JID_10043.chk"
 Charge = -1 Multiplicity = 2

                         Standard orientation:
 ---------------------------------------------------------------------
 Center     Atomic      Atomic             Coordinates (Angstroms)
 Number     Number       Type             X           Y           Z
 ---------------------------------------------------------------------
      1          6           0        3.901509   -1.617968    1.573741
      2          6           0        2.663657   -0.842801    1.122605
      3          6           0        2.977351    0.439309    0.395291
      4          6           0        2.343889    1.646540    0.527266
      5          6           0        2.827192    2.642147   -0.375915
      6          6           0        3.818380    2.175704   -1.192510
      7         16           0        4.188938    0.511309   -0.865376
      8          7           0        1.817116   -1.746978    0.315986
      9          6           0        0.542596   -1.429920   -0.003913
     10          7           0       -0.163975   -1.893431   -1.001775
     11          6           0       -1.407938   -1.302743   -0.831089
     12          6           0       -1.376853   -0.469731    0.305647
     13          8           0       -0.104675   -0.559883    0.841893
     14          6           0       -2.436638    0.279044    0.755612
     15          6           0       -3.602318    0.156358   -0.014351
     16          6           0       -3.687528   -0.659202   -1.151239
     17          6           0       -2.587684   -1.400837   -1.574686
     18          7           0       -4.778113    0.919476    0.395329
     19          8           0       -4.678592    1.632956    1.397115
     20          8           0       -5.803256    0.810492   -0.280268
     21          1           0        4.505867   -1.934384    0.714835
     22          1           0        3.608361   -2.509967    2.134336
     23          1           0        4.529321   -0.985478    2.206397
     24          1           0        2.070558   -0.577517    2.001669
     25          1           0        1.545992    1.810929    1.242904
     26          1           0        2.451692    3.658480   -0.413202
     27          1           0        4.364935    2.708051   -1.958810
     28          1           0        2.285052   -2.256198   -0.425228
     29          1           0       -2.405518    0.917229    1.628010
     30          1           0       -4.626916   -0.695164   -1.687510
     31          1           0       -2.639073   -2.034306   -2.452847
 ---------------------------------------------------------------------

 SCF Done:  E(UB3LYP) =  -1290.39671521     A.U. after   25 cycles

 The electronic state is 2-A.
 Alpha  occ. eigenvalues --  -88.79775 -19.08353 -18.95078 -18.95028 -14.32943
 Alpha  occ. eigenvalues --  -14.25299 -14.19202 -10.18552 -10.15463 -10.12214
 Alpha  occ. eigenvalues --  -10.12113 -10.10908 -10.10597 -10.10099 -10.09543
 Alpha  occ. eigenvalues --  -10.07567 -10.06965 -10.05255 -10.04776 -10.04529
 Alpha  occ. eigenvalues --   -7.88416  -5.84701  -5.84340  -5.84022  -1.03002
 Alpha  occ. eigenvalues --   -1.02202  -0.86855  -0.85811  -0.81312  -0.80082
 Alpha  occ. eigenvalues --   -0.73611  -0.70817  -0.65869  -0.64522  -0.63740
 Alpha  occ. eigenvalues --   -0.63231  -0.57163  -0.54774  -0.52621  -0.48644
 Alpha  occ. eigenvalues --   -0.48368  -0.47607  -0.45665  -0.43910  -0.42245
 Alpha  occ. eigenvalues --   -0.40473  -0.38741  -0.37907  -0.37148  -0.36580
 Alpha  occ. eigenvalues --   -0.35304  -0.34876  -0.33685  -0.32793  -0.32327
 Alpha  occ. eigenvalues --   -0.32251  -0.31767  -0.31339  -0.29917  -0.29480
 Alpha  occ. eigenvalues --   -0.29029  -0.27027  -0.26595  -0.24605  -0.23842
 Alpha  occ. eigenvalues --   -0.23670  -0.18751  -0.18277  -0.17933  -0.16018
 Alpha  occ. eigenvalues --   -0.14286  -0.12919  -0.12734  -0.10715  -0.10159
 Alpha  occ. eigenvalues --    0.02387
 Alpha virt. eigenvalues --    0.04760   0.05489   0.06198   0.07867   0.08310
 Alpha virt. eigenvalues --    0.08950   0.09132   0.09979   0.10062   0.10571
 Alpha virt. eigenvalues --    0.11198   0.11877   0.12114   0.12417   0.12772

  Beta  occ. eigenvalues --  -88.79765 -19.08325 -18.94666 -18.94564 -14.32365
  Beta  occ. eigenvalues --  -14.25273 -14.19278 -10.18393 -10.15457 -10.12148
  Beta  occ. eigenvalues --  -10.12048 -10.10990 -10.10593 -10.10106 -10.09526
  Beta  occ. eigenvalues --  -10.07353 -10.06897 -10.05301 -10.04580 -10.04448
  Beta  occ. eigenvalues --   -7.88407  -5.84698  -5.84336  -5.83986  -1.02129
  Beta  occ. eigenvalues --   -1.02032  -0.86773  -0.84980  -0.81238  -0.80011
  Beta  occ. eigenvalues --   -0.73404  -0.70716  -0.65809  -0.64415  -0.63337
  Beta  occ. eigenvalues --   -0.63037  -0.57020  -0.54343  -0.52254  -0.48538
  Beta  occ. eigenvalues --   -0.48284  -0.47448  -0.45476  -0.43866  -0.42077
  Beta  occ. eigenvalues --   -0.40360  -0.38406  -0.37549  -0.36939  -0.36511
  Beta  occ. eigenvalues --   -0.34655  -0.33641  -0.32688  -0.32441  -0.32175
  Beta  occ. eigenvalues --   -0.31953  -0.31718  -0.31258  -0.29718  -0.29321
  Beta  occ. eigenvalues --   -0.28946  -0.26900  -0.26511  -0.24136  -0.23762
  Beta  occ. eigenvalues --   -0.23337  -0.18435  -0.18148  -0.17739  -0.15632
  Beta  occ. eigenvalues --   -0.12576  -0.12491  -0.10782  -0.10278  -0.09411
  Beta virt. eigenvalues --    0.05286   0.05473   0.06191   0.07841   0.08294
  Beta virt. eigenvalues --    0.08660   0.08931   0.09126   0.09961   0.10105
  Beta virt. eigenvalues --    0.11064   0.11526   0.11964   0.12227   0.12413

 Mulliken charges and spin densities:
               1          2
     1  C   -0.630229   0.006407
     2  C   -0.803255  -0.027812
     3  C    0.629922   0.028735
     4  C    0.418737   0.037043
     5  C   -0.706263  -0.001143
     6  C   -0.080727   0.041561
     7  S   -0.175734   0.016706
     8  N   -0.033230   0.014312
     9  C    0.236629   0.098373
    10  N   -0.062066  -0.042436
    11  C    0.319214   0.133957
    12  C    1.172699  -0.068503
    13  O   -0.103605   0.007260
    14  C   -1.213832   0.193883
    15  C   -0.510779  -0.044750
    16  C    0.264661   0.105545
    17  C   -1.280664  -0.016930
    18  N   -0.248471   0.189224
    19  O   -0.173074   0.162281
    20  O   -0.182046   0.177573
    21  H    0.159500   0.000119
    22  H    0.156536   0.004041
    23  H    0.155400   0.000449
    24  H    0.252300  -0.002219
    25  H    0.195401   0.001482
    26  H    0.142003   0.000605
    27  H    0.228827  -0.003040
    28  H    0.289336   0.003133
    29  H    0.217062  -0.012277
    30  H    0.225874  -0.005593
    31  H    0.139872   0.002016
 Sum of Mulliken charges =  -1.00000   1.00000

 Dipole moment (field-independent basis, Debye):
    X=             17.1855    Y=             -2.4090    Z=             -0.0721  Tot=             17.3537
 Quadrupole moment (field-independent basis, Debye-Ang):
   XX=           -231.2236   YY=           -137.2926   ZZ=           -132.3975
   XY=             16.9066   XZ=              8.6998   YZ=             -7.2976

 Summary of Natural Population Analysis:

                                       Natural Population
                Natural  -----------------------------------------------
    Atom  No    Charge         Core      Valence    Rydberg      Total
 -----------------------------------------------------------------------
      C    1   -0.28448      0.99965     2.27960    0.00523     3.28448
      C    2   -0.02545      0.99953     2.01394    0.01198     3.02545
      C    3   -0.09362      0.99947     2.08240    0.01175     3.09362
      C    4   -0.11835      0.99947     2.10963    0.00925     3.11835
      C    5   -0.12702      0.99954     2.11783    0.00965     3.12702
      C    6   -0.18521      0.99955     2.17495    0.01071     3.18521
      S    7    0.19184      4.99941     2.78684    0.02191     7.80816
      N    8   -0.31587      0.99964     2.80585    0.01038     3.81587
      C    9    0.38477      0.99960     1.59623    0.01939     2.61523
      N   10   -0.29419      0.99967     2.78484    0.00968     3.79419
      C   11    0.08325      0.99946     1.90485    0.01244     2.91675
      C   12    0.11471      0.99935     1.87427    0.01167     2.88529
      O   13   -0.25729      0.99985     3.24855    0.00889     4.25729
      C   14   -0.08104      0.99948     2.07230    0.00926     3.08104
      C   15    0.04654      0.99943     1.93952    0.01451     2.95346
      C   16   -0.08483      0.99955     2.07593    0.00936     3.08483
      C   17   -0.12705      0.99954     2.11862    0.00890     3.12705
      N   18    0.29985      0.99971     2.17422    0.02622     3.20015
      O   19   -0.20245      0.99990     3.19495    0.00761     4.20245
      O   20   -0.19273      0.99990     3.18527    0.00756     4.19273
      H   21    0.09675      0.00000     0.40229    0.00095     0.40325
      H   22    0.10405      0.00000     0.39498    0.00097     0.39595
      H   23    0.10396      0.00000     0.39528    0.00076     0.39604
      H   24    0.11166      0.00000     0.38668    0.00166     0.38834
      H   25    0.11343      0.00000     0.38544    0.00113     0.38657
      H   26    0.10651      0.00000     0.39252    0.00097     0.39349
      H   27    0.10631      0.00000     0.39271    0.00097     0.39369
      H   28    0.19434      0.00000     0.30378    0.00188     0.30566
      H   29    0.11908      0.00000     0.37972    0.00120     0.38092
      H   30    0.11425      0.00000     0.38462    0.00112     0.38575
      H   31    0.09828      0.00000     0.40004    0.00168     0.40172
 =======================================================================
   * Total *    0.00000     23.99172    50.75864    0.24965    75.00000

 Normal termination of Gaussian 16 at Sat Dec 12 15:34:09 2020.
