 Gaussian 16, Revision A.03,

 -----------------------------------------------------------
 # opt freq B3LYP/6-31G(d) empiricaldispersion=gd3bj scf=xqc
 -----------------------------------------------------------

 ------------------------------
 CID_14357247_JID_2970_neutraal
 ------------------------------
 Symbolic Z-matrix:
 Charge =  0 Multiplicity = 1

 SCF Done:  E(RB3LYP) =  -505.297415825     A.U. after   13 cycles
 SCF Done:  E(RB3LYP) =  -505.299944568     A.U. after   11 cycles
 SCF Done:  E(RB3LYP) =  -505.300107653     A.U. after   11 cycles
 SCF Done:  E(RB3LYP) =  -505.300176029     A.U. after   11 cycles
 SCF Done:  E(RB3LYP) =  -505.300433019     A.U. after   11 cycles
 SCF Done:  E(RB3LYP) =  -505.300521948     A.U. after   11 cycles
 SCF Done:  E(RB3LYP) =  -505.300543400     A.U. after   10 cycles
 SCF Done:  E(RB3LYP) =  -505.300550873     A.U. after    8 cycles
 SCF Done:  E(RB3LYP) =  -505.300554201     A.U. after    8 cycles
 SCF Done:  E(RB3LYP) =  -505.300556437     A.U. after    8 cycles
 SCF Done:  E(RB3LYP) =  -505.300556961     A.U. after    7 cycles
 Optimization completed.
    -- Stationary point found.
 Normal termination of Gaussian 16 at Wed Dec  9 18:21:35 2020.

 --------------------------------------------------------------------
 #N Geom=AllCheck Guess=TCheck SCRF=Check GenChk RB3LYP/6-31G(d) Freq
 --------------------------------------------------------------------

 Structure from the checkpoint file:  "JID_2970.chk"
 ------------------------------
 CID_14357247_JID_2970_neutraal
 ------------------------------
 Charge =  0 Multiplicity = 1

 SCF Done:  E(RB3LYP) =  -505.300556961     A.U. after    1 cycles

  Exact polarizability: 115.826  -0.620 105.840  -0.259  -0.512 102.101
 Approx polarizability: 158.760   5.576 160.414  -2.785  -4.776 148.550

                      1                      2                      3
                      A                      A                      A
 Frequencies --     55.0475               162.1429               187.6564
 Red. masses --      4.1290                 1.7192                 1.8810
 Frc consts  --      0.0074                 0.0266                 0.0390
 IR Inten    --      2.5026                 1.0881                 0.4555

                      4                      5                      6
                      A                      A                      A
 Frequencies --    225.0543               234.2515               247.0978
 Red. masses --      2.0962                 1.4719                 1.6514
 Frc consts  --      0.0626                 0.0476                 0.0594
 IR Inten    --      0.6274                 0.1580                 0.2909

                      7                      8                      9
                      A                      A                      A
 Frequencies --    257.8367               313.7931               327.8479
 Red. masses --      1.8489                 2.9454                 2.1460
 Frc consts  --      0.0724                 0.1709                 0.1359
 IR Inten    --      0.5807                 3.8796                 0.3438

                     10                     11                     12
                      A                      A                      A
 Frequencies --    342.2500               374.8028               387.7405
 Red. masses --      2.5144                 2.2882                 2.7005
 Frc consts  --      0.1735                 0.1894                 0.2392
 IR Inten    --      0.6494                 0.0406                 0.7902

                     13                     14                     15
                      A                      A                      A
 Frequencies --    425.6037               458.4593               477.3278
 Red. masses --      3.7683                 2.9069                 3.4532
 Frc consts  --      0.4022                 0.3600                 0.4636
 IR Inten    --      0.7965                 3.8262                 0.8272

                     16                     17                     18
                      A                      A                      A
 Frequencies --    526.4251               620.7820               647.8321
 Red. masses --      3.4053                 2.6302                 2.7788
 Frc consts  --      0.5560                 0.5972                 0.6871
 IR Inten    --      2.7653                 0.6197                 2.4582

                     19                     20                     21
                      A                      A                      A
 Frequencies --    762.9945               774.6152               786.8804
 Red. masses --      3.4959                 2.2357                 2.5629
 Frc consts  --      1.1991                 0.7904                 0.9350
 IR Inten    --      0.9761                 1.3889                 0.0293

                     22                     23                     24
                      A                      A                      A
 Frequencies --    835.4799               845.5517               859.2340
 Red. masses --      2.0984                 2.9129                 2.2013
 Frc consts  --      0.8630                 1.2270                 0.9575
 IR Inten    --      3.4353                 1.8725                 3.3903

                     25                     26                     27
                      A                      A                      A
 Frequencies --    871.4740               921.3354               944.5740
 Red. masses --      1.7372                 2.2371                 2.2743
 Frc consts  --      0.7773                 1.1189                 1.1956
 IR Inten    --      0.2628                 1.8393                 4.3390

                     28                     29                     30
                      A                      A                      A
 Frequencies --    956.1946               971.4426              1006.0122
 Red. masses --      2.0846                 1.5684                 1.9585
 Frc consts  --      1.1230                 0.8721                 1.1678
 IR Inten    --      1.2240                 0.6540                 3.8587

                     31                     32                     33
                      A                      A                      A
 Frequencies --   1016.1594              1031.8971              1038.7476
 Red. masses --      1.9002                 1.9801                 1.3800
 Frc consts  --      1.1560                 1.2422                 0.8773
 IR Inten    --      2.7540                22.1647                 1.2567

                     34                     35                     36
                      A                      A                      A
 Frequencies --   1070.4473              1119.4481              1127.2980
 Red. masses --      1.8090                 2.0713                 1.8456
 Frc consts  --      1.2213                 1.5293                 1.3819
 IR Inten    --      4.8218                17.8984                 9.9243

                     37                     38                     39
                      A                      A                      A
 Frequencies --   1146.6885              1175.4727              1199.3981
 Red. masses --      1.7237                 1.9697                 1.6647
 Frc consts  --      1.3354                 1.6035                 1.4109
 IR Inten    --      5.8571                 1.4794                 4.6599

                     40                     41                     42
                      A                      A                      A
 Frequencies --   1222.9717              1235.6896              1247.6990
 Red. masses --      1.5763                 1.5882                 1.3813
 Frc consts  --      1.3891                 1.4288                 1.2669
 IR Inten    --      5.6694                 1.2619                 2.7724

                     43                     44                     45
                      A                      A                      A
 Frequencies --   1258.0608              1283.9696              1303.0981
 Red. masses --      1.7024                 1.3588                 1.3475
 Frc consts  --      1.5875                 1.3198                 1.3481
 IR Inten    --      1.4350                 5.6141                 1.3834

                     46                     47                     48
                      A                      A                      A
 Frequencies --   1326.6066              1347.3311              1358.7965
 Red. masses --      1.5087                 1.5351                 1.4136
 Frc consts  --      1.5644                 1.6418                 1.5377
 IR Inten    --      3.2076                 0.8871                 0.6971

                     49                     50                     51
                      A                      A                      A
 Frequencies --   1370.4797              1386.9820              1397.4826
 Red. masses --      1.3437                 1.5953                 1.3827
 Frc consts  --      1.4870                 1.8082                 1.5910
 IR Inten    --      0.0697                 8.9795                 4.8982

                     52                     53                     54
                      A                      A                      A
 Frequencies --   1401.6461              1404.7712              1418.9247
 Red. masses --      1.4238                 1.3844                 1.3762
 Frc consts  --      1.6480                 1.6097                 1.6325
 IR Inten    --      0.8839                 2.4346                 2.5662

                     55                     56                     57
                      A                      A                      A
 Frequencies --   1423.4491              1446.7624              1507.3965
 Red. masses --      1.2686                 1.2241                 1.0544
 Frc consts  --      1.5144                 1.5096                 1.4116
 IR Inten    --      2.1724                16.0116                 1.2774

                     58                     59                     60
                      A                      A                      A
 Frequencies --   1513.3198              1521.7240              1525.1330
 Red. masses --      1.0705                 1.0727                 1.0732
 Frc consts  --      1.4444                 1.4635                 1.4708
 IR Inten    --      0.7141                 1.5680                 5.8771

                     61                     62                     63
                      A                      A                      A
 Frequencies --   1525.8589              1531.1649              1537.7524
 Red. masses --      1.0645                 1.0724                 1.0748
 Frc consts  --      1.4603                 1.4814                 1.4974
 IR Inten    --      1.9015                 5.2874                 8.4935

                     64                     65                     66
                      A                      A                      A
 Frequencies --   1547.4221              1561.9602              1802.3083
 Red. masses --      1.0667                 1.0769                11.6267
 Frc consts  --      1.5050                 1.5480                22.2518
 IR Inten    --     11.2235                 6.0530               144.1770

                     67                     68                     69
                      A                      A                      A
 Frequencies --   3025.7578              3040.4139              3045.9337
 Red. masses --      1.0824                 1.0618                 1.0643
 Frc consts  --      5.8383                 5.7832                 5.8176
 IR Inten    --     14.4218                 6.9253                35.3767

                     70                     71                     72
                      A                      A                      A
 Frequencies --   3048.7024              3052.3729              3053.5685
 Red. masses --      1.0614                 1.0404                 1.0613
 Frc consts  --      5.8126                 5.7110                 5.8306
 IR Inten    --     24.2160                 8.6506                36.7031

                     73                     74                     75
                      A                      A                      A
 Frequencies --   3061.0577              3068.3021              3070.5454
 Red. masses --      1.0447                 1.0779                 1.0928
 Frc consts  --      5.7674                 5.9787                 6.0705
 IR Inten    --     39.2296                56.5460                38.4699

                     76                     77                     78
                      A                      A                      A
 Frequencies --   3078.6777              3080.8941              3085.5631
 Red. masses --      1.0918                 1.0934                 1.0984
 Frc consts  --      6.0973                 6.1150                 6.1617
 IR Inten    --     12.2853                23.1096                21.4902

                     79                     80                     81
                      A                      A                      A
 Frequencies --   3098.3630              3105.4097              3124.0602
 Red. masses --      1.0985                 1.1028                 1.0984
 Frc consts  --      6.2131                 6.2659                 6.3161
 IR Inten    --     52.8329                59.0224                19.9647

                     82                     83                     84
                      A                      A                      A
 Frequencies --   3131.8403              3139.9471              3151.8446
 Red. masses --      1.0969                 1.1023                 1.1008
 Frc consts  --      6.3388                 6.4033                 6.4433
 IR Inten    --     29.3566                24.4395                20.1462

 - Thermochemistry -
 -------------------
 Temperature   298.150 Kelvin.  Pressure   1.00000 Atm.
 Atom     1 has atomic number  6 and mass  12.00000

 Molecular mass:   166.13577 amu.
 Principal axes and moments of inertia in atomic units:
                           1         2         3
     Eigenvalues --  1420.084981910.401632054.19219
           X            0.99830  -0.05810   0.00446
           Y            0.05786   0.99746   0.04164
           Z           -0.00687  -0.04131   0.99912
 This molecule is an asymmetric top.
 Rotational symmetry number  1.
 Warning -- assumption of classical behavior for rotation
           may cause significant error
 Rotational temperatures (Kelvin)      0.06099     0.04534     0.04216
 Rotational constants (GHZ):           1.27087     0.94469     0.87856
 Zero-point vibrational energy     721380.0 (Joules/Mol)
                                  172.41395 (Kcal/Mol)
 Warning -- explicit consideration of  17 degrees of freedom as
           vibrations may cause significant error
 Vibrational temperatures:     79.20   233.29   270.00   323.80   337.04
          (Kelvin)            355.52   370.97   451.48   471.70   492.42
                              539.26   557.87   612.35   659.62   686.77
                              757.41   893.17   932.09  1097.78  1114.50
                             1132.15  1202.07  1216.56  1236.25  1253.86
                             1325.60  1359.03  1375.75  1397.69  1447.43
                             1462.03  1484.67  1494.53  1540.13  1610.64
                             1621.93  1649.83  1691.24  1725.67  1759.58
                             1777.88  1795.16  1810.07  1847.35  1874.87
                             1908.69  1938.51  1955.01  1971.81  1995.56
                             2010.67  2016.66  2021.15  2041.52  2048.03
                             2081.57  2168.81  2177.33  2189.42  2194.33
                             2195.37  2203.00  2212.48  2226.40  2247.31
                             2593.12  4353.39  4374.48  4382.42  4386.40
                             4391.68  4393.40  4404.18  4414.60  4417.83
                             4429.53  4432.72  4439.44  4457.85  4467.99
                             4494.83  4506.02  4517.68  4534.80

 Zero-point correction=                           0.274759 (Hartree/Particle)
 Thermal correction to Energy=                    0.285873
 Thermal correction to Enthalpy=                  0.286817
 Thermal correction to Gibbs Free Energy=         0.239046
 Sum of electronic and zero-point Energies=           -505.025798
 Sum of electronic and thermal Energies=              -505.014684
 Sum of electronic and thermal Enthalpies=            -505.013740
 Sum of electronic and thermal Free Energies=         -505.061511

                     E (Thermal)             CV                S
                      KCal/Mol        Cal/Mol-Kelvin    Cal/Mol-Kelvin
 Total                  179.388             45.718            100.543
 Electronic               0.000              0.000              0.000
 Translational            0.889              2.981             41.231
 Rotational               0.889              2.981             30.100
 Vibrational            177.610             39.756             29.211
 Vibration     1          0.596              1.976              4.627
 Vibration     2          0.622              1.889              2.525
 Vibration     3          0.632              1.857              2.251
 Vibration     4          0.650              1.803              1.918
 Vibration     5          0.654              1.788              1.846
 Vibration     6          0.661              1.768              1.751
 Vibration     7          0.667              1.750              1.676
 Vibration     8          0.702              1.647              1.342
 Vibration     9          0.711              1.620              1.271
 Vibration    10          0.721              1.591              1.202
 Vibration    11          0.746              1.524              1.060
 Vibration    12          0.756              1.496              1.009
 Vibration    13          0.787              1.415              0.873
 Vibration    14          0.816              1.342              0.771
 Vibration    15          0.834              1.300              0.717
 Vibration    16          0.881              1.192              0.595
 Vibration    17          0.981              0.988              0.415

 Optimization completed.
    -- Stationary point found.
 Normal termination of Gaussian 16 at Wed Dec  9 18:30:22 2020.

 ----------------------------------------------------------------------
 # B3LYP/6-311++G(d,p) empiricaldispersion=gd3bj scf=xqc pop=npa geom=c
 heck
 ----------------------------------------------------------------------

 --------------------------------------
 CID_14357247_JID_2970_Energie_neutraal
 --------------------------------------
 Structure from the checkpoint file:  "JID_2970.chk"
 Charge =  0 Multiplicity = 1

 SCF Done:  E(RB3LYP) =  -505.438486700     A.U. after   13 cycles
 Normal termination of Gaussian 16 at Wed Dec  9 18:33:17 2020.

 ----------------------------------------------------------------------
 # B3LYP/6-311++G(d,p) empiricaldispersion=gd3bj scf=xqc pop=npa geom=c
 heck
 ----------------------------------------------------------------------

 ------------------------------------
 CID_14357247_JID_2970_Energie_kation
 ------------------------------------
 Structure from the checkpoint file:  "JID_2970.chk"
 Charge =  1 Multiplicity = 2

 SCF Done:  E(UB3LYP) =  -505.121988478     A.U. after   19 cycles
 Normal termination of Gaussian 16 at Wed Dec  9 18:38:44 2020.
 Gaussian 16:  ES64L-G16RevA.03 25-Dec-2016

 ----------------------------------------------------------------------
 # B3LYP/6-311++G(d,p) empiricaldispersion=gd3bj scf=xqc pop=npa geom=c
 heck
 ----------------------------------------------------------------------

 -----------------------------------
 CID_14357247_JID_2970_Energie_anion
 -----------------------------------
 Structure from the checkpoint file:  "JID_2970.chk"
 Charge = -1 Multiplicity = 2

                         Standard orientation:
 ---------------------------------------------------------------------
 Center     Atomic      Atomic             Coordinates (Angstroms)
 Number     Number       Type             X           Y           Z
 ---------------------------------------------------------------------
      1          6           0        2.010291   -0.440166   -1.423544
      2          6           0        1.201596   -0.305382   -0.123189
      3          6           0        0.047652   -1.343228   -0.024185
      4          6           0       -0.985004   -1.259742   -1.182048
      5          6           0       -2.173651   -0.315870   -0.941679
      6          6           0       -1.803347    1.125056   -0.572912
      7          6           0       -0.770494    1.243074    0.581807
      8          6           0        0.628147    1.110948   -0.009589
      9          8           0        1.249841    2.088180   -0.387103
     10          6           0       -1.019913    0.229704    1.717759
     11          6           0       -0.661584   -1.237536    1.342239
     12          6           0        2.191264   -0.474936    1.056921
     13          1           0        2.810347    0.303310   -1.441025
     14          1           0        1.399039   -0.277684   -2.315144
     15          1           0        2.454545   -1.440122   -1.490176
     16          1           0        0.521485   -2.332002   -0.088186
     17          1           0       -1.389492   -2.266137   -1.348125
     18          1           0       -0.483299   -0.984153   -2.115620
     19          1           0       -2.803672   -0.303423   -1.839862
     20          1           0       -2.803356   -0.731205   -0.145538
     21          1           0       -1.411488    1.659418   -1.447535
     22          1           0       -2.715281    1.655029   -0.271016
     23          1           0       -0.830987    2.262900    0.975809
     24          1           0       -0.428928    0.540703    2.586735
     25          1           0       -2.069094    0.299457    2.028068
     26          1           0       -1.563395   -1.858805    1.322599
     27          1           0       -0.022883   -1.667378    2.119387
     28          1           0        2.590748   -1.496128    1.065287
     29          1           0        3.025196    0.223283    0.940924
     30          1           0        1.732041   -0.284030    2.030766
 ---------------------------------------------------------------------

 SCF Done:  E(UB3LYP) =  -505.424701919     A.U. after   33 cycles
 SCF Done:  E(UB3LYP) =  -505.424701919     a.u. after    1 cycles

 The electronic state is 2-A.
 Alpha  occ. eigenvalues --  -19.00503 -10.14606 -10.08452 -10.07229 -10.06823
 Alpha  occ. eigenvalues --  -10.06463 -10.06435 -10.06431 -10.05766 -10.05746
 Alpha  occ. eigenvalues --  -10.05605 -10.05553  -0.93745  -0.75043  -0.69702
 Alpha  occ. eigenvalues --   -0.65890  -0.64717  -0.58847  -0.57300  -0.54489
 Alpha  occ. eigenvalues --   -0.51233  -0.47340  -0.44305  -0.39437  -0.38823
 Alpha  occ. eigenvalues --   -0.37030  -0.35777  -0.33817  -0.32443  -0.31420
 Alpha  occ. eigenvalues --   -0.31188  -0.30408  -0.30068  -0.29779  -0.28019
 Alpha  occ. eigenvalues --   -0.27560  -0.26619  -0.25801  -0.24301  -0.23155
 Alpha  occ. eigenvalues --   -0.21647  -0.21531  -0.20389  -0.20239  -0.19790
 Alpha  occ. eigenvalues --   -0.13648   0.04629
 Alpha virt. eigenvalues --    0.07001   0.07500   0.07918   0.08266   0.09466
 Alpha virt. eigenvalues --    0.09749   0.10181   0.10383   0.11054   0.12427
 Alpha virt. eigenvalues --    0.12577   0.12934   0.12982   0.13400   0.13872

  Beta  occ. eigenvalues --  -19.00486 -10.14579 -10.08452 -10.07228 -10.06813
  Beta  occ. eigenvalues --  -10.06441 -10.06411 -10.06408 -10.05740 -10.05730
  Beta  occ. eigenvalues --  -10.05577 -10.05531  -0.93711  -0.75005  -0.69672
  Beta  occ. eigenvalues --   -0.65842  -0.64670  -0.58802  -0.57248  -0.54427
  Beta  occ. eigenvalues --   -0.51170  -0.47281  -0.44242  -0.39408  -0.38743
  Beta  occ. eigenvalues --   -0.36979  -0.35736  -0.33779  -0.32399  -0.31374
  Beta  occ. eigenvalues --   -0.31143  -0.30356  -0.30038  -0.29728  -0.27975
  Beta  occ. eigenvalues --   -0.27533  -0.26581  -0.25764  -0.24233  -0.23116
  Beta  occ. eigenvalues --   -0.21608  -0.21488  -0.20334  -0.20208  -0.19746
  Beta  occ. eigenvalues --   -0.13623
  Beta virt. eigenvalues --    0.07024   0.07597   0.08188   0.08562   0.08889
  Beta virt. eigenvalues --    0.10030   0.10212   0.10683   0.10936   0.11416
  Beta virt. eigenvalues --    0.12792   0.13126   0.13303   0.13440   0.13826

 Mulliken charges and spin densities:
               1          2
     1  C   -0.214436  -0.257454
     2  C    0.000826   0.473407
     3  C   -0.515606   1.143421
     4  C    0.354420  -0.985782
     5  C    0.042532  -0.362486
     6  C    0.485165  -1.002213
     7  C   -0.292785   0.993965
     8  C   -0.393615  -0.427521
     9  O   -0.249832   0.020960
    10  C    0.839449  -1.507347
    11  C    0.415023  -1.087941
    12  C    0.566574  -1.094062
    13  H    0.156716   0.008478
    14  H   -0.018396   0.163936
    15  H   -0.112933   0.257862
    16  H   -0.257191   0.517543
    17  H   -0.595906   0.774763
    18  H    0.211378  -0.116995
    19  H   -0.470507   0.656502
    20  H    0.176323  -0.017473
    21  H    0.198443  -0.031106
    22  H   -0.462678   0.647996
    23  H   -0.024242   0.277378
    24  H   -0.067064   0.217729
    25  H   -0.272858   0.439558
    26  H   -0.330497   0.500072
    27  H   -0.207097   0.371561
    28  H   -0.192422   0.359046
    29  H    0.125434   0.029380
    30  H    0.105782   0.036822
 Sum of Mulliken charges =  -1.00000   1.00000

 Dipole moment (field-independent basis, Debye):
    X=              3.6922    Y=              2.1280    Z=             -0.3486  Tot=              4.2757
 Quadrupole moment (field-independent basis, Debye-Ang):
   XX=           -125.0408   YY=           -126.1855   ZZ=           -112.8985
   XY=             -1.5121   XZ=             -0.6176   YZ=              0.1797

 Summary of Natural Population Analysis:

                                       Natural Population
                Natural  -----------------------------------------------
    Atom  No    Charge         Core      Valence    Rydberg      Total
 -----------------------------------------------------------------------
      C    1   -0.28275      0.99963     2.27485    0.00826     3.28275
      C    2   -0.08215      0.99950     2.06939    0.01326     3.08215
      C    3   -0.10987      0.99957     2.09656    0.01375     3.10987
      C    4   -0.19044      0.99961     2.18092    0.00992     3.19044
      C    5   -0.19348      0.99962     2.18522    0.00865     3.19348
      C    6   -0.18207      0.99960     2.17283    0.00965     3.18207
      C    7   -0.15568      0.99954     2.14335    0.01279     3.15568
      C    8    0.32182      0.99955     1.65484    0.02380     2.67818
      O    9   -0.29781      0.99987     3.29091    0.00702     4.29781
      C   10   -0.19322      0.99962     2.18433    0.00927     3.19322
      C   11   -0.19412      0.99961     2.18458    0.00993     3.19412
      C   12   -0.27887      0.99962     2.27193    0.00732     3.27887
      H   13    0.10612      0.00000     0.39298    0.00089     0.39388
      H   14    0.10107      0.00000     0.39804    0.00089     0.39893
      H   15    0.09964      0.00000     0.39951    0.00085     0.40036
      H   16    0.10524      0.00000     0.39199    0.00277     0.39476
      H   17    0.10411      0.00000     0.39407    0.00182     0.39589
      H   18    0.09581      0.00000     0.40270    0.00149     0.40419
      H   19    0.10259      0.00000     0.39609    0.00132     0.39741
      H   20    0.09686      0.00000     0.40119    0.00195     0.40314
      H   21    0.09788      0.00000     0.40080    0.00131     0.40212
      H   22    0.10369      0.00000     0.39466    0.00165     0.39631
      H   23    0.11039      0.00000     0.38782    0.00179     0.38961
      H   24    0.09891      0.00000     0.39974    0.00136     0.40109
      H   25    0.10409      0.00000     0.39456    0.00135     0.39591
      H   26    0.10319      0.00000     0.39522    0.00159     0.39681
      H   27    0.10236      0.00000     0.39612    0.00152     0.39764
      H   28    0.10216      0.00000     0.39691    0.00093     0.39784
      H   29    0.10227      0.00000     0.39683    0.00091     0.39773
      H   30    0.10226      0.00000     0.39673    0.00101     0.39774
 =======================================================================
   * Total *   -0.00000     11.99534    33.84566    0.15901    46.00000

 Normal termination of Gaussian 16 at Wed Dec  9 18:48:02 2020.
