 Gaussian 16, Revision A.03,

 -----------------------------------------------------------
 # opt freq B3LYP/6-31G(d) empiricaldispersion=gd3bj scf=xqc
 -----------------------------------------------------------

 ------------------------------
 CID_88643444_JID_2586_neutraal
 ------------------------------
 Symbolic Z-matrix:
 Charge =  0 Multiplicity = 1

 SCF Done:  E(RB3LYP) =  -902.505573727     A.U. after   14 cycles
 SCF Done:  E(RB3LYP) =  -902.506439439     A.U. after   13 cycles
 SCF Done:  E(RB3LYP) =  -902.501358354     A.U. after   14 cycles
 SCF Done:  E(RB3LYP) =  -902.506962763     A.U. after   12 cycles
 SCF Done:  E(RB3LYP) =  -902.506535964     A.U. after   12 cycles
 SCF Done:  E(RB3LYP) =  -902.509445965     A.U. after   11 cycles
 SCF Done:  E(RB3LYP) =  -902.510244077     A.U. after   12 cycles
 SCF Done:  E(RB3LYP) =  -902.510033907     A.U. after   13 cycles
 SCF Done:  E(RB3LYP) =  -902.510757210     A.U. after   12 cycles
 SCF Done:  E(RB3LYP) =  -902.510810392     A.U. after   10 cycles
 SCF Done:  E(RB3LYP) =  -902.510871109     A.U. after    9 cycles
 SCF Done:  E(RB3LYP) =  -902.510871480     A.U. after    9 cycles
 SCF Done:  E(RB3LYP) =  -902.510871781     A.U. after    9 cycles
 SCF Done:  E(RB3LYP) =  -902.510871720     A.U. after    9 cycles
 SCF Done:  E(RB3LYP) =  -902.510871740     A.U. after    7 cycles
 Optimization completed.
    -- Stationary point found.
 Normal termination of Gaussian 16 at Wed Dec  9 17:48:18 2020.

 --------------------------------------------------------------------
 #N Geom=AllCheck Guess=TCheck SCRF=Check GenChk RB3LYP/6-31G(d) Freq
 --------------------------------------------------------------------

 Structure from the checkpoint file:  "JID_2586.chk"
 ------------------------------
 CID_88643444_JID_2586_neutraal
 ------------------------------
 Charge =  0 Multiplicity = 1

 SCF Done:  E(RB3LYP) =  -902.510871740     A.U. after    1 cycles

  Exact polarizability: 141.484   2.979 106.287  -1.981   0.483 103.727
 Approx polarizability: 181.208   4.002 143.897   0.308   1.772 172.492

                      1                      2                      3
                      A                      A                      A
 Frequencies --     11.6262                40.0987                47.5980
 Red. masses --      2.9172                 3.9037                 7.0499
 Frc consts  --      0.0002                 0.0037                 0.0094
 IR Inten    --      0.0178                 0.1345                 1.8737

                      4                      5                      6
                      A                      A                      A
 Frequencies --     68.8644               103.7766               125.6841
 Red. masses --      3.6422                 2.5625                 1.9968
 Frc consts  --      0.0102                 0.0163                 0.0186
 IR Inten    --      0.7885                 0.2036                 0.3015

                      7                      8                      9
                      A                      A                      A
 Frequencies --    147.2816               168.7424               204.7210
 Red. masses --      3.0985                 3.6677                 1.9927
 Frc consts  --      0.0396                 0.0615                 0.0492
 IR Inten    --      0.1634                 0.5414                 0.7057

                     10                     11                     12
                      A                      A                      A
 Frequencies --    210.0679               217.9652               239.3069
 Red. masses --      2.7055                 1.3689                 1.1833
 Frc consts  --      0.0703                 0.0383                 0.0399
 IR Inten    --      0.3276                 0.5562                 0.1565

                     13                     14                     15
                      A                      A                      A
 Frequencies --    268.5420               295.7012               318.8422
 Red. masses --      1.8057                 2.0722                 3.1523
 Frc consts  --      0.0767                 0.1068                 0.1888
 IR Inten    --      0.3681                 1.4586                 0.5520

                     16                     17                     18
                      A                      A                      A
 Frequencies --    322.9231               387.6246               436.5737
 Red. masses --      2.5753                 3.0567                 3.2866
 Frc consts  --      0.1582                 0.2706                 0.3691
 IR Inten    --      0.8936                 0.1556                 2.3549

                     19                     20                     21
                      A                      A                      A
 Frequencies --    467.7149               534.0683               597.2351
 Red. masses --      3.2832                 3.2065                 2.9592
 Frc consts  --      0.4232                 0.5389                 0.6219
 IR Inten    --      0.2418                 8.5139                52.4685

                     22                     23                     24
                      A                      A                      A
 Frequencies --    643.1798               669.9245               719.1558
 Red. masses --      1.4582                 2.9367                 3.3224
 Frc consts  --      0.3554                 0.7765                 1.0124
 IR Inten    --     61.8268                 2.8892                 6.5563

                     25                     26                     27
                      A                      A                      A
 Frequencies --    767.6799               781.6473               811.6350
 Red. masses --      2.7885                 1.4989                 1.3698
 Frc consts  --      0.9683                 0.5396                 0.5317
 IR Inten    --     38.7380                20.1524                 7.0455

                     28                     29                     30
                      A                      A                      A
 Frequencies --    848.2033               871.5828               908.6186
 Red. masses --      2.7429                 1.8927                 2.1773
 Frc consts  --      1.1627                 0.8471                 1.0591
 IR Inten    --      4.6189                 2.3244                 5.2999

                     31                     32                     33
                      A                      A                      A
 Frequencies --    910.4723               939.6752              1024.0713
 Red. masses --      1.6156                 1.9646                 1.7078
 Frc consts  --      0.7891                 1.0221                 1.0552
 IR Inten    --      1.4817                 2.8316                 2.4721

                     34                     35                     36
                      A                      A                      A
 Frequencies --   1050.7010              1062.0691              1077.1073
 Red. masses --      1.6491                 1.8217                 1.8186
 Frc consts  --      1.0727                 1.2107                 1.2431
 IR Inten    --      1.4069                 2.6106                11.8030

                     37                     38                     39
                      A                      A                      A
 Frequencies --   1081.6646              1106.3544              1114.8598
 Red. masses --      1.3445                 1.6416                 1.8873
 Frc consts  --      0.9268                 1.1839                 1.3821
 IR Inten    --      3.6082                57.8802                15.1180

                     40                     41                     42
                      A                      A                      A
 Frequencies --   1127.3261              1183.0101              1200.2746
 Red. masses --      2.6187                 2.3005                 1.9209
 Frc consts  --      1.9608                 1.8969                 1.6305
 IR Inten    --      1.1140                27.6381               131.3964

                     43                     44                     45
                      A                      A                      A
 Frequencies --   1243.1789              1270.4339              1292.9522
 Red. masses --      1.3530                 1.3322                 1.2891
 Frc consts  --      1.2320                 1.2668                 1.2697
 IR Inten    --     13.3484                32.0133                 5.3801

                     46                     47                     48
                      A                      A                      A
 Frequencies --   1311.9715              1318.6809              1341.7581
 Red. masses --      1.2953                 1.2087                 1.3224
 Frc consts  --      1.3136                 1.2383                 1.4027
 IR Inten    --      3.6987                 6.9264                 1.6060

                     49                     50                     51
                      A                      A                      A
 Frequencies --   1347.5157              1371.5129              1392.5522
 Red. masses --      1.1918                 1.8450                 1.4876
 Frc consts  --      1.2750                 2.0448                 1.6996
 IR Inten    --     14.4554                19.9810                13.2979

                     52                     53                     54
                      A                      A                      A
 Frequencies --   1396.0324              1408.5710              1440.0623
 Red. masses --      1.4104                 1.3553                 1.2262
 Frc consts  --      1.6196                 1.5843                 1.4982
 IR Inten    --      3.6323                 3.8040                 3.5959

                     55                     56                     57
                      A                      A                      A
 Frequencies --   1444.1621              1448.7619              1511.8483
 Red. masses --      1.2509                 1.2588                 1.0813
 Frc consts  --      1.5371                 1.5566                 1.4561
 IR Inten    --      7.7892                11.8982                 4.7908

                     58                     59                     60
                      A                      A                      A
 Frequencies --   1514.1830              1517.1597              1527.0489
 Red. masses --      1.0751                 1.0668                 1.0482
 Frc consts  --      1.4523                 1.4467                 1.4401
 IR Inten    --      6.5680                 1.9325                 1.6522

                     61                     62                     63
                      A                      A                      A
 Frequencies --   1528.8046              1529.8403              1530.8186
 Red. masses --      1.0435                 1.0460                 1.0473
 Frc consts  --      1.4369                 1.4424                 1.4459
 IR Inten    --      6.7257                 7.0375                 6.3167

                     64                     65                     66
                      A                      A                      A
 Frequencies --   1536.9810              1540.2226              1843.5018
 Red. masses --      1.0642                 1.0479                 9.4710
 Frc consts  --      1.4812                 1.4647                18.9642
 IR Inten    --      5.1195                 2.7867               282.6734

                     67                     68                     69
                      A                      A                      A
 Frequencies --   3041.5570              3049.3931              3054.9282
 Red. masses --      1.0612                 1.0388                 1.0574
 Frc consts  --      5.7842                 5.6912                 5.8144
 IR Inten    --     29.7621                19.8921                 6.9170

                     70                     71                     72
                      A                      A                      A
 Frequencies --   3057.6532              3058.8199              3060.5955
 Red. masses --      1.0522                 1.0535                 1.0361
 Frc consts  --      5.7957                 5.8076                 5.7185
 IR Inten    --      9.8717                23.8327                23.1847

                     73                     74                     75
                      A                      A                      A
 Frequencies --   3077.2409              3081.0180              3100.5375
 Red. masses --      1.0960                 1.0821                 1.0921
 Frc consts  --      6.1147                 6.0522                 6.1858
 IR Inten    --      9.6021                24.1749                 6.0799

                     76                     77                     78
                      A                      A                      A
 Frequencies --   3102.7765              3110.2440              3115.0085
 Red. masses --      1.0948                 1.1043                 1.1021
 Frc consts  --      6.2097                 6.2940                 6.3008
 IR Inten    --     10.7023                16.2906                46.3359

                     79                     80                     81
                      A                      A                      A
 Frequencies --   3122.5230              3124.9731              3132.7759
 Red. masses --      1.1008                 1.1003                 1.1019
 Frc consts  --      6.3239                 6.3310                 6.3718
 IR Inten    --     37.5298                30.4518                33.8684

                     82                     83                     84
                      A                      A                      A
 Frequencies --   3137.3370              3142.9017              3679.4122
 Red. masses --      1.1028                 1.1020                 1.0640
 Frc consts  --      6.3953                 6.4134                 8.4869
 IR Inten    --     27.7613                19.1540                55.0123

 - Thermochemistry -
 -------------------
 Temperature   298.150 Kelvin.  Pressure   1.00000 Atm.
 Atom     1 has atomic number  6 and mass  12.00000

 Molecular mass:   190.10275 amu.
 Principal axes and moments of inertia in atomic units:
                           1         2         3
     Eigenvalues --  1404.463554112.961124505.68870
           X            0.99971   0.00355  -0.02374
           Y           -0.00304   0.99976   0.02150
           Z            0.02381  -0.02142   0.99949
 This molecule is an asymmetric top.
 Rotational symmetry number  1.
 Warning -- assumption of classical behavior for rotation
           may cause significant error
 Rotational temperatures (Kelvin)      0.06167     0.02106     0.01922
 Rotational constants (GHZ):           1.28500     0.43879     0.40055
 Zero-point vibrational energy     693669.1 (Joules/Mol)
                                  165.79090 (Kcal/Mol)
 Warning -- explicit consideration of  21 degrees of freedom as
           vibrations may cause significant error
 Vibrational temperatures:     16.73    57.69    68.48    99.08   149.31
          (Kelvin)            180.83   211.91   242.78   294.55   302.24
                              313.60   344.31   386.37   425.45   458.74
                              464.61   557.71   628.13   672.94   768.41
                              859.29   925.39   963.87  1034.70  1104.52
                             1124.62  1167.76  1220.38  1254.01  1307.30
                             1309.97  1351.98  1473.41  1511.72  1528.08
                             1549.72  1556.27  1591.80  1604.03  1621.97
                             1702.09  1726.93  1788.66  1827.87  1860.27
                             1887.63  1897.29  1930.49  1938.77  1973.30
                             2003.57  2008.58  2026.62  2071.93  2077.83
                             2084.45  2175.21  2178.57  2182.85  2197.08
                             2199.61  2201.10  2202.51  2211.37  2216.04
                             2652.39  4376.12  4387.40  4395.36  4399.28
                             4400.96  4403.51  4427.46  4432.90  4460.98
                             4464.20  4474.95  4481.80  4492.61  4496.14
                             4507.37  4513.93  4521.93  5293.85

 Zero-point correction=                           0.264205 (Hartree/Particle)
 Thermal correction to Energy=                    0.279449
 Thermal correction to Enthalpy=                  0.280393
 Thermal correction to Gibbs Free Energy=         0.219815
 Sum of electronic and zero-point Energies=           -902.246667
 Sum of electronic and thermal Energies=              -902.231423
 Sum of electronic and thermal Enthalpies=            -902.230479
 Sum of electronic and thermal Free Energies=         -902.291057

                     E (Thermal)             CV                S
                      KCal/Mol        Cal/Mol-Kelvin    Cal/Mol-Kelvin
 Total                  175.357             54.252            127.497
 Electronic               0.000              0.000              0.000
 Translational            0.889              2.981             41.633
 Rotational               0.889              2.981             31.632
 Vibrational            173.579             48.291             54.233
 Vibration     1          0.593              1.987              7.712
 Vibration     2          0.594              1.981              5.254
 Vibration     3          0.595              1.978              4.915
 Vibration     4          0.598              1.969              4.186
 Vibration     5          0.605              1.946              3.382
 Vibration     6          0.611              1.927              3.011
 Vibration     7          0.617              1.906              2.707
 Vibration     8          0.625              1.881              2.449
 Vibration     9          0.640              1.833              2.090
 Vibration    10          0.642              1.825              2.043
 Vibration    11          0.646              1.814              1.976
 Vibration    12          0.657              1.780              1.808
 Vibration    13          0.673              1.731              1.606
 Vibration    14          0.690              1.682              1.441
 Vibration    15          0.705              1.638              1.316
 Vibration    16          0.708              1.630              1.295
 Vibration    17          0.756              1.497              1.009
 Vibration    18          0.797              1.390              0.837
 Vibration    19          0.825              1.322              0.744
 Vibration    20          0.889              1.175              0.578
 Vibration    21          0.955              1.038              0.454

                           ! Non-Optimized Parameters !
 Normal termination of Gaussian 16 at Wed Dec  9 17:56:20 2020.

 ----------------------------------------------------------------------
 # B3LYP/6-311++G(d,p) empiricaldispersion=gd3bj scf=xqc pop=npa geom=c
 heck
 ----------------------------------------------------------------------

 --------------------------------------
 CID_88643444_JID_2586_Energie_neutraal
 --------------------------------------
 Structure from the checkpoint file:  "JID_2586.chk"
 Charge =  0 Multiplicity = 1

 SCF Done:  E(RB3LYP) =  -902.693947629     A.U. after   14 cycles
 Normal termination of Gaussian 16 at Wed Dec  9 18:00:39 2020.

 ----------------------------------------------------------------------
 # B3LYP/6-311++G(d,p) empiricaldispersion=gd3bj scf=xqc pop=npa geom=c
 heck
 ----------------------------------------------------------------------

 ------------------------------------
 CID_88643444_JID_2586_Energie_kation
 ------------------------------------
 Structure from the checkpoint file:  "JID_2586.chk"
 Charge =  1 Multiplicity = 2

 SCF Done:  E(UB3LYP) =  -902.389134001     A.U. after   20 cycles
 Normal termination of Gaussian 16 at Wed Dec  9 18:08:24 2020.
 Gaussian 16:  ES64L-G16RevA.03 25-Dec-2016

 ----------------------------------------------------------------------
 # B3LYP/6-311++G(d,p) empiricaldispersion=gd3bj scf=xqc pop=npa geom=c
 heck
 ----------------------------------------------------------------------

 -----------------------------------
 CID_88643444_JID_2586_Energie_anion
 -----------------------------------
 Structure from the checkpoint file:  "JID_2586.chk"
 Charge = -1 Multiplicity = 2

                         Standard orientation:
 ---------------------------------------------------------------------
 Center     Atomic      Atomic             Coordinates (Angstroms)
 Number     Number       Type             X           Y           Z
 ---------------------------------------------------------------------
      1          6           0       -3.874383   -1.131520    0.502726
      2          6           0       -3.628717    0.378297    0.564273
      3          6           0       -2.146166    0.765928    0.595672
      4         16           0       -1.343055    0.345410   -1.004188
      5          6           0        0.428504    0.743563   -0.668159
      6          6           0        0.638524    2.239674   -0.417035
      7          6           0        1.036546   -0.117215    0.460501
      8          6           0        0.786044   -1.642490    0.340250
      9          6           0        1.237018   -2.280208   -0.975065
     10          6           0        2.528822    0.121801    0.622164
     11          8           0        3.114519    0.154117    1.681425
     12          8           0        3.183426    0.249188   -0.563757
     13          1           0       -3.460028   -1.566816   -0.411715
     14          1           0       -4.946495   -1.354116    0.529734
     15          1           0       -3.404677   -1.637786    1.355080
     16          1           0       -4.115097    0.874061   -0.285453
     17          1           0       -4.095201    0.788629    1.469521
     18          1           0       -2.041641    1.839461    0.779042
     19          1           0       -1.642307    0.229920    1.407978
     20          1           0        0.910658    0.475190   -1.612425
     21          1           0        0.180097    2.552967    0.527134
     22          1           0        1.707584    2.473464   -0.363211
     23          1           0        0.198637    2.831461   -1.224020
     24          1           0        0.612100    0.205333    1.417025
     25          1           0        1.289652   -2.126408    1.185845
     26          1           0       -0.287945   -1.808929    0.470489
     27          1           0        2.300796   -2.111002   -1.168085
     28          1           0        1.065332   -3.361518   -0.946347
     29          1           0        0.670591   -1.880505   -1.822219
     30          1           0        4.126108    0.356603   -0.334681
 ---------------------------------------------------------------------

 SCF Done:  E(UB3LYP) =  -902.681026516     A.U. after   33 cycles
 SCF Done:  E(UB3LYP) =  -902.681026515     a.u. after    1 cycles

 The electronic state is 2-A.
 Alpha  occ. eigenvalues --  -88.73534 -19.07020 -19.01745 -10.20715 -10.11246
 Alpha  occ. eigenvalues --  -10.09770 -10.09733 -10.08004 -10.07756 -10.06839
 Alpha  occ. eigenvalues --  -10.06489 -10.06260  -7.82184  -5.78577  -5.78217
 Alpha  occ. eigenvalues --   -5.77543  -1.01138  -0.92204  -0.74590  -0.70648
 Alpha  occ. eigenvalues --   -0.67337  -0.62839  -0.60892  -0.56730  -0.53653
 Alpha  occ. eigenvalues --   -0.51133  -0.48586  -0.45853  -0.40213  -0.39143
 Alpha  occ. eigenvalues --   -0.37590  -0.36814  -0.36376  -0.35185  -0.33417
 Alpha  occ. eigenvalues --   -0.32727  -0.31603  -0.31300  -0.30477  -0.29412
 Alpha  occ. eigenvalues --   -0.28628  -0.27213  -0.25814  -0.25299  -0.25123
 Alpha  occ. eigenvalues --   -0.24972  -0.23919  -0.23111  -0.22408  -0.20925
 Alpha  occ. eigenvalues --   -0.17993  -0.12642   0.04350
 Alpha virt. eigenvalues --    0.05905   0.07122   0.07888   0.08180   0.08552
 Alpha virt. eigenvalues --    0.09315   0.09882   0.10424   0.10862   0.11159
 Alpha virt. eigenvalues --    0.11482   0.12055   0.12817   0.13251   0.13483

  Beta  occ. eigenvalues --  -88.73530 -19.06959 -19.01723 -10.20696 -10.11232
  Beta  occ. eigenvalues --  -10.09741 -10.09723 -10.07992 -10.07729 -10.06817
  Beta  occ. eigenvalues --  -10.06475 -10.06230  -7.82180  -5.78568  -5.78214
  Beta  occ. eigenvalues --   -5.77540  -1.01051  -0.92132  -0.74554  -0.70607
  Beta  occ. eigenvalues --   -0.67305  -0.62790  -0.60845  -0.56671  -0.53567
  Beta  occ. eigenvalues --   -0.51061  -0.48500  -0.45792  -0.40178  -0.39092
  Beta  occ. eigenvalues --   -0.37531  -0.36768  -0.36342  -0.35137  -0.33387
  Beta  occ. eigenvalues --   -0.32685  -0.31557  -0.31250  -0.30433  -0.29380
  Beta  occ. eigenvalues --   -0.28602  -0.27174  -0.25770  -0.25259  -0.25076
  Beta  occ. eigenvalues --   -0.24933  -0.23893  -0.23065  -0.22347  -0.20884
  Beta  occ. eigenvalues --   -0.17941  -0.12629
  Beta virt. eigenvalues --    0.06569   0.07195   0.07611   0.08285   0.08825
  Beta virt. eigenvalues --    0.08859   0.09552   0.10147   0.10539   0.11116
  Beta virt. eigenvalues --    0.11554   0.11883   0.12345   0.12976   0.13409

 Mulliken charges and spin densities:
               1          2
     1  C    0.746172  -1.275808
     2  C   -0.420235   0.037913
     3  C   -0.009658  -0.262357
     4  S    0.065394  -0.160012
     5  C   -0.802989   0.796018
     6  C    0.780076  -1.382635
     7  C    1.004616  -0.578525
     8  C   -0.607900   0.345191
     9  C   -0.250890  -0.451422
    10  C    0.255297  -0.626590
    11  O   -0.281350   0.047882
    12  O   -0.195718   0.063601
    13  H   -0.034986   0.176981
    14  H   -0.227713   0.370027
    15  H   -0.156400   0.294836
    16  H   -0.018043   0.149691
    17  H   -0.517138   0.676893
    18  H   -0.164918   0.374091
    19  H   -0.111389   0.239723
    20  H    0.272364   0.020026
    21  H    0.089343   0.067681
    22  H   -0.179914   0.350107
    23  H   -0.077820   0.214906
    24  H    0.012203   0.266544
    25  H    0.025898   0.132099
    26  H    0.232942  -0.053160
    27  H    0.074862   0.087392
    28  H   -0.131760   0.268163
    29  H    0.086872   0.056561
    30  H   -0.457219   0.754183
 Sum of Mulliken charges =  -1.00000   1.00000

 Dipole moment (field-independent basis, Debye):
    X=             -0.8947    Y=             -1.2861    Z=             -2.3909  Tot=              2.8585
 Quadrupole moment (field-independent basis, Debye-Ang):
   XX=           -174.4911   YY=           -118.0300   ZZ=           -118.8912
   XY=             -5.4001   XZ=              7.4848   YZ=             -0.9323

 Summary of Natural Population Analysis:

                                       Natural Population
                Natural  -----------------------------------------------
    Atom  No    Charge         Core      Valence    Rydberg      Total
 -----------------------------------------------------------------------
      C    1   -0.28901      0.99967     2.28286    0.00648     3.28901
      C    2   -0.19421      0.99964     2.18555    0.00902     3.19421
      C    3   -0.25005      0.99959     2.24002    0.01044     3.25005
      S    4    0.08664      4.99961     2.89791    0.01584     7.91336
      C    5   -0.16616      0.99955     2.15260    0.01401     3.16616
      C    6   -0.29071      0.99963     2.28456    0.00652     3.29071
      C    7   -0.15884      0.99950     2.14594    0.01340     3.15884
      C    8   -0.18815      0.99962     2.17966    0.00887     3.18815
      C    9   -0.28937      0.99966     2.28513    0.00459     3.28937
      C   10    0.41560      0.99967     1.55784    0.02688     2.58440
      O   11   -0.30483      0.99987     3.29868    0.00628     4.30483
      O   12   -0.35032      0.99988     3.34254    0.00790     4.35032
      H   13    0.10091      0.00000     0.39795    0.00114     0.39909
      H   14    0.09881      0.00000     0.40017    0.00102     0.40119
      H   15    0.09729      0.00000     0.40150    0.00121     0.40271
      H   16    0.09563      0.00000     0.40322    0.00115     0.40437
      H   17    0.10178      0.00000     0.39619    0.00203     0.39822
      H   18    0.10215      0.00000     0.39611    0.00174     0.39785
      H   19    0.09818      0.00000     0.39990    0.00192     0.40182
      H   20    0.11187      0.00000     0.38647    0.00165     0.38813
      H   21    0.09897      0.00000     0.39987    0.00116     0.40103
      H   22    0.10599      0.00000     0.39261    0.00140     0.39401
      H   23    0.10412      0.00000     0.39480    0.00109     0.39588
      H   24    0.11318      0.00000     0.38489    0.00193     0.38682
      H   25    0.09970      0.00000     0.39931    0.00099     0.40030
      H   26    0.10648      0.00000     0.39206    0.00146     0.39352
      H   27    0.10181      0.00000     0.39695    0.00124     0.39819
      H   28    0.09809      0.00000     0.40103    0.00087     0.40191
      H   29    0.09877      0.00000     0.40015    0.00108     0.40123
      H   30    0.24565      0.00000     0.23381    0.02054     0.25435
 =======================================================================
   * Total *    0.00000     15.99587    35.83028    0.17385    52.00000

 Normal termination of Gaussian 16 at Wed Dec  9 18:21:43 2020.
