 Gaussian 16, Revision A.03,

 -----------------------------------------------------------
 # opt freq B3LYP/6-31G(d) empiricaldispersion=gd3bj scf=xqc
 -----------------------------------------------------------

 ----------------------------
 CID_259193_JID_5678_neutraal
 ----------------------------
 Symbolic Z-matrix:
 Charge =  0 Multiplicity = 1

 SCF Done:  E(RB3LYP) =  -686.400091353     A.U. after   15 cycles
 SCF Done:  E(RB3LYP) =  -686.403891329     A.U. after   12 cycles
 SCF Done:  E(RB3LYP) =  -686.404236493     A.U. after   13 cycles
 SCF Done:  E(RB3LYP) =  -686.404578566     A.U. after   12 cycles
 SCF Done:  E(RB3LYP) =  -686.404831163     A.U. after   11 cycles
 SCF Done:  E(RB3LYP) =  -686.404896601     A.U. after   12 cycles
 SCF Done:  E(RB3LYP) =  -686.404954750     A.U. after   11 cycles
 SCF Done:  E(RB3LYP) =  -686.404994797     A.U. after   11 cycles
 SCF Done:  E(RB3LYP) =  -686.405052130     A.U. after   12 cycles
 SCF Done:  E(RB3LYP) =  -686.405075378     A.U. after   12 cycles
 SCF Done:  E(RB3LYP) =  -686.405214739     A.U. after    8 cycles
 SCF Done:  E(RB3LYP) =  -686.405215465     A.U. after   10 cycles
 SCF Done:  E(RB3LYP) =  -686.405215533     A.U. after    7 cycles
 SCF Done:  E(RB3LYP) =  -686.405215599     A.U. after    7 cycles
 SCF Done:  E(RB3LYP) =  -686.405215625     A.U. after    8 cycles
 Optimization completed.
    -- Stationary point found.
 Normal termination of Gaussian 16 at Thu Dec 10 16:06:36 2020.

 --------------------------------------------------------------------
 #N Geom=AllCheck Guess=TCheck SCRF=Check GenChk RB3LYP/6-31G(d) Freq
 --------------------------------------------------------------------

 Structure from the checkpoint file:  "JID_5678.chk"
 ----------------------------
 CID_259193_JID_5678_neutraal
 ----------------------------
 Charge =  0 Multiplicity = 1

 SCF Done:  E(RB3LYP) =  -686.405215625     A.U. after    1 cycles

  Exact polarizability: 179.720 -10.114 142.354  14.679   8.346  74.357
 Approx polarizability: 266.164 -15.576 241.009  29.420  24.911 116.470

                      1                      2                      3
                      A                      A                      A
 Frequencies --     16.9032                48.3007                66.0984
 Red. masses --      7.6196                 4.1032                 3.4507
 Frc consts  --      0.0013                 0.0056                 0.0089
 IR Inten    --      4.6670                 0.3344                 4.4849

                      4                      5                      6
                      A                      A                      A
 Frequencies --     83.4586               151.6554               169.4771
 Red. masses --      4.7058                 4.2807                 2.8449
 Frc consts  --      0.0193                 0.0580                 0.0481
 IR Inten    --      2.0924                 0.4670                 0.9420

                      7                      8                      9
                      A                      A                      A
 Frequencies --    203.5999               255.6337               261.1259
 Red. masses --      4.1937                 2.2940                 1.4337
 Frc consts  --      0.1024                 0.0883                 0.0576
 IR Inten    --     11.1840                 3.7936                17.8447

                     10                     11                     12
                      A                      A                      A
 Frequencies --    271.7435               295.0165               352.3766
 Red. masses --      1.2497                 2.0807                 2.5157
 Frc consts  --      0.0544                 0.1067                 0.1840
 IR Inten    --    176.0840                19.7337                26.0231

                     13                     14                     15
                      A                      A                      A
 Frequencies --    369.0724               394.3688               417.7114
 Red. masses --      4.7761                 3.3780                 3.5350
 Frc consts  --      0.3833                 0.3095                 0.3634
 IR Inten    --     29.8352                23.5305                21.4567

                     16                     17                     18
                      A                      A                      A
 Frequencies --    440.2290               450.5517               499.8661
 Red. masses --      2.9853                 3.6179                 1.7292
 Frc consts  --      0.3409                 0.4327                 0.2546
 IR Inten    --      0.5281                 1.1442                 1.1999

                     19                     20                     21
                      A                      A                      A
 Frequencies --    553.1960               564.7492               606.5868
 Red. masses --      3.7996                 3.1726                 2.5298
 Frc consts  --      0.6851                 0.5962                 0.5484
 IR Inten    --     10.2883                 9.6847                 4.2632

                     22                     23                     24
                      A                      A                      A
 Frequencies --    630.1615               656.9507               670.8316
 Red. masses --      4.0974                 3.5259                 1.5886
 Frc consts  --      0.9586                 0.8966                 0.4212
 IR Inten    --     11.0974                 3.0503                14.7255

                     25                     26                     27
                      A                      A                      A
 Frequencies --    727.5390               759.8634               786.0096
 Red. masses --      4.9678                 3.9470                 2.1328
 Frc consts  --      1.5493                 1.3427                 0.7763
 IR Inten    --     10.8787                 6.7913                19.2759

                     28                     29                     30
                      A                      A                      A
 Frequencies --    802.1699               806.8344               838.8915
 Red. masses --      2.4402                 1.8071                 4.1833
 Frc consts  --      0.9252                 0.6931                 1.7345
 IR Inten    --     20.7552                 2.0277                10.5938

                     31                     32                     33
                      A                      A                      A
 Frequencies --    862.0490               869.2741               908.8767
 Red. masses --      1.8843                 2.2549                 1.2639
 Frc consts  --      0.8250                 1.0039                 0.6151
 IR Inten    --     17.0848                 6.2548                 0.0091

                     34                     35                     36
                      A                      A                      A
 Frequencies --    937.2478               957.8426              1065.4757
 Red. masses --      3.9695                 2.5411                 2.3573
 Frc consts  --      2.0545                 1.3736                 1.5767
 IR Inten    --      7.4555                 0.8715                 9.5983

                     37                     38                     39
                      A                      A                      A
 Frequencies --   1099.5701              1115.6858              1122.4739
 Red. masses --      3.3943                 2.0141                 1.5995
 Frc consts  --      2.4179                 1.4771                 1.1874
 IR Inten    --     55.5571                29.9871                31.4909

                     40                     41                     42
                      A                      A                      A
 Frequencies --   1175.6496              1186.6677              1208.8082
 Red. masses --      1.3391                 1.2699                 1.3650
 Frc consts  --      1.0905                 1.0536                 1.1751
 IR Inten    --      0.6476                 0.8137                23.1094

                     43                     44                     45
                      A                      A                      A
 Frequencies --   1218.4653              1252.1402              1266.9027
 Red. masses --      1.4031                 2.0025                 2.1873
 Frc consts  --      1.2273                 1.8499                 2.0684
 IR Inten    --      9.2249                72.6698                79.4294

                     46                     47                     48
                      A                      A                      A
 Frequencies --   1293.1713              1325.4538              1346.2899
 Red. masses --      1.6910                 2.1153                 2.8580
 Frc consts  --      1.6662                 2.1895                 3.0521
 IR Inten    --     64.3990                48.6939                55.2196

                     49                     50                     51
                      A                      A                      A
 Frequencies --   1365.4544              1370.1956              1399.4391
 Red. masses --      2.7916                 2.4792                 5.1885
 Frc consts  --      3.0666                 2.7424                 5.9869
 IR Inten    --     61.5430                60.3633                31.5361

                     52                     53                     54
                      A                      A                      A
 Frequencies --   1467.8101              1484.4867              1492.8632
 Red. masses --      3.1346                 1.1130                 1.4814
 Frc consts  --      3.9790                 1.4452                 1.9452
 IR Inten    --      4.6969                 6.0852                61.2883

                     55                     56                     57
                      A                      A                      A
 Frequencies --   1508.2919              1521.3034              1529.9577
 Red. masses --      2.0865                 1.0483                 1.8691
 Frc consts  --      2.7966                 1.4294                 2.5778
 IR Inten    --      9.6811                 4.9758               115.4510

                     58                     59                     60
                      A                      A                      A
 Frequencies --   1541.8082              1611.9556              1638.5844
 Red. masses --      1.3968                 5.3896                 4.8515
 Frc consts  --      1.9564                 8.2511                 7.6748
 IR Inten    --      0.7760                11.0324                54.7631

                     61                     62                     63
                      A                      A                      A
 Frequencies --   1639.9248              1691.6769              1805.4266
 Red. masses --      1.3219                 6.6879                 9.1274
 Frc consts  --      2.0946                11.2765                17.5290
 IR Inten    --    116.4303                24.6283               392.0860

                     64                     65                     66
                      A                      A                      A
 Frequencies --   3018.5510              3047.2237              3074.3798
 Red. masses --      1.0354                 1.0677                 1.1064
 Frc consts  --      5.5582                 5.8414                 6.1611
 IR Inten    --     68.0517                17.9914                49.1885

                     67                     68                     69
                      A                      A                      A
 Frequencies --   3107.2072              3154.5096              3192.5998
 Red. masses --      1.0945                 1.0989                 1.0899
 Frc consts  --      6.2262                 6.4425                 6.5451
 IR Inten    --      8.8977                29.5483                13.8810

                     70                     71                     72
                      A                      A                      A
 Frequencies --   3214.1637              3234.6800              3266.4645
 Red. masses --      1.0906                 1.0908                 1.0968
 Frc consts  --      6.6385                 6.7248                 6.8950
 IR Inten    --      2.7458                10.4741                 1.4360

                     73                     74                     75
                      A                      A                      A
 Frequencies --   3590.6774              3676.4469              3716.7926
 Red. masses --      1.0445                 1.0801                 1.1055
 Frc consts  --      7.9345                 8.6016                 8.9977
 IR Inten    --     35.6134                71.1288                75.9671

 - Thermochemistry -
 -------------------
 Temperature   298.150 Kelvin.  Pressure   1.00000 Atm.
 Atom     1 has atomic number  6 and mass  12.00000

 Molecular mass:   204.08988 amu.
 Principal axes and moments of inertia in atomic units:
                           1         2         3
     Eigenvalues --  1961.813354482.884716039.12148
           X            0.99973  -0.02287   0.00417
           Y            0.02287   0.99974   0.00000
           Z           -0.00417   0.00009   0.99999
 This molecule is an asymmetric top.
 Rotational symmetry number  1.
 Warning -- assumption of classical behavior for rotation
           may cause significant error
 Rotational temperatures (Kelvin)      0.04415     0.01932     0.01434
 Rotational constants (GHZ):           0.91994     0.40258     0.29884
 Zero-point vibrational energy     572568.0 (Joules/Mol)
                                  136.84703 (Kcal/Mol)
 Warning -- explicit consideration of  21 degrees of freedom as
           vibrations may cause significant error
 Vibrational temperatures:     24.32    69.49    95.10   120.08   218.20
          (Kelvin)            243.84   292.93   367.80   375.70   390.98
                              424.46   506.99   531.01   567.41   600.99
                              633.39   648.24   719.20   795.93   812.55
                              872.74   906.66   945.21   965.18  1046.77
                             1093.27  1130.89  1154.14  1160.85  1206.98
                             1240.30  1250.69  1307.67  1348.49  1378.12
                             1532.98  1582.04  1605.22  1614.99  1691.50
                             1707.35  1739.21  1753.10  1801.55  1822.79
                             1860.59  1907.03  1937.01  1964.58  1971.41
                             2013.48  2111.85  2135.85  2147.90  2170.10
                             2188.82  2201.27  2218.32  2319.24  2357.56
                             2359.49  2433.95  2597.61  4343.02  4384.28
                             4423.35  4470.58  4538.64  4593.44  4624.46
                             4653.98  4699.71  5166.18  5289.59  5347.64

 Zero-point correction=                           0.218080 (Hartree/Particle)
 Thermal correction to Energy=                    0.231913
 Thermal correction to Enthalpy=                  0.232857
 Thermal correction to Gibbs Free Energy=         0.176121
 Sum of electronic and zero-point Energies=           -686.187136
 Sum of electronic and thermal Energies=              -686.173303
 Sum of electronic and thermal Enthalpies=            -686.172359
 Sum of electronic and thermal Free Energies=         -686.229095

                     E (Thermal)             CV                S
                      KCal/Mol        Cal/Mol-Kelvin    Cal/Mol-Kelvin
 Total                  145.527             52.686            119.411
 Electronic               0.000              0.000              0.000
 Translational            0.889              2.981             41.844
 Rotational               0.889              2.981             32.341
 Vibrational            143.750             46.725             45.226
 Vibration     1          0.593              1.986              6.968
 Vibration     2          0.595              1.978              4.886
 Vibration     3          0.597              1.970              4.266
 Vibration     4          0.600              1.961              3.808
 Vibration     5          0.619              1.901              2.651
 Vibration     6          0.625              1.880              2.441
 Vibration     7          0.639              1.835              2.100
 Vibration     8          0.666              1.753              1.691
 Vibration     9          0.669              1.744              1.654
 Vibration    10          0.675              1.725              1.585
 Vibration    11          0.689              1.683              1.445
 Vibration    12          0.729              1.570              1.156
 Vibration    13          0.741              1.536              1.084
 Vibration    14          0.761              1.482              0.984
 Vibration    15          0.781              1.432              0.900
 Vibration    16          0.800              1.382              0.826
 Vibration    17          0.809              1.360              0.794
 Vibration    18          0.855              1.250              0.658
 Vibration    19          0.909              1.133              0.538
 Vibration    20          0.921              1.108              0.514
 Vibration    21          0.965              1.018              0.438

                           ! Non-Optimized Parameters !
 Normal termination of Gaussian 16 at Thu Dec 10 16:14:39 2020.

 ----------------------------------------------------------------------
 # B3LYP/6-311++G(d,p) empiricaldispersion=gd3bj scf=xqc pop=npa geom=c
 heck
 ----------------------------------------------------------------------

 ------------------------------------
 CID_259193_JID_5678_Energie_neutraal
 ------------------------------------
 Structure from the checkpoint file:  "JID_5678.chk"
 Charge =  0 Multiplicity = 1

 SCF Done:  E(RB3LYP) =  -686.604835505     A.U. after   15 cycles
 Normal termination of Gaussian 16 at Thu Dec 10 16:18:26 2020.

 ----------------------------------------------------------------------
 # B3LYP/6-311++G(d,p) empiricaldispersion=gd3bj scf=xqc pop=npa geom=c
 heck
 ----------------------------------------------------------------------

 ----------------------------------
 CID_259193_JID_5678_Energie_kation
 ----------------------------------
 Structure from the checkpoint file:  "JID_5678.chk"
 Charge =  1 Multiplicity = 2

 SCF Done:  E(UB3LYP) =  -686.333189776     A.U. after   24 cycles
 Normal termination of Gaussian 16 at Thu Dec 10 16:26:32 2020.
 Gaussian 16:  ES64L-G16RevA.03 25-Dec-2016

 ----------------------------------------------------------------------
 # B3LYP/6-311++G(d,p) empiricaldispersion=gd3bj scf=xqc pop=npa geom=c
 heck
 ----------------------------------------------------------------------

 ---------------------------------
 CID_259193_JID_5678_Energie_anion
 ---------------------------------
 Structure from the checkpoint file:  "JID_5678.chk"
 Charge = -1 Multiplicity = 2

                         Standard orientation:
 ---------------------------------------------------------------------
 Center     Atomic      Atomic             Coordinates (Angstroms)
 Number     Number       Type             X           Y           Z
 ---------------------------------------------------------------------
      1          6           0        4.167461   -1.717197   -0.046231
      2          8           0        2.773811   -1.731092   -0.290018
      3          6           0        2.078464   -0.558728   -0.141647
      4          6           0        0.711593   -0.633440   -0.404036
      5          6           0       -0.069663    0.523308   -0.275729
      6          6           0        0.547178    1.741649    0.126843
      7          6           0        1.913050    1.816571    0.389228
      8          6           0        2.675771    0.658937    0.252440
      9          7           0       -0.446901    2.702601    0.181362
     10          6           0       -1.652118    2.127863   -0.172962
     11          6           0       -1.476797    0.796090   -0.461412
     12          6           0       -2.534533   -0.180337   -0.871765
     13          6           0       -2.971782   -1.237590    0.157375
     14          8           0       -3.936784   -1.957344   -0.055956
     15          7           0       -2.225205   -1.316864    1.294935
     16          1           0        4.513583   -2.736825   -0.225342
     17          1           0        4.396594   -1.435339    0.990712
     18          1           0        4.692507   -1.032947   -0.726690
     19          1           0        0.282909   -1.584974   -0.701329
     20          1           0        2.381774    2.747805    0.694837
     21          1           0        3.738477    0.707017    0.454972
     22          1           0       -0.310528    3.673080    0.414038
     23          1           0       -2.557610    2.718612   -0.195684
     24          1           0       -3.449885    0.340859   -1.169415
     25          1           0       -2.213799   -0.747191   -1.756250
     26          1           0       -1.366844   -0.797431    1.403563
     27          1           0       -2.430397   -2.068104    1.937696
 ---------------------------------------------------------------------

 SCF Done:  E(UB3LYP) =  -686.597275536     A.U. after   33 cycles
 SCF Done:  E(UB3LYP) =  -686.597275536     a.u. after    1 cycles

 The electronic state is 2-A.
 Alpha  occ. eigenvalues --  -19.05861 -19.00318 -14.25890 -14.24903 -10.19119
 Alpha  occ. eigenvalues --  -10.13762 -10.13126 -10.11385 -10.11074 -10.09933
 Alpha  occ. eigenvalues --  -10.08470 -10.08407 -10.08035 -10.07931 -10.07728
 Alpha  occ. eigenvalues --   -0.97445  -0.95371  -0.88601  -0.82284  -0.75258
 Alpha  occ. eigenvalues --   -0.71490  -0.66471  -0.65209  -0.62095  -0.60054
 Alpha  occ. eigenvalues --   -0.53597  -0.51314  -0.50058  -0.47650  -0.46062
 Alpha  occ. eigenvalues --   -0.45095  -0.42546  -0.40399  -0.38150  -0.37782
 Alpha  occ. eigenvalues --   -0.37353  -0.36168  -0.34478  -0.33808  -0.33018
 Alpha  occ. eigenvalues --   -0.32236  -0.31778  -0.30594  -0.30227  -0.28071
 Alpha  occ. eigenvalues --   -0.27309  -0.26189  -0.23732  -0.21271  -0.19765
 Alpha  occ. eigenvalues --   -0.19213  -0.17173  -0.12512  -0.11061   0.03889
 Alpha virt. eigenvalues --    0.05508   0.06334   0.06897   0.07543   0.08309
 Alpha virt. eigenvalues --    0.08793   0.09569   0.09732   0.10796   0.11009
 Alpha virt. eigenvalues --    0.11199   0.11659   0.12704   0.12925   0.13556

  Beta  occ. eigenvalues --  -19.05853 -19.00317 -14.25832 -14.24895 -10.19119
  Beta  occ. eigenvalues --  -10.13762 -10.13089 -10.11366 -10.11076 -10.09930
  Beta  occ. eigenvalues --  -10.08447 -10.08399 -10.08037 -10.07920 -10.07728
  Beta  occ. eigenvalues --   -0.97426  -0.95369  -0.88542  -0.82274  -0.75233
  Beta  occ. eigenvalues --   -0.71465  -0.66445  -0.65177  -0.62060  -0.59997
  Beta  occ. eigenvalues --   -0.53550  -0.51286  -0.50010  -0.47618  -0.46035
  Beta  occ. eigenvalues --   -0.45041  -0.42516  -0.40355  -0.38119  -0.37757
  Beta  occ. eigenvalues --   -0.37335  -0.36133  -0.34434  -0.33781  -0.32993
  Beta  occ. eigenvalues --   -0.32226  -0.31752  -0.30571  -0.30194  -0.28057
  Beta  occ. eigenvalues --   -0.27287  -0.26164  -0.23701  -0.21249  -0.19752
  Beta  occ. eigenvalues --   -0.19205  -0.17166  -0.12504  -0.11043
  Beta virt. eigenvalues --    0.06122   0.06353   0.06851   0.07613   0.08252
  Beta virt. eigenvalues --    0.08797   0.09127   0.10038   0.10193   0.10869
  Beta virt. eigenvalues --    0.11209   0.11633   0.11732   0.12794   0.12995

 Mulliken charges and spin densities:
               1          2
     1  C    0.696964  -1.021007
     2  O   -0.201706   0.038221
     3  C   -1.128952   0.298463
     4  C   -1.189001   0.326384
     5  C    1.386074  -0.499425
     6  C    0.371343  -0.936368
     7  C    0.078849  -0.552137
     8  C    1.246716  -0.744079
     9  N   -0.127314   0.034312
    10  C    0.303944  -0.406721
    11  C    0.841158  -0.052922
    12  C   -0.325273  -0.094816
    13  C   -0.116455   0.028410
    14  O   -0.365130   0.001148
    15  N   -0.396591  -0.016217
    16  H   -0.229990   0.395516
    17  H   -0.220144   0.372061
    18  H   -0.172413   0.326877
    19  H    0.152339   0.028631
    20  H   -1.066181   1.249576
    21  H    0.008012   0.182258
    22  H   -0.536867   0.880162
    23  H   -0.853744   1.040863
    24  H    0.209491   0.006325
    25  H    0.142373   0.024335
    26  H    0.249792   0.032699
    27  H    0.242705   0.057450
 Sum of Mulliken charges =  -1.00000   1.00000

 Dipole moment (field-independent basis, Debye):
    X=             -1.8859    Y=             -6.0786    Z=             -0.8884  Tot=              6.4262
 Quadrupole moment (field-independent basis, Debye-Ang):
   XX=           -168.4090   YY=           -162.9361   ZZ=           -110.0414
   XY=             -2.4682   XZ=             -3.5937   YZ=             -8.7541

 Summary of Natural Population Analysis:

                                       Natural Population
                Natural  -----------------------------------------------
    Atom  No    Charge         Core      Valence    Rydberg      Total
 -----------------------------------------------------------------------
      C    1   -0.10073      0.99960     2.09193    0.00919     3.10073
      O    2   -0.27744      0.99986     3.26794    0.00964     4.27744
      C    3    0.15126      0.99939     1.83533    0.01401     2.84874
      C    4   -0.12827      0.99949     2.12005    0.00873     3.12827
      C    5   -0.04429      0.99947     2.03482    0.01000     3.04429
      C    6    0.06912      0.99947     1.91850    0.01292     2.93088
      C    7   -0.09866      0.99953     2.08884    0.01029     3.09866
      C    8   -0.14305      0.99953     2.13426    0.00926     3.14305
      N    9   -0.26676      0.99966     2.75606    0.01104     3.76676
      C   10    0.01625      0.99949     1.97109    0.01317     2.98375
      C   11   -0.07797      0.99949     2.06659    0.01190     3.07797
      C   12   -0.23892      0.99956     2.23029    0.00907     3.23892
      C   13    0.34255      0.99971     1.63523    0.02251     2.65745
      O   14   -0.32850      0.99988     3.32262    0.00601     4.32850
      N   15   -0.40218      0.99970     2.89604    0.00645     3.90218
      H   16    0.09240      0.00000     0.40652    0.00109     0.40760
      H   17    0.08468      0.00000     0.41369    0.00163     0.41532
      H   18    0.08451      0.00000     0.41399    0.00150     0.41549
      H   19    0.10601      0.00000     0.39246    0.00153     0.39399
      H   20    0.10882      0.00000     0.38887    0.00231     0.39118
      H   21    0.10682      0.00000     0.39154    0.00164     0.39318
      H   22    0.21186      0.00000     0.25551    0.03263     0.28814
      H   23    0.10348      0.00000     0.39490    0.00162     0.39652
      H   24    0.11655      0.00000     0.38238    0.00108     0.38345
      H   25    0.11393      0.00000     0.38490    0.00117     0.38607
      H   26    0.20530      0.00000     0.29298    0.00172     0.29470
      H   27    0.19325      0.00000     0.30475    0.00200     0.30675
 =======================================================================
   * Total *   -0.00000     14.99382    38.79210    0.21408    54.00000

 Normal termination of Gaussian 16 at Thu Dec 10 16:41:59 2020.
