 Gaussian 16, Revision A.03,

 -----------------------------------------------------------
 # opt freq B3LYP/6-31G(d) empiricaldispersion=gd3bj scf=xqc
 -----------------------------------------------------------

 ------------------------------
 CID_49869757_JID_6283_neutraal
 ------------------------------
 Symbolic Z-matrix:
 Charge =  0 Multiplicity = 1

 SCF Done:  E(RB3LYP) =  -756.503940385     A.U. after   15 cycles
 SCF Done:  E(RB3LYP) =  -756.508865009     A.U. after   13 cycles
 SCF Done:  E(RB3LYP) =  -756.508736548     A.U. after   13 cycles
 SCF Done:  E(RB3LYP) =  -756.510034822     A.U. after   12 cycles
 SCF Done:  E(RB3LYP) =  -756.510198006     A.U. after   12 cycles
 SCF Done:  E(RB3LYP) =  -756.510290891     A.U. after   11 cycles
 SCF Done:  E(RB3LYP) =  -756.510323450     A.U. after   12 cycles
 SCF Done:  E(RB3LYP) =  -756.510341083     A.U. after   11 cycles
 SCF Done:  E(RB3LYP) =  -756.510347757     A.U. after    9 cycles
 SCF Done:  E(RB3LYP) =  -756.510349673     A.U. after    9 cycles
 SCF Done:  E(RB3LYP) =  -756.510350271     A.U. after    8 cycles
 Optimization completed.
    -- Stationary point found.
 Normal termination of Gaussian 16 at Thu Dec 10 21:57:29 2020.

 --------------------------------------------------------------------
 #N Geom=AllCheck Guess=TCheck SCRF=Check GenChk RB3LYP/6-31G(d) Freq
 --------------------------------------------------------------------

 Structure from the checkpoint file:  "JID_6283.chk"
 ------------------------------
 CID_49869757_JID_6283_neutraal
 ------------------------------
 Charge =  0 Multiplicity = 1

 SCF Done:  E(RB3LYP) =  -756.510350271     A.U. after    1 cycles

  Exact polarizability: 176.443  12.037 125.957  12.695  -9.952  85.522
 Approx polarizability: 258.082  29.161 233.369  28.455 -16.441 142.923

                      1                      2                      3
                      A                      A                      A
 Frequencies --     29.3515                37.7952                64.9516
 Red. masses --      4.9658                 6.3516                 5.7102
 Frc consts  --      0.0025                 0.0053                 0.0142
 IR Inten    --      0.8740                 3.6988                 0.5810

                      4                      5                      6
                      A                      A                      A
 Frequencies --     99.6503               104.0321               152.9837
 Red. masses --      2.7180                 7.1530                 3.4837
 Frc consts  --      0.0159                 0.0456                 0.0480
 IR Inten    --      0.3792                10.2636                 6.1083

                      7                      8                      9
                      A                      A                      A
 Frequencies --    164.3025               189.4535               227.8164
 Red. masses --      4.2465                 3.9031                 2.6023
 Frc consts  --      0.0675                 0.0825                 0.0796
 IR Inten    --      1.1620                 1.5840                 0.3904

                     10                     11                     12
                      A                      A                      A
 Frequencies --    244.4856               289.8669               356.5548
 Red. masses --      1.9131                 3.5045                 6.4387
 Frc consts  --      0.0674                 0.1735                 0.4823
 IR Inten    --      4.2352                 2.1542                 5.2793

                     13                     14                     15
                      A                      A                      A
 Frequencies --    387.8691               393.1524               407.8340
 Red. masses --      4.1422                 3.3993                 4.5589
 Frc consts  --      0.3672                 0.3096                 0.4468
 IR Inten    --      1.6038                 4.2315                12.2571

                     16                     17                     18
                      A                      A                      A
 Frequencies --    513.2302               522.8171               561.3621
 Red. masses --      4.6808                 5.9089                 1.3526
 Frc consts  --      0.7264                 0.9516                 0.2511
 IR Inten    --      4.3457                 4.2944               104.9399

                     19                     20                     21
                      A                      A                      A
 Frequencies --    606.1980               635.5131               649.7584
 Red. masses --      4.6051                 3.5143                 5.5500
 Frc consts  --      0.9971                 0.8362                 1.3805
 IR Inten    --      3.0533                15.0314                19.4061

                     22                     23                     24
                      A                      A                      A
 Frequencies --    676.4998               711.2533               741.2651
 Red. masses --      8.4806                 7.1912                 5.5035
 Frc consts  --      2.2867                 2.1434                 1.7817
 IR Inten    --      2.7124                20.9692                14.2348

                     25                     26                     27
                      A                      A                      A
 Frequencies --    760.4747               784.3352               802.3454
 Red. masses --      4.5485                 5.0720                 1.2709
 Frc consts  --      1.5498                 1.8384                 0.4820
 IR Inten    --      0.9499                44.4096                 9.0284

                     28                     29                     30
                      A                      A                      A
 Frequencies --    864.6981               869.8250               874.2798
 Red. masses --      1.4302                 1.5805                 4.9375
 Frc consts  --      0.6300                 0.7045                 2.2236
 IR Inten    --      9.4936                10.8633                25.8098

                     31                     32                     33
                      A                      A                      A
 Frequencies --    919.7239               933.2497               939.6359
 Red. masses --      2.4265                 2.0965                 5.1132
 Frc consts  --      1.2093                 1.0758                 2.6599
 IR Inten    --      7.7606                10.9867                 0.6111

                     34                     35                     36
                      A                      A                      A
 Frequencies --    985.9120               989.4371              1034.0279
 Red. masses --      2.3643                 1.3328                 7.1365
 Frc consts  --      1.3541                 0.7687                 4.4957
 IR Inten    --      4.3685                 0.6832                10.2998

                     37                     38                     39
                      A                      A                      A
 Frequencies --   1071.6180              1094.1897              1112.7130
 Red. masses --      3.1954                 2.0735                 1.5363
 Frc consts  --      2.1620                 1.4627                 1.1207
 IR Inten    --      4.5625                46.6296                 0.4112

                     40                     41                     42
                      A                      A                      A
 Frequencies --   1124.4615              1137.8393              1186.6428
 Red. masses --      2.7032                 2.2996                 2.2348
 Frc consts  --      2.0138                 1.7542                 1.8541
 IR Inten    --     38.4769                46.4874                60.5529

                     43                     44                     45
                      A                      A                      A
 Frequencies --   1220.0949              1278.7825              1302.0639
 Red. masses --      3.1663                 2.1941                 1.5676
 Frc consts  --      2.7771                 2.1140                 1.5659
 IR Inten    --      6.0935                18.7553                12.2153

                     46                     47                     48
                      A                      A                      A
 Frequencies --   1309.1228              1333.6583              1361.3849
 Red. masses --      1.7394                 1.7907                 2.2124
 Frc consts  --      1.7563                 1.8765                 2.4159
 IR Inten    --     25.9126                 6.6644               155.6509

                     49                     50                     51
                      A                      A                      A
 Frequencies --   1373.5077              1397.5229              1429.2319
 Red. masses --      1.8508                 2.2542                 1.3462
 Frc consts  --      2.0571                 2.5940                 1.6202
 IR Inten    --    130.0534                20.9713                11.4523

                     52                     53                     54
                      A                      A                      A
 Frequencies --   1448.4856              1484.2253              1509.0696
 Red. masses --      3.7438                 1.9939                 1.1244
 Frc consts  --      4.6280                 2.5879                 1.5086
 IR Inten    --     83.7022                19.1541                 4.6623

                     55                     56                     57
                      A                      A                      A
 Frequencies --   1516.9420              1522.2278              1530.8575
 Red. masses --      2.4896                 1.7313                 1.6231
 Frc consts  --      3.3753                 2.3637                 2.2412
 IR Inten    --    114.4376                16.8343                42.3109

                     58                     59                     60
                      A                      A                      A
 Frequencies --   1546.2491              1608.7518              1623.4232
 Red. masses --      1.1782                 4.8199                 6.0487
 Frc consts  --      1.6597                 7.3497                 9.3925
 IR Inten    --     10.1790                22.9353               119.4716

                     61                     62                     63
                      A                      A                      A
 Frequencies --   1638.6869              1771.8573              3064.2120
 Red. masses --      5.9320                 8.3754                 1.0357
 Frc consts  --      9.3852                15.4923                 5.7298
 IR Inten    --     85.5851               373.2517                30.7337

                     64                     65                     66
                      A                      A                      A
 Frequencies --   3076.7806              3119.4144              3133.6580
 Red. masses --      1.0593                 1.1046                 1.1032
 Frc consts  --      5.9081                 6.3327                 6.3830
 IR Inten    --     12.5321                 8.0631                26.6099

                     67                     68                     69
                      A                      A                      A
 Frequencies --   3160.3831              3180.2282              3202.0502
 Red. masses --      1.1027                 1.0911                 1.0907
 Frc consts  --      6.4889                 6.5017                 6.5891
 IR Inten    --     13.9178                12.7632                10.7004

                     70                     71                     72
                      A                      A                      A
 Frequencies --   3243.6305              3291.5105              3574.7749
 Red. masses --      1.0939                 1.0993                 1.0754
 Frc consts  --      6.7811                 7.0169                 8.0971
 IR Inten    --      3.0469                 0.1479                45.2198

 - Thermochemistry -
 -------------------
 Temperature   298.150 Kelvin.  Pressure   1.00000 Atm.
 Atom     1 has atomic number  6 and mass  12.00000

 Molecular mass:   218.08038 amu.
 Principal axes and moments of inertia in atomic units:
                           1         2         3
     Eigenvalues --  1563.981585778.169136741.06458
           X            0.99992   0.01117   0.00554
           Y           -0.01107   0.99976  -0.01899
           Z           -0.00575   0.01893   0.99980
 This molecule is an asymmetric top.
 Rotational symmetry number  1.
 Warning -- assumption of classical behavior for rotation
           may cause significant error
 Rotational temperatures (Kelvin)      0.05538     0.01499     0.01285
 Rotational constants (GHZ):           1.15394     0.31234     0.26772
 Zero-point vibrational energy     523403.3 (Joules/Mol)
                                  125.09638 (Kcal/Mol)
 Warning -- explicit consideration of  19 degrees of freedom as
           vibrations may cause significant error
 Vibrational temperatures:     42.23    54.38    93.45   143.37   149.68
          (Kelvin)            220.11   236.39   272.58   327.78   351.76
                              417.05   513.00   558.06   565.66   586.78
                              738.42   752.22   807.67   872.18   914.36
                              934.86   973.33  1023.33  1066.52  1094.15
                             1128.48  1154.40  1244.11  1251.48  1257.89
                             1323.28  1342.74  1351.93  1418.51  1423.58
                             1487.74  1541.82  1574.29  1600.95  1617.85
                             1637.10  1707.31  1755.44  1839.88  1873.38
                             1883.54  1918.84  1958.73  1976.17  2010.72
                             2056.35  2084.05  2135.47  2171.21  2182.54
                             2190.15  2202.56  2224.71  2314.64  2335.74
                             2357.71  2549.31  4408.72  4426.80  4488.14
                             4508.63  4547.09  4575.64  4607.04  4666.86
                             4735.75  5143.30

 Zero-point correction=                           0.199354 (Hartree/Particle)
 Thermal correction to Energy=                    0.213091
 Thermal correction to Enthalpy=                  0.214035
 Thermal correction to Gibbs Free Energy=         0.157122
 Sum of electronic and zero-point Energies=           -756.310996
 Sum of electronic and thermal Energies=              -756.297260
 Sum of electronic and thermal Enthalpies=            -756.296315
 Sum of electronic and thermal Free Energies=         -756.353228

                     E (Thermal)             CV                S
                      KCal/Mol        Cal/Mol-Kelvin    Cal/Mol-Kelvin
 Total                  133.716             51.220            119.782
 Electronic               0.000              0.000              0.000
 Translational            0.889              2.981             42.042
 Rotational               0.889              2.981             32.477
 Vibrational            131.939             45.258             45.263
 Vibration     1          0.593              1.984              5.873
 Vibration     2          0.594              1.982              5.371
 Vibration     3          0.597              1.971              4.301
 Vibration     4          0.604              1.949              3.461
 Vibration     5          0.605              1.946              3.377
 Vibration     6          0.619              1.899              2.635
 Vibration     7          0.623              1.886              2.500
 Vibration     8          0.633              1.854              2.233
 Vibration     9          0.651              1.799              1.896
 Vibration    10          0.660              1.772              1.770
 Vibration    11          0.686              1.693              1.475
 Vibration    12          0.732              1.562              1.137
 Vibration    13          0.756              1.496              1.008
 Vibration    14          0.760              1.485              0.988
 Vibration    15          0.772              1.453              0.934
 Vibration    16          0.868              1.221              0.626
 Vibration    17          0.878              1.199              0.603
 Vibration    18          0.917              1.115              0.521
 Vibration    19          0.965              1.019              0.439

                           ! Non-Optimized Parameters !
 Normal termination of Gaussian 16 at Thu Dec 10 22:06:05 2020.

 ----------------------------------------------------------------------
 # B3LYP/6-311++G(d,p) empiricaldispersion=gd3bj scf=xqc pop=npa geom=c
 heck
 ----------------------------------------------------------------------

 --------------------------------------
 CID_49869757_JID_6283_Energie_neutraal
 --------------------------------------
 Structure from the checkpoint file:  "JID_6283.chk"
 Charge =  0 Multiplicity = 1

 SCF Done:  E(RB3LYP) =  -756.713934140     A.U. after   16 cycles
 Normal termination of Gaussian 16 at Thu Dec 10 22:10:06 2020.

 ----------------------------------------------------------------------
 # B3LYP/6-311++G(d,p) empiricaldispersion=gd3bj scf=xqc pop=npa geom=c
 heck
 ----------------------------------------------------------------------

 ------------------------------------
 CID_49869757_JID_6283_Energie_kation
 ------------------------------------
 Structure from the checkpoint file:  "JID_6283.chk"
 Charge =  1 Multiplicity = 2

 SCF Done:  E(UB3LYP) =  -756.381291250     A.U. after   30 cycles
 Normal termination of Gaussian 16 at Thu Dec 10 22:20:47 2020.
 Gaussian 16:  ES64L-G16RevA.03 25-Dec-2016

 ----------------------------------------------------------------------
 # B3LYP/6-311++G(d,p) empiricaldispersion=gd3bj scf=xqc pop=npa geom=c
 heck
 ----------------------------------------------------------------------

 -----------------------------------
 CID_49869757_JID_6283_Energie_anion
 -----------------------------------
 Structure from the checkpoint file:  "JID_6283.chk"
 Charge = -1 Multiplicity = 2

                         Standard orientation:
 ---------------------------------------------------------------------
 Center     Atomic      Atomic             Coordinates (Angstroms)
 Number     Number       Type             X           Y           Z
 ---------------------------------------------------------------------
      1          6           0        4.339102    0.875887    0.082257
      2          6           0        3.390165    0.085203    0.998262
      3          6           0        2.328545   -0.630541    0.217229
      4          7           0        2.497933   -1.884420   -0.129097
      5          8           0        1.360638   -2.231958   -0.893329
      6          6           0        0.545287   -1.180673   -0.959523
      7          6           0        1.074789   -0.121000   -0.276388
      8          6           0        0.584901    1.261452   -0.146657
      9          8           0        1.345040    2.210851   -0.011907
     10          7           0       -0.783668    1.497807   -0.264694
     11          6           0       -1.884510    0.676683    0.002168
     12          6           0       -3.121147    0.983588   -0.596776
     13          7           0       -4.239437    0.293640   -0.397310
     14          7           0       -4.229409   -0.774415    0.405687
     15          6           0       -3.085232   -1.103275    1.012839
     16          6           0       -1.881163   -0.414016    0.865770
     17          1           0        4.833072    0.207554   -0.630308
     18          1           0        5.109954    1.373209    0.679940
     19          1           0        3.783704    1.637946   -0.469271
     20          1           0        3.950226   -0.660225    1.571549
     21          1           0        2.911187    0.769277    1.705340
     22          1           0       -0.366364   -1.317306   -1.522937
     23          1           0       -0.980245    2.484592   -0.394700
     24          1           0       -3.208263    1.833250   -1.271481
     25          1           0       -3.145405   -1.968746    1.667429
     26          1           0       -0.995649   -0.718827    1.409129
 ---------------------------------------------------------------------

 SCF Done:  E(UB3LYP) =  -756.747679102     A.U. after   27 cycles

 The electronic state is 2-A.
 Alpha  occ. eigenvalues --  -19.08387 -18.95386 -14.24012 -14.22601 -14.19665
 Alpha  occ. eigenvalues --  -14.18980 -10.13754 -10.10797 -10.10131 -10.09564
 Alpha  occ. eigenvalues --  -10.08023 -10.07994 -10.07672 -10.06108 -10.06026
 Alpha  occ. eigenvalues --  -10.05084  -1.02193  -0.91390  -0.87499  -0.81271
 Alpha  occ. eigenvalues --   -0.76662  -0.68921  -0.68206  -0.67143  -0.65816
 Alpha  occ. eigenvalues --   -0.55488  -0.53920  -0.52421  -0.51828  -0.47141
 Alpha  occ. eigenvalues --   -0.44441  -0.42834  -0.40547  -0.37864  -0.36631
 Alpha  occ. eigenvalues --   -0.35742  -0.35131  -0.34232  -0.32176  -0.31405
 Alpha  occ. eigenvalues --   -0.30628  -0.30190  -0.28391  -0.28136  -0.28019
 Alpha  occ. eigenvalues --   -0.27293  -0.25271  -0.24582  -0.21150  -0.19713
 Alpha  occ. eigenvalues --   -0.17821  -0.17633  -0.16794  -0.15087  -0.13759
 Alpha  occ. eigenvalues --   -0.12108  -0.10059   0.02518
 Alpha virt. eigenvalues --    0.07804   0.08541   0.09038   0.09295   0.09751
 Alpha virt. eigenvalues --    0.10438   0.11216   0.11408   0.11896   0.12153
 Alpha virt. eigenvalues --    0.13194   0.13921   0.13959   0.14915   0.15413

  Beta  occ. eigenvalues --  -19.08202 -18.94994 -14.24036 -14.22715 -14.19358
  Beta  occ. eigenvalues --  -14.18688 -10.13459 -10.10479 -10.10131 -10.09311
  Beta  occ. eigenvalues --  -10.08111 -10.08063 -10.07672 -10.06109 -10.06057
  Beta  occ. eigenvalues --  -10.04901  -1.01913  -0.90766  -0.86974  -0.81042
  Beta  occ. eigenvalues --   -0.76590  -0.68576  -0.67917  -0.66787  -0.65737
  Beta  occ. eigenvalues --   -0.55051  -0.53696  -0.52325  -0.51404  -0.46867
  Beta  occ. eigenvalues --   -0.44218  -0.42683  -0.40347  -0.37674  -0.36412
  Beta  occ. eigenvalues --   -0.35296  -0.34975  -0.33987  -0.31969  -0.31234
  Beta  occ. eigenvalues --   -0.30167  -0.29391  -0.28040  -0.27992  -0.27257
  Beta  occ. eigenvalues --   -0.26741  -0.25222  -0.24562  -0.19813  -0.19666
  Beta  occ. eigenvalues --   -0.17414  -0.17269  -0.15888  -0.14297  -0.13032
  Beta  occ. eigenvalues --   -0.11328  -0.09630
  Beta virt. eigenvalues --    0.07833   0.08153   0.09214   0.09430   0.09645
  Beta virt. eigenvalues --    0.10386   0.10729   0.11341   0.11798   0.11935
  Beta virt. eigenvalues --    0.12671   0.13197   0.13918   0.14010   0.14939

 Mulliken charges and spin densities:
               1          2
     1  C   -0.603993   0.001411
     2  C   -0.059942  -0.000081
     3  C    0.501017  -0.096046
     4  N   -0.402156  -0.007161
     5  O    0.204713   0.029039
     6  C   -0.522646   0.303320
     7  C    0.354496   0.055336
     8  C   -0.635131   0.121970
     9  O   -0.371473   0.136229
    10  N   -0.225901  -0.053267
    11  C   -0.235007   0.106314
    12  C   -0.522084  -0.027177
    13  N   -0.101342   0.139284
    14  N   -0.117007   0.130335
    15  C   -0.638679  -0.061104
    16  C    0.671965   0.202492
    17  H    0.128785   0.000387
    18  H    0.115488  -0.000027
    19  H    0.197614   0.002706
    20  H    0.151676  -0.001215
    21  H    0.172133   0.000460
    22  H    0.202348  -0.014193
    23  H    0.266396   0.022831
    24  H    0.123585   0.015217
    25  H    0.137796   0.000717
    26  H    0.207350  -0.007778
 Sum of Mulliken charges =  -1.00000   1.00000

 Dipole moment (field-independent basis, Debye):
    X=              4.8805    Y=              1.1172    Z=              0.6749  Tot=              5.0520
 Quadrupole moment (field-independent basis, Debye-Ang):
   XX=           -164.6670   YY=           -115.5035   ZZ=            -97.8510
   XY=             -2.5370   XZ=              2.5288   YZ=             -2.5217

 Summary of Natural Population Analysis:

                                       Natural Population
                Natural  -----------------------------------------------
    Atom  No    Charge         Core      Valence    Rydberg      Total
 -----------------------------------------------------------------------
      C    1   -0.28251      0.99966     2.27896    0.00389     3.28251
      C    2   -0.20429      0.99960     2.19737    0.00732     3.20429
      C    3    0.10070      0.99957     1.88473    0.01499     2.89930
      N    4   -0.10599      0.99966     2.59320    0.01313     3.60599
      O    5   -0.14908      0.99987     3.14018    0.00904     4.14908
      C    6    0.16613      0.99952     1.82092    0.01343     2.83387
      C    7   -0.14649      0.99943     2.13274    0.01432     3.14649
      C    8    0.37109      0.99963     1.60766    0.02161     2.62891
      O    9   -0.28570      0.99988     3.28012    0.00571     4.28570
      N   10   -0.32743      0.99966     2.81722    0.01055     3.82743
      C   11    0.10955      0.99947     1.87966    0.01132     2.89045
      C   12   -0.02609      0.99957     2.01223    0.01430     3.02609
      N   13   -0.09216      0.99973     2.57459    0.01784     3.59216
      N   14   -0.11103      0.99973     2.59338    0.01791     3.61103
      C   15   -0.00455      0.99961     1.98991    0.01502     3.00455
      C   16   -0.09636      0.99952     2.08913    0.00771     3.09636
      H   17    0.09390      0.00000     0.40511    0.00099     0.40610
      H   18    0.09055      0.00000     0.40855    0.00091     0.40945
      H   19    0.11395      0.00000     0.38506    0.00099     0.38605
      H   20    0.09936      0.00000     0.39935    0.00128     0.40064
      H   21    0.10972      0.00000     0.38912    0.00116     0.39028
      H   22    0.10019      0.00000     0.39889    0.00092     0.39981
      H   23    0.19531      0.00000     0.30277    0.00192     0.30469
      H   24    0.08666      0.00000     0.41200    0.00134     0.41334
      H   25    0.08706      0.00000     0.41154    0.00140     0.41294
      H   26    0.10751      0.00000     0.39104    0.00146     0.39249
 =======================================================================
   * Total *    0.00000     15.99410    40.79543    0.21048    57.00000

 Normal termination of Gaussian 16 at Thu Dec 10 22:30:19 2020.
