 Gaussian 16, Revision A.03,

 -----------------------------------------------------------
 # opt freq B3LYP/6-31G(d) empiricaldispersion=gd3bj scf=xqc
 -----------------------------------------------------------

 -------------------------------
 CID_134989836_JID_5301_neutraal
 -------------------------------
 Symbolic Z-matrix:
 Charge =  0 Multiplicity = 1

 SCF Done:  E(RB3LYP) =  -706.064675247     A.U. after   13 cycles
 SCF Done:  E(RB3LYP) =  -706.068174300     A.U. after   11 cycles
 SCF Done:  E(RB3LYP) =  -706.069026298     A.U. after   12 cycles
 SCF Done:  E(RB3LYP) =  -706.069166226     A.U. after   11 cycles
 SCF Done:  E(RB3LYP) =  -706.069210540     A.U. after   10 cycles
 SCF Done:  E(RB3LYP) =  -706.069251402     A.U. after   10 cycles
 SCF Done:  E(RB3LYP) =  -706.069364602     A.U. after   11 cycles
 SCF Done:  E(RB3LYP) =  -706.069406882     A.U. after   11 cycles
 SCF Done:  E(RB3LYP) =  -706.069428382     A.U. after   10 cycles
 SCF Done:  E(RB3LYP) =  -706.069435595     A.U. after   11 cycles
 SCF Done:  E(RB3LYP) =  -706.069438465     A.U. after    9 cycles
 SCF Done:  E(RB3LYP) =  -706.069438545     A.U. after    9 cycles
 SCF Done:  E(RB3LYP) =  -706.069439002     A.U. after    9 cycles
 SCF Done:  E(RB3LYP) =  -706.069439105     A.U. after    8 cycles
 SCF Done:  E(RB3LYP) =  -706.069439114     A.U. after    6 cycles
 Optimization completed.
    -- Stationary point found.
 Normal termination of Gaussian 16 at Thu Dec 10 15:30:22 2020.

 --------------------------------------------------------------------
 #N Geom=AllCheck Guess=TCheck SCRF=Check GenChk RB3LYP/6-31G(d) Freq
 --------------------------------------------------------------------

 Structure from the checkpoint file:  "JID_5301.chk"
 -------------------------------
 CID_134989836_JID_5301_neutraal
 -------------------------------
 Charge =  0 Multiplicity = 1

 SCF Done:  E(RB3LYP) =  -706.069439114     A.U. after    1 cycles

  Exact polarizability: 151.840   0.831 142.018   0.407   1.843  94.498
 Approx polarizability: 213.455  -0.805 205.933   3.897  13.444 137.335

                      1                      2                      3
                      A                      A                      A
 Frequencies --     19.8554                32.4401                35.0053
 Red. masses --      2.8465                 3.7123                 3.2752
 Frc consts  --      0.0007                 0.0023                 0.0024
 IR Inten    --      0.0135                 1.6685                 2.9310

                      4                      5                      6
                      A                      A                      A
 Frequencies --     81.4124               123.0271               131.5560
 Red. masses --      3.4744                 4.7200                 4.1900
 Frc consts  --      0.0136                 0.0421                 0.0427
 IR Inten    --      0.0408                 2.5639                 2.5664

                      7                      8                      9
                      A                      A                      A
 Frequencies --    139.8802               146.7959               226.4614
 Red. masses --      4.3750                 3.8110                 1.0584
 Frc consts  --      0.0504                 0.0484                 0.0320
 IR Inten    --      5.7396                 5.6729                 1.4204

                     10                     11                     12
                      A                      A                      A
 Frequencies --    236.5611               253.4855               256.5424
 Red. masses --      1.5526                 1.2718                 1.3402
 Frc consts  --      0.0512                 0.0481                 0.0520
 IR Inten    --     10.6530                 3.8353                 1.1854

                     13                     14                     15
                      A                      A                      A
 Frequencies --    262.1731               264.3650               281.2197
 Red. masses --      1.3944                 1.9369                 2.0600
 Frc consts  --      0.0565                 0.0798                 0.0960
 IR Inten    --     16.3144                 2.1854                16.0921

                     16                     17                     18
                      A                      A                      A
 Frequencies --    296.1232               298.4572               334.8639
 Red. masses --      1.3034                 2.7429                 3.4869
 Frc consts  --      0.0673                 0.1440                 0.2304
 IR Inten    --     42.2019                 7.0084                 0.6364

                     19                     20                     21
                      A                      A                      A
 Frequencies --    365.2174               390.0397               414.0576
 Red. masses --      1.5385                 4.2126                 3.6534
 Frc consts  --      0.1209                 0.3776                 0.3690
 IR Inten    --    149.0233                 0.8162                 3.7136

                     22                     23                     24
                      A                      A                      A
 Frequencies --    458.9026               491.2548               531.6850
 Red. masses --      2.7189                 3.4464                 4.9782
 Frc consts  --      0.3374                 0.4900                 0.8292
 IR Inten    --      0.8029                 2.5862                 7.5931

                     25                     26                     27
                      A                      A                      A
 Frequencies --    599.3490               642.9299               693.8093
 Red. masses --      3.4491                 3.4220                 4.3514
 Frc consts  --      0.7300                 0.8334                 1.2341
 IR Inten    --      3.5396                17.2466                 6.1428

                     28                     29                     30
                      A                      A                      A
 Frequencies --    733.8836               738.8387               857.4499
 Red. masses --      3.6335                 5.4811                 3.3324
 Frc consts  --      1.1530                 1.7628                 1.4435
 IR Inten    --      1.5558                 0.7607                13.9316

                     31                     32                     33
                      A                      A                      A
 Frequencies --    869.3810               880.4571               913.5067
 Red. masses --      6.8654                 2.7662                 2.2700
 Frc consts  --      3.0573                 1.2634                 1.1161
 IR Inten    --     12.3108                 8.7574                 4.8088

                     34                     35                     36
                      A                      A                      A
 Frequencies --    951.2865               959.9441               971.1071
 Red. masses --      1.1626                 2.5727                 2.3135
 Frc consts  --      0.6199                 1.3968                 1.2855
 IR Inten    --      2.2240                34.6400                23.5931

                     37                     38                     39
                      A                      A                      A
 Frequencies --    982.0651              1019.6197              1048.3689
 Red. masses --      1.5479                11.6051                 1.6947
 Frc consts  --      0.8796                 7.1085                 1.0974
 IR Inten    --      0.0733                 0.7461                34.8067

                     40                     41                     42
                      A                      A                      A
 Frequencies --   1072.1519              1099.8129              1105.3989
 Red. masses --      1.9401                 2.7693                 2.5438
 Frc consts  --      1.3140                 1.9736                 1.8313
 IR Inten    --     17.7711                11.2779                 9.5235

                     43                     44                     45
                      A                      A                      A
 Frequencies --   1112.2774              1125.5661              1156.2964
 Red. masses --      1.8369                 2.4032                 2.0504
 Frc consts  --      1.3390                 1.7939                 1.6152
 IR Inten    --      7.5012                 0.2428                91.2105

                     46                     47                     48
                      A                      A                      A
 Frequencies --   1160.3026              1205.1367              1213.0491
 Red. masses --      1.9435                 1.8622                 5.9657
 Frc consts  --      1.5416                 1.5935                 5.1721
 IR Inten    --    128.1200                 1.7535                 4.1466

                     49                     50                     51
                      A                      A                      A
 Frequencies --   1285.0303              1299.4562              1344.9795
 Red. masses --      1.4948                 1.5441                 1.8066
 Frc consts  --      1.4543                 1.5362                 1.9255
 IR Inten    --     16.1247                 3.3405                17.7682

                     52                     53                     54
                      A                      A                      A
 Frequencies --   1359.6993              1361.1731              1366.7351
 Red. masses --      1.3307                 1.3033                 1.3113
 Frc consts  --      1.4495                 1.4227                 1.4432
 IR Inten    --     10.2709                 3.1620                 0.7925

                     55                     56                     57
                      A                      A                      A
 Frequencies --   1392.4953              1401.1678              1418.7812
 Red. masses --      2.0542                 2.5438                 1.6598
 Frc consts  --      2.3468                 2.9425                 1.9685
 IR Inten    --    107.8104                99.1746                 7.9417

                     58                     59                     60
                      A                      A                      A
 Frequencies --   1420.1312              1423.4996              1429.3580
 Red. masses --      1.2205                 1.3280                 1.4814
 Frc consts  --      1.4503                 1.5855                 1.7832
 IR Inten    --      2.5494                24.5952                37.1447

                     61                     62                     63
                      A                      A                      A
 Frequencies --   1449.4056              1469.3321              1473.0335
 Red. masses --      1.4527                 1.7785                 1.8536
 Frc consts  --      1.7981                 2.2623                 2.3697
 IR Inten    --     37.0203                32.1732               138.7629

                     64                     65                     66
                      A                      A                      A
 Frequencies --   1516.5358              1520.7209              1521.0471
 Red. masses --      1.0425                 1.0533                 1.0517
 Frc consts  --      1.4126                 1.4352                 1.4336
 IR Inten    --      1.9055                14.4103                14.8048

                     67                     68                     69
                      A                      A                      A
 Frequencies --   1522.4442              1526.1255              1526.6063
 Red. masses --      1.0479                 1.1209                 1.1254
 Frc consts  --      1.4311                 1.5382                 1.5453
 IR Inten    --      1.7761                 8.2109                 2.5526

                     70                     71                     72
                      A                      A                      A
 Frequencies --   1530.7642              1546.2993              1589.2676
 Red. masses --      1.0468                 1.1005                 8.1445
 Frc consts  --      1.4453                 1.5504                12.1202
 IR Inten    --     12.6702                17.0948               321.9447

                     73                     74                     75
                      A                      A                      A
 Frequencies --   1615.7659              3054.2669              3056.8981
 Red. masses --      8.5445                 1.0340                 1.0352
 Frc consts  --     13.1430                 5.6833                 5.6997
 IR Inten    --    268.7157                27.4748                13.1899

                     76                     77                     78
                      A                      A                      A
 Frequencies --   3057.0444              3057.2445              3075.4109
 Red. masses --      1.0353                 1.0356                 1.0843
 Frc consts  --      5.7004                 5.7028                 6.0426
 IR Inten    --     24.5805                 6.9148                14.3925

                     79                     80                     81
                      A                      A                      A
 Frequencies --   3076.8690              3086.1643              3122.6892
 Red. masses --      1.0847                 1.0857                 1.1034
 Frc consts  --      6.0501                 6.0924                 6.3393
 IR Inten    --     13.1030                 5.1071                15.5687

                     82                     83                     84
                      A                      A                      A
 Frequencies --   3124.6884              3132.1737              3132.7106
 Red. masses --      1.1027                 1.1022                 1.1021
 Frc consts  --      6.3431                 6.3708                 6.3725
 IR Inten    --     38.6744                23.8506                21.6265

                     85                     86                     87
                      A                      A                      A
 Frequencies --   3134.5569              3140.6345              3148.1232
 Red. masses --      1.1033                 1.1018                 1.1038
 Frc consts  --      6.3872                 6.4030                 6.4452
 IR Inten    --      2.7999                41.2327                18.1404

                     88                     89                     90
                      A                      A                      A
 Frequencies --   3148.5887              3687.8209              3697.7814
 Red. masses --      1.1039                 1.0649                 1.0645
 Frc consts  --      6.4475                 8.5331                 8.5762
 IR Inten    --     18.4615               109.1408                 0.5417

 - Thermochemistry -
 -------------------
 Temperature   298.150 Kelvin.  Pressure   1.00000 Atm.
 Atom     1 has atomic number  6 and mass  12.00000

 Molecular mass:   211.13208 amu.
 Principal axes and moments of inertia in atomic units:
                           1         2         3
     Eigenvalues --  2873.669403659.800085727.11142
           X            0.99989   0.01352  -0.00581
           Y           -0.01366   0.99960  -0.02474
           Z            0.00547   0.02481   0.99968
 This molecule is an asymmetric top.
 Rotational symmetry number  1.
 Warning -- assumption of classical behavior for rotation
           may cause significant error
 Rotational temperatures (Kelvin)      0.03014     0.02367     0.01512
 Rotational constants (GHZ):           0.62803     0.49313     0.31512
 Zero-point vibrational energy     714331.4 (Joules/Mol)
                                  170.72931 (Kcal/Mol)
 Warning -- explicit consideration of  25 degrees of freedom as
           vibrations may cause significant error
 Vibrational temperatures:     28.57    46.67    50.36   117.13   177.01
          (Kelvin)            189.28   201.26   211.21   325.83   340.36
                              364.71   369.11   377.21   380.36   404.61
                              426.06   429.41   481.79   525.47   561.18
                              595.74   660.26   706.81   764.98   862.33
                              925.03   998.24  1055.89  1063.02  1233.68
                             1250.85  1266.78  1314.33  1368.69  1381.15
                             1397.21  1412.97  1467.01  1508.37  1542.59
                             1582.39  1590.42  1600.32  1619.44  1663.65
                             1669.42  1733.92  1745.31  1848.87  1869.63
                             1935.13  1956.30  1958.42  1966.43  2003.49
                             2015.97  2041.31  2043.25  2048.10  2056.53
                             2085.37  2114.04  2119.37  2181.96  2187.98
                             2188.45  2190.46  2195.75  2196.45  2202.43
                             2224.78  2286.60  2324.73  4394.41  4398.19
                             4398.41  4398.69  4424.83  4426.93  4440.30
                             4492.85  4495.73  4506.50  4507.27  4509.93
                             4518.67  4529.45  4530.12  5305.95  5320.28

 Zero-point correction=                           0.272074 (Hartree/Particle)
 Thermal correction to Energy=                    0.288665
 Thermal correction to Enthalpy=                  0.289610
 Thermal correction to Gibbs Free Energy=         0.226685
 Sum of electronic and zero-point Energies=           -705.797365
 Sum of electronic and thermal Energies=              -705.780774
 Sum of electronic and thermal Enthalpies=            -705.779830
 Sum of electronic and thermal Free Energies=         -705.842754

                     E (Thermal)             CV                S
                      KCal/Mol        Cal/Mol-Kelvin    Cal/Mol-Kelvin
 Total                  181.140             60.417            132.435
 Electronic               0.000              0.000              0.000
 Translational            0.889              2.981             41.946
 Rotational               0.889              2.981             32.466
 Vibrational            179.363             54.455             58.024
 Vibration     1          0.593              1.986              6.649
 Vibration     2          0.594              1.983              5.674
 Vibration     3          0.594              1.982              5.523
 Vibration     4          0.600              1.962              3.857
 Vibration     5          0.610              1.930              3.052
 Vibration     6          0.612              1.922              2.923
 Vibration     7          0.615              1.913              2.806
 Vibration     8          0.617              1.906              2.713
 Vibration     9          0.650              1.801              1.907
 Vibration    10          0.655              1.785              1.829
 Vibration    11          0.665              1.757              1.706
 Vibration    12          0.666              1.752              1.685
 Vibration    13          0.669              1.742              1.647
 Vibration    14          0.671              1.738              1.633
 Vibration    15          0.681              1.708              1.526
 Vibration    16          0.690              1.681              1.439
 Vibration    17          0.692              1.677              1.426
 Vibration    18          0.716              1.606              1.237
 Vibration    19          0.738              1.544              1.100
 Vibration    20          0.758              1.491              1.000
 Vibration    21          0.778              1.440              0.912
 Vibration    22          0.817              1.341              0.769
 Vibration    23          0.847              1.269              0.680
 Vibration    24          0.887              1.180              0.583
 Vibration    25          0.957              1.033              0.451

 Optimization completed.
    -- Stationary point found.
 Normal termination of Gaussian 16 at Thu Dec 10 15:40:07 2020.

 ----------------------------------------------------------------------
 # B3LYP/6-311++G(d,p) empiricaldispersion=gd3bj scf=xqc pop=npa geom=c
 heck
 ----------------------------------------------------------------------

 ---------------------------------------
 CID_134989836_JID_5301_Energie_neutraal
 ---------------------------------------
 Structure from the checkpoint file:  "JID_5301.chk"
 Charge =  0 Multiplicity = 1

 SCF Done:  E(RB3LYP) =  -706.282520027     A.U. after   15 cycles
 Normal termination of Gaussian 16 at Thu Dec 10 15:44:30 2020.

 ----------------------------------------------------------------------
 # B3LYP/6-311++G(d,p) empiricaldispersion=gd3bj scf=xqc pop=npa geom=c
 heck
 ----------------------------------------------------------------------

 -------------------------------------
 CID_134989836_JID_5301_Energie_kation
 -------------------------------------
 Structure from the checkpoint file:  "JID_5301.chk"
 Charge =  1 Multiplicity = 2

 SCF Done:  E(UB3LYP) =  -705.939175901     A.U. after   28 cycles
 Normal termination of Gaussian 16 at Thu Dec 10 15:54:17 2020.
 Gaussian 16:  ES64L-G16RevA.03 25-Dec-2016

 ----------------------------------------------------------------------
 # B3LYP/6-311++G(d,p) empiricaldispersion=gd3bj scf=xqc pop=npa geom=c
 heck
 ----------------------------------------------------------------------

 ------------------------------------
 CID_134989836_JID_5301_Energie_anion
 ------------------------------------
 Structure from the checkpoint file:  "JID_5301.chk"
 Charge = -1 Multiplicity = 2

                         Standard orientation:
 ---------------------------------------------------------------------
 Center     Atomic      Atomic             Coordinates (Angstroms)
 Number     Number       Type             X           Y           Z
 ---------------------------------------------------------------------
      1          6           0        3.500190   -0.467579   -1.190654
      2          6           0        2.687109   -1.161643   -0.084595
      3          6           0        3.353342   -0.984842    1.290756
      4          6           0        1.279368   -0.620525   -0.054203
      5          7           0        1.124129    0.689861    0.200594
      6          6           0       -0.134521    1.126592    0.228373
      7          7           0       -1.211664    0.359569    0.003178
      8          6           0       -0.955076   -0.929578   -0.251371
      9          7           0        0.267039   -1.470774   -0.280885
     10          6           0       -2.144989   -1.842568   -0.462851
     11          6           0       -2.376851   -2.678133    0.806963
     12          8           0       -3.299805   -1.115150   -0.828511
     13          6           0       -0.376872    2.602216    0.470556
     14          6           0       -0.043474    3.388152   -0.808199
     15          8           0       -1.698434    2.847214    0.906554
     16          1           0        3.558006    0.608916   -1.002162
     17          1           0        3.045300   -0.620590   -2.175331
     18          1           0        4.517680   -0.871611   -1.218533
     19          1           0        2.603021   -2.229062   -0.311878
     20          1           0        3.406436    0.075991    1.554424
     21          1           0        2.793628   -1.506421    2.074731
     22          1           0        4.370360   -1.390542    1.270375
     23          1           0       -1.901779   -2.515808   -1.292638
     24          1           0       -2.596083   -2.020657    1.655835
     25          1           0       -3.234507   -3.337752    0.649126
     26          1           0       -1.495109   -3.281614    1.044404
     27          1           0       -3.208833   -0.239071   -0.414743
     28          1           0        0.298983    2.921497    1.271765
     29          1           0       -0.692265    3.064138   -1.629797
     30          1           0       -0.216339    4.452919   -0.629350
     31          1           0        1.000352    3.235156   -1.100219
     32          1           0       -2.248826    2.154863    0.500781
 ---------------------------------------------------------------------

 SCF Done:  E(UB3LYP) =  -706.289885342     A.U. after   33 cycles
 SCF Done:  E(UB3LYP) =  -706.289885342     a.u. after    1 cycles

 The electronic state is 2-A.
 Alpha  occ. eigenvalues --  -18.99513 -18.98713 -14.16800 -14.15466 -14.13811
 Alpha  occ. eigenvalues --  -10.09940 -10.09392 -10.09144 -10.08661 -10.05797
 Alpha  occ. eigenvalues --  -10.05796 -10.04981 -10.04946 -10.04592 -10.03368
 Alpha  occ. eigenvalues --   -0.90531  -0.89606  -0.85661  -0.74702  -0.74137
 Alpha  occ. eigenvalues --   -0.67378  -0.63471  -0.62412  -0.57516  -0.54347
 Alpha  occ. eigenvalues --   -0.53915  -0.50057  -0.47223  -0.44527  -0.40719
 Alpha  occ. eigenvalues --   -0.39581  -0.35742  -0.34109  -0.33250  -0.33050
 Alpha  occ. eigenvalues --   -0.32421  -0.31012  -0.30221  -0.29163  -0.28809
 Alpha  occ. eigenvalues --   -0.27965  -0.27689  -0.25763  -0.25238  -0.25059
 Alpha  occ. eigenvalues --   -0.24725  -0.23309  -0.22694  -0.21804  -0.20794
 Alpha  occ. eigenvalues --   -0.19744  -0.16912  -0.16469  -0.15562  -0.14340
 Alpha  occ. eigenvalues --   -0.12379  -0.10854   0.05071
 Alpha virt. eigenvalues --    0.07722   0.08707   0.09018   0.09576   0.10505
 Alpha virt. eigenvalues --    0.10952   0.11150   0.11390   0.11485   0.11672
 Alpha virt. eigenvalues --    0.13349   0.13432   0.14046   0.14338   0.14592

  Beta  occ. eigenvalues --  -18.99504 -18.98705 -14.16864 -14.15451 -14.13269
  Beta  occ. eigenvalues --  -10.09957 -10.09287 -10.08953 -10.08719 -10.05809
  Beta  occ. eigenvalues --  -10.05050 -10.04968 -10.04931 -10.04573 -10.03299
  Beta  occ. eigenvalues --   -0.90478  -0.89550  -0.85135  -0.74362  -0.73347
  Beta  occ. eigenvalues --   -0.67298  -0.63389  -0.62175  -0.57484  -0.53942
  Beta  occ. eigenvalues --   -0.53458  -0.49937  -0.47043  -0.44341  -0.40525
  Beta  occ. eigenvalues --   -0.39387  -0.35626  -0.33945  -0.32978  -0.32831
  Beta  occ. eigenvalues --   -0.32320  -0.30670  -0.30104  -0.28976  -0.28518
  Beta  occ. eigenvalues --   -0.27773  -0.27515  -0.25724  -0.24950  -0.24875
  Beta  occ. eigenvalues --   -0.24587  -0.23077  -0.22576  -0.21536  -0.20651
  Beta  occ. eigenvalues --   -0.19436  -0.15995  -0.15695  -0.14816  -0.13178
  Beta  occ. eigenvalues --   -0.12198  -0.10457
  Beta virt. eigenvalues --    0.07600   0.08663   0.08990   0.09516   0.10573
  Beta virt. eigenvalues --    0.10898   0.11120   0.11341   0.11489   0.11649
  Beta virt. eigenvalues --    0.13067   0.13305   0.13422   0.14070   0.14282

 Mulliken charges and spin densities:
               1          2
     1  C   -0.504661  -0.124161
     2  C    0.205412   0.100268
     3  C   -0.622025   0.000453
     4  C   -0.692401   0.017666
     5  N    0.019658   0.276059
     6  C   -0.168927  -0.000119
     7  N   -0.033895  -0.049148
     8  C   -0.145535   0.281503
     9  N    0.040908   0.009778
    10  C   -0.296621   0.219498
    11  C    0.013039  -0.276016
    12  O   -0.197199   0.004416
    13  C   -0.392503   0.113204
    14  C   -0.105861  -0.168343
    15  O   -0.190945   0.003639
    16  H    0.146807   0.006534
    17  H    0.103664   0.034627
    18  H    0.083403   0.043099
    19  H    0.143971   0.008569
    20  H    0.147744   0.007256
    21  H    0.135315  -0.000771
    22  H    0.125886   0.000330
    23  H    0.074974   0.108934
    24  H    0.116663   0.015657
    25  H   -0.062279   0.208348
    26  H    0.140451  -0.007696
    27  H    0.239920  -0.003965
    28  H    0.095408   0.082939
    29  H    0.112086   0.030503
    30  H    0.062026   0.082996
    31  H    0.161047  -0.019557
    32  H    0.244473  -0.006499
 Sum of Mulliken charges =  -1.00000   1.00000

 Dipole moment (field-independent basis, Debye):
    X=              3.3397    Y=              0.4484    Z=              0.2139  Tot=              3.3765
 Quadrupole moment (field-independent basis, Debye-Ang):
   XX=           -127.3357   YY=           -126.4847   ZZ=           -104.9573
   XY=             -5.4486   XZ=             -0.8567   YZ=             -5.2870

 Summary of Natural Population Analysis:

                                       Natural Population
                Natural  -----------------------------------------------
    Atom  No    Charge         Core      Valence    Rydberg      Total
 -----------------------------------------------------------------------
      C    1   -0.27924      0.99966     2.27489    0.00470     3.27924
      C    2   -0.13152      0.99957     2.12232    0.00964     3.13152
      C    3   -0.27831      0.99966     2.27435    0.00430     3.27831
      C    4    0.25411      0.99959     1.72674    0.01957     2.74589
      N    5   -0.22590      0.99962     2.71585    0.01043     3.72590
      C    6    0.25715      0.99960     1.72569    0.01756     2.74285
      N    7   -0.32994      0.99961     2.81907    0.01127     3.82994
      C    8    0.34527      0.99960     1.63878    0.01635     2.65473
      N    9   -0.28179      0.99965     2.77284    0.00930     3.78179
      C   10    0.03937      0.99954     1.94373    0.01736     2.96063
      C   11   -0.28368      0.99965     2.27921    0.00483     3.28368
      O   12   -0.37975      0.99990     3.37311    0.00675     4.37975
      C   13    0.04570      0.99954     1.94058    0.01419     2.95430
      C   14   -0.28906      0.99965     2.28449    0.00492     3.28906
      O   15   -0.37917      0.99990     3.37266    0.00661     4.37917
      H   16    0.10390      0.00000     0.39495    0.00116     0.39610
      H   17    0.09912      0.00000     0.39998    0.00091     0.40088
      H   18    0.08872      0.00000     0.41014    0.00114     0.41128
      H   19    0.09923      0.00000     0.39878    0.00198     0.40077
      H   20    0.10436      0.00000     0.39473    0.00092     0.39564
      H   21    0.09839      0.00000     0.40091    0.00070     0.40161
      H   22    0.08850      0.00000     0.41066    0.00084     0.41150
      H   23    0.08951      0.00000     0.40877    0.00172     0.41049
      H   24    0.09418      0.00000     0.40452    0.00130     0.40582
      H   25    0.09353      0.00000     0.40449    0.00198     0.40647
      H   26    0.10108      0.00000     0.39778    0.00113     0.39892
      H   27    0.23636      0.00000     0.26066    0.00298     0.26364
      H   28    0.08848      0.00000     0.40984    0.00168     0.41152
      H   29    0.09675      0.00000     0.40197    0.00128     0.40325
      H   30    0.09352      0.00000     0.40475    0.00173     0.40648
      H   31    0.10317      0.00000     0.39574    0.00109     0.39683
      H   32    0.23799      0.00000     0.25895    0.00306     0.26201
 =======================================================================
   * Total *    0.00000     14.99472    41.82193    0.18335    57.00000

 Normal termination of Gaussian 16 at Thu Dec 10 16:05:51 2020.
