 Gaussian 16, Revision A.03,

 -----------------------------------------------------------
 # opt freq B3LYP/6-31G(d) empiricaldispersion=gd3bj scf=xqc
 -----------------------------------------------------------

 ------------------------------
 CID_65617880_JID_4792_neutraal
 ------------------------------
 Symbolic Z-matrix:
 Charge =  0 Multiplicity = 1

 SCF Done:  E(RB3LYP) =  -610.915293373     A.U. after   14 cycles
 SCF Done:  E(RB3LYP) =  -610.931694641     A.U. after   11 cycles
 SCF Done:  E(RB3LYP) =  -610.931184961     A.U. after   12 cycles
 SCF Done:  E(RB3LYP) =  -610.934422724     A.U. after   12 cycles
 SCF Done:  E(RB3LYP) =  -610.934790254     A.U. after   12 cycles
 SCF Done:  E(RB3LYP) =  -610.934877299     A.U. after   10 cycles
 SCF Done:  E(RB3LYP) =  -610.934915982     A.U. after   10 cycles
 SCF Done:  E(RB3LYP) =  -610.934926243     A.U. after    9 cycles
 SCF Done:  E(RB3LYP) =  -610.934929763     A.U. after    8 cycles
 SCF Done:  E(RB3LYP) =  -610.934931245     A.U. after    8 cycles
 SCF Done:  E(RB3LYP) =  -610.934931992     A.U. after    8 cycles
 SCF Done:  E(RB3LYP) =  -610.934932194     A.U. after    7 cycles
 SCF Done:  E(RB3LYP) =  -610.934932256     A.U. after    6 cycles
 Optimization completed.
    -- Stationary point found.
 Normal termination of Gaussian 16 at Thu Dec 10 09:56:11 2020.

 --------------------------------------------------------------------
 #N Geom=AllCheck Guess=TCheck SCRF=Check GenChk RB3LYP/6-31G(d) Freq
 --------------------------------------------------------------------

 Structure from the checkpoint file:  "JID_4792.chk"
 ------------------------------
 CID_65617880_JID_4792_neutraal
 ------------------------------
 Charge =  0 Multiplicity = 1

 SCF Done:  E(RB3LYP) =  -610.934932256     A.U. after    1 cycles

  Exact polarizability: 142.371   2.642 131.015  -5.482   3.662  99.245
 Approx polarizability: 194.227   5.384 194.137 -11.572   6.065 149.714

                      1                      2                      3
                      A                      A                      A
 Frequencies --     35.5959                82.9751                95.8605
 Red. masses --      3.7401                 2.9695                 3.2213
 Frc consts  --      0.0028                 0.0120                 0.0174
 IR Inten    --      0.2859                 0.5967                 0.9516

                      4                      5                      6
                      A                      A                      A
 Frequencies --    101.8419               144.6839               151.8125
 Red. masses --      5.2235                 2.8971                 3.4971
 Frc consts  --      0.0319                 0.0357                 0.0475
 IR Inten    --      0.1329                 0.5249                 0.5980

                      7                      8                      9
                      A                      A                      A
 Frequencies --    215.9977               261.7634               265.4421
 Red. masses --      2.2882                 1.4185                 1.8287
 Frc consts  --      0.0629                 0.0573                 0.0759
 IR Inten    --      0.1724                 6.4960                 0.3776

                     10                     11                     12
                      A                      A                      A
 Frequencies --    287.9128               293.7287               313.8673
 Red. masses --      2.8052                 1.2353                 1.3100
 Frc consts  --      0.1370                 0.0628                 0.0760
 IR Inten    --      2.1474                 3.1985                28.2237

                     13                     14                     15
                      A                      A                      A
 Frequencies --    319.5259               340.9483               391.3485
 Red. masses --      1.9543                 2.5611                 2.4938
 Frc consts  --      0.1176                 0.1754                 0.2250
 IR Inten    --     15.9523                 0.5820                 6.2026

                     16                     17                     18
                      A                      A                      A
 Frequencies --    405.2834               446.6931               480.9658
 Red. masses --      2.3011                 2.5745                 2.6850
 Frc consts  --      0.2227                 0.3027                 0.3660
 IR Inten    --      1.4480                 0.3918                 9.7099

                     19                     20                     21
                      A                      A                      A
 Frequencies --    510.4533               633.5696               647.5840
 Red. masses --      3.1860                 2.6136                 2.7787
 Frc consts  --      0.4891                 0.6181                 0.6866
 IR Inten    --      3.8990                 6.3242                 5.3606

                     22                     23                     24
                      A                      A                      A
 Frequencies --    688.7262               697.2985               742.6496
 Red. masses --      5.2014                 3.8263                 1.8892
 Frc consts  --      1.4536                 1.0961                 0.6139
 IR Inten    --      1.2474                13.8134                 2.0996

                     25                     26                     27
                      A                      A                      A
 Frequencies --    794.8067               805.5621               879.4773
 Red. masses --      2.3858                 1.8052                 2.0396
 Frc consts  --      0.8880                 0.6902                 0.9295
 IR Inten    --     13.3231                 0.7383                 3.6377

                     28                     29                     30
                      A                      A                      A
 Frequencies --    889.3031               890.0452               904.0328
 Red. masses --      1.4563                 1.6115                 2.2424
 Frc consts  --      0.6786                 0.7522                 1.0798
 IR Inten    --     29.8831                77.2070                 2.1877

                     31                     32                     33
                      A                      A                      A
 Frequencies --    916.1244               947.4101               953.6773
 Red. masses --      2.1838                 2.4024                 1.6956
 Frc consts  --      1.0799                 1.2705                 0.9086
 IR Inten    --      0.9386                 2.2435                 3.9001

                     34                     35                     36
                      A                      A                      A
 Frequencies --    957.1882               973.2043               993.9571
 Red. masses --      1.2134                 1.4702                 2.5271
 Frc consts  --      0.6550                 0.8204                 1.4710
 IR Inten    --      3.6430                 1.1290                 1.2507

                     37                     38                     39
                      A                      A                      A
 Frequencies --   1001.4067              1041.3298              1067.1003
 Red. masses --      7.9879                 2.0604                 2.3648
 Frc consts  --      4.7196                 1.3164                 1.5866
 IR Inten    --      6.3831                17.3893                39.4867

                     40                     41                     42
                      A                      A                      A
 Frequencies --   1073.0412              1111.4889              1147.5929
 Red. masses --      1.1872                 2.7563                 1.5182
 Frc consts  --      0.8054                 2.0063                 1.1780
 IR Inten    --      0.4161                29.8436                11.1799

                     43                     44                     45
                      A                      A                      A
 Frequencies --   1170.4671              1185.8206              1207.0405
 Red. masses --      2.1525                 2.4250                 1.4964
 Frc consts  --      1.7374                 2.0091                 1.2845
 IR Inten    --      8.6323                 3.1847                 1.7455

                     46                     47                     48
                      A                      A                      A
 Frequencies --   1216.9525              1231.4329              1235.0886
 Red. masses --      1.7114                 2.2387                 1.5110
 Frc consts  --      1.4933                 2.0002                 1.3580
 IR Inten    --      3.1327                13.0881                 4.8309

                     49                     50                     51
                      A                      A                      A
 Frequencies --   1262.9209              1267.5589              1287.3721
 Red. masses --      1.3666                 2.1557                 1.4037
 Frc consts  --      1.2843                 2.0407                 1.3706
 IR Inten    --      1.9831                 4.2421                 1.0957

                     52                     53                     54
                      A                      A                      A
 Frequencies --   1293.7092              1331.5193              1343.4847
 Red. masses --      1.5739                 3.7050                 2.0036
 Frc consts  --      1.5520                 3.8702                 2.1308
 IR Inten    --      1.5218                32.0654                37.2890

                     55                     56                     57
                      A                      A                      A
 Frequencies --   1365.9941              1372.7813              1378.9843
 Red. masses --      1.5420                 2.1448                 1.3671
 Frc consts  --      1.6952                 2.3815                 1.5317
 IR Inten    --      6.3084                42.3923                 2.7604

                     58                     59                     60
                      A                      A                      A
 Frequencies --   1396.1033              1425.2019              1439.5512
 Red. masses --      1.6283                 1.3241                 1.7208
 Frc consts  --      1.8699                 1.5846                 2.1011
 IR Inten    --     19.2359                12.7218                17.0786

                     61                     62                     63
                      A                      A                      A
 Frequencies --   1449.2818              1498.3061              1504.4172
 Red. masses --      1.6788                 1.1133                 1.1029
 Frc consts  --      2.0775                 1.4726                 1.4707
 IR Inten    --      5.2399                 4.3345                 3.5156

                     64                     65                     66
                      A                      A                      A
 Frequencies --   1514.0631              1515.2398              1520.4563
 Red. masses --      1.2459                 1.0456                 1.8143
 Frc consts  --      1.6827                 1.4144                 2.4712
 IR Inten    --     14.8919                 1.1142                27.4027

                     67                     68                     69
                      A                      A                      A
 Frequencies --   1528.0836              1537.4928              1540.6930
 Red. masses --      1.2638                 1.1237                 1.0758
 Frc consts  --      1.7387                 1.5651                 1.5046
 IR Inten    --      7.7331                 3.6675                 0.8745

                     70                     71                     72
                      A                      A                      A
 Frequencies --   1553.9550              1557.2837              1691.6083
 Red. masses --      1.2705                 2.7424                 1.0938
 Frc consts  --      1.8076                 3.9185                 1.8441
 IR Inten    --     10.3138                12.1994                35.3361

                     73                     74                     75
                      A                      A                      A
 Frequencies --   3052.9025              3054.6387              3065.2006
 Red. masses --      1.0576                 1.0362                 1.0675
 Frc consts  --      5.8075                 5.6966                 5.9091
 IR Inten    --     44.3462                35.2146                25.2475

                     76                     77                     78
                      A                      A                      A
 Frequencies --   3067.7356              3082.8738              3089.0911
 Red. masses --      1.0374                 1.0606                 1.0639
 Frc consts  --      5.7520                 5.9391                 5.9813
 IR Inten    --     13.4086                31.9917                13.3306

                     79                     80                     81
                      A                      A                      A
 Frequencies --   3092.9215              3102.1464              3128.4546
 Red. masses --      1.0849                 1.1058                 1.1021
 Frc consts  --      6.1145                 6.2696                 6.3551
 IR Inten    --      6.9332                27.6492                13.2167

                     82                     83                     84
                      A                      A                      A
 Frequencies --   3131.0772              3132.4206              3134.6524
 Red. masses --      1.1034                 1.1040                 1.1025
 Frc consts  --      6.3734                 6.3824                 6.3825
 IR Inten    --     59.6346                35.3071                 2.1515

                     85                     86                     87
                      A                      A                      A
 Frequencies --   3151.1665              3153.2906              3157.8269
 Red. masses --      1.1044                 1.1005                 1.0994
 Frc consts  --      6.4614                 6.4473                 6.4594
 IR Inten    --      3.2915                 8.9487                27.4406

                     88                     89                     90
                      A                      A                      A
 Frequencies --   3269.0441              3449.3106              3535.5828
 Red. masses --      1.0969                 1.0501                 1.0914
 Frc consts  --      6.9065                 7.3610                 8.0380
 IR Inten    --     12.6664                 2.0126                 1.2764

 - Thermochemistry -
 -------------------
 Temperature   298.150 Kelvin.  Pressure   1.00000 Atm.
 Atom     1 has atomic number  6 and mass  12.00000

 Molecular mass:   194.15315 amu.
 Principal axes and moments of inertia in atomic units:
                           1         2         3
     Eigenvalues --  1696.153993389.344824291.29706
           X            0.99946   0.03284  -0.00173
           Y           -0.03282   0.99941   0.00997
           Z            0.00206  -0.00990   0.99995
 This molecule is an asymmetric top.
 Rotational symmetry number  1.
 Warning -- assumption of classical behavior for rotation
           may cause significant error
 Rotational temperatures (Kelvin)      0.05106     0.02555     0.02018
 Rotational constants (GHZ):           1.06402     0.53247     0.42056
 Zero-point vibrational energy     745132.8 (Joules/Mol)
                                  178.09101 (Kcal/Mol)
 Warning -- explicit consideration of  19 degrees of freedom as
           vibrations may cause significant error
 Vibrational temperatures:     51.21   119.38   137.92   146.53   208.17
          (Kelvin)            218.42   310.77   376.62   381.91   414.24
                              422.61   451.59   459.73   490.55   563.06
                              583.11   642.69   692.00   734.43   911.57
                              931.73   990.92  1003.26  1068.51  1143.55
                             1159.02  1265.37  1279.51  1280.58  1300.70
                             1318.10  1363.11  1372.13  1377.18  1400.22
                             1430.08  1440.80  1498.24  1535.32  1543.87
                             1599.18  1651.13  1684.04  1706.13  1736.66
                             1750.92  1771.76  1777.02  1817.06  1823.73
                             1852.24  1861.36  1915.76  1932.97  1965.36
                             1975.13  1984.05  2008.68  2050.55  2071.19
                             2085.19  2155.73  2164.52  2178.40  2180.09
                             2187.60  2198.57  2212.11  2216.71  2235.79
                             2240.58  2433.85  4392.45  4394.94  4410.14
                             4413.79  4435.57  4444.51  4450.02  4463.30
                             4501.15  4504.92  4506.85  4510.07  4533.83
                             4536.88  4543.41  4703.43  4962.79  5086.92

 Zero-point correction=                           0.283806 (Hartree/Particle)
 Thermal correction to Energy=                    0.297569
 Thermal correction to Enthalpy=                  0.298513
 Thermal correction to Gibbs Free Energy=         0.243648
 Sum of electronic and zero-point Energies=           -610.651126
 Sum of electronic and thermal Energies=              -610.637364
 Sum of electronic and thermal Enthalpies=            -610.636419
 Sum of electronic and thermal Free Energies=         -610.691284

                     E (Thermal)             CV                S
                      KCal/Mol        Cal/Mol-Kelvin    Cal/Mol-Kelvin
 Total                  186.727             53.644            115.473
 Electronic               0.000              0.000              0.000
 Translational            0.889              2.981             41.696
 Rotational               0.889              2.981             31.579
 Vibrational            184.950             47.682             42.199
 Vibration     1          0.594              1.982              5.490
 Vibration     2          0.600              1.961              3.819
 Vibration     3          0.603              1.952              3.537
 Vibration     4          0.604              1.948              3.419
 Vibration     5          0.616              1.908              2.741
 Vibration     6          0.619              1.901              2.649
 Vibration     7          0.645              1.817              1.992
 Vibration     8          0.669              1.743              1.650
 Vibration     9          0.671              1.736              1.626
 Vibration    10          0.685              1.696              1.486
 Vibration    11          0.689              1.685              1.452
 Vibration    12          0.702              1.647              1.342
 Vibration    13          0.705              1.636              1.313
 Vibration    14          0.720              1.594              1.208
 Vibration    15          0.759              1.489              0.995
 Vibration    16          0.770              1.459              0.943
 Vibration    17          0.806              1.368              0.806
 Vibration    18          0.837              1.292              0.707
 Vibration    19          0.866              1.227              0.632

 Optimization completed.
    -- Stationary point found.
 Normal termination of Gaussian 16 at Thu Dec 10 10:05:40 2020.

 ----------------------------------------------------------------------
 # B3LYP/6-311++G(d,p) empiricaldispersion=gd3bj scf=xqc pop=npa geom=c
 heck
 ----------------------------------------------------------------------

 --------------------------------------
 CID_65617880_JID_4792_Energie_neutraal
 --------------------------------------
 Structure from the checkpoint file:  "JID_4792.chk"
 Charge =  0 Multiplicity = 1

 SCF Done:  E(RB3LYP) =  -611.104459482     A.U. after   14 cycles
 Normal termination of Gaussian 16 at Thu Dec 10 10:09:30 2020.

 ----------------------------------------------------------------------
 # B3LYP/6-311++G(d,p) empiricaldispersion=gd3bj scf=xqc pop=npa geom=c
 heck
 ----------------------------------------------------------------------

 ------------------------------------
 CID_65617880_JID_4792_Energie_kation
 ------------------------------------
 Structure from the checkpoint file:  "JID_4792.chk"
 Charge =  1 Multiplicity = 2

 SCF Done:  E(UB3LYP) =  -610.790243368     A.U. after   25 cycles
 Normal termination of Gaussian 16 at Thu Dec 10 10:19:00 2020.
 Gaussian 16:  ES64L-G16RevA.03 25-Dec-2016

 ----------------------------------------------------------------------
 # B3LYP/6-311++G(d,p) empiricaldispersion=gd3bj scf=xqc pop=npa geom=c
 heck
 ----------------------------------------------------------------------

 -----------------------------------
 CID_65617880_JID_4792_Energie_anion
 -----------------------------------
 Structure from the checkpoint file:  "JID_4792.chk"
 Charge = -1 Multiplicity = 2

                         Standard orientation:
 ---------------------------------------------------------------------
 Center     Atomic      Atomic             Coordinates (Angstroms)
 Number     Number       Type             X           Y           Z
 ---------------------------------------------------------------------
      1          6           0       -1.960002   -1.855603   -1.183182
      2          6           0       -2.400475   -0.850840   -0.121373
      3          6           0       -2.336970   -1.420309    1.298227
      4          7           0       -1.675524    0.433261   -0.181070
      5          6           0       -0.403205    0.810113   -0.490397
      6          7           0       -0.271515    2.121604   -0.278217
      7          6           0       -1.492685    2.494711    0.181265
      8          7           0       -2.380520    1.518483    0.257819
      9          6           0        0.743637   -0.007082   -1.003563
     10          6           0        1.705508   -0.540253    0.082429
     11          6           0        3.127480   -0.796672   -0.522115
     12          6           0        3.562445    0.593476    0.006555
     13          6           0        2.330605    0.588763    0.947796
     14          7           0        1.042253   -1.599317    0.834990
     15          1           0       -0.998160   -2.311976   -0.939869
     16          1           0       -1.897364   -1.395868   -2.174675
     17          1           0       -2.701383   -2.659716   -1.228325
     18          1           0       -3.430733   -0.556873   -0.340107
     19          1           0       -1.298343   -1.642015    1.559629
     20          1           0       -2.737933   -0.692120    2.008894
     21          1           0       -2.935899   -2.336220    1.361402
     22          1           0       -1.740571    3.512076    0.452804
     23          1           0        0.406957   -0.844939   -1.619265
     24          1           0        1.306528    0.661802   -1.661009
     25          1           0        3.631170   -1.611317    0.010651
     26          1           0        3.193495   -0.987420   -1.599553
     27          1           0        3.486648    1.371491   -0.758717
     28          1           0        4.548943    0.661589    0.472699
     29          1           0        1.753457    1.510253    1.042225
     30          1           0        2.582293    0.215778    1.947468
     31          1           0        0.934341   -2.424923    0.244789
     32          1           0        1.635673   -1.885634    1.612451
 ---------------------------------------------------------------------

 SCF Done:  E(UB3LYP) =  -611.092770146     A.U. after   29 cycles

 The electronic state is 2-A.
 Alpha  occ. eigenvalues --  -14.29555 -14.23596 -14.20201 -14.19019 -10.14470
 Alpha  occ. eigenvalues --  -10.12398 -10.11900 -10.11120 -10.08343 -10.06909
 Alpha  occ. eigenvalues --  -10.06638 -10.06241 -10.06199 -10.05634  -0.97566
 Alpha  occ. eigenvalues --   -0.80834  -0.80160  -0.74842  -0.71860  -0.68195
 Alpha  occ. eigenvalues --   -0.63588  -0.59511  -0.56264  -0.54867  -0.52319
 Alpha  occ. eigenvalues --   -0.52195  -0.46560  -0.43625  -0.40872  -0.39579
 Alpha  occ. eigenvalues --   -0.39228  -0.37482  -0.37103  -0.35989  -0.34332
 Alpha  occ. eigenvalues --   -0.32569  -0.31378  -0.30162  -0.28959  -0.28811
 Alpha  occ. eigenvalues --   -0.28577  -0.28061  -0.26203  -0.25808  -0.24906
 Alpha  occ. eigenvalues --   -0.23436  -0.23250  -0.22079  -0.20818  -0.18556
 Alpha  occ. eigenvalues --   -0.18008  -0.16210  -0.13995   0.04441
 Alpha virt. eigenvalues --    0.06791   0.07734   0.07910   0.08511   0.09346
 Alpha virt. eigenvalues --    0.09574   0.09755   0.10185   0.10711   0.11226
 Alpha virt. eigenvalues --    0.11689   0.12433   0.12596   0.13080   0.13640

  Beta  occ. eigenvalues --  -14.29554 -14.23595 -14.20197 -14.18964 -10.14469
  Beta  occ. eigenvalues --  -10.12390 -10.11899 -10.11121 -10.08321 -10.06899
  Beta  occ. eigenvalues --  -10.06586 -10.06210 -10.06184 -10.05616  -0.97562
  Beta  occ. eigenvalues --   -0.80818  -0.80112  -0.74827  -0.71799  -0.68170
  Beta  occ. eigenvalues --   -0.63551  -0.59447  -0.56209  -0.54833  -0.52278
  Beta  occ. eigenvalues --   -0.52179  -0.46520  -0.43563  -0.40839  -0.39535
  Beta  occ. eigenvalues --   -0.39170  -0.37451  -0.37072  -0.35952  -0.34302
  Beta  occ. eigenvalues --   -0.32547  -0.31347  -0.30127  -0.28926  -0.28778
  Beta  occ. eigenvalues --   -0.28540  -0.28022  -0.26170  -0.25776  -0.24869
  Beta  occ. eigenvalues --   -0.23421  -0.23216  -0.22053  -0.20778  -0.18548
  Beta  occ. eigenvalues --   -0.17999  -0.16203  -0.13945
  Beta virt. eigenvalues --    0.07009   0.07566   0.08236   0.08366   0.08872
  Beta virt. eigenvalues --    0.09648   0.09840   0.10189   0.10522   0.11122
  Beta virt. eigenvalues --    0.11486   0.12201   0.12829   0.12943   0.13239

 Mulliken charges and spin densities:
               1          2
     1  C    2.250129  -2.825861
     2  C   -2.396187   2.337792
     3  C    0.511459  -1.058674
     4  N    0.212388  -0.034798
     5  C    0.920448  -1.286237
     6  N   -0.054682   0.004216
     7  C    0.111114  -0.096511
     8  N   -0.042099  -0.005634
     9  C    0.634765  -1.183481
    10  C   -0.392532   0.701269
    11  C   -0.240560  -0.020603
    12  C    0.286405  -0.680826
    13  C   -0.523114   0.166014
    14  N   -0.402414   0.030057
    15  H   -0.751713   0.893082
    16  H   -0.216034   0.381612
    17  H   -0.446761   0.615408
    18  H   -0.045412   0.240814
    19  H    0.164106   0.065548
    20  H    0.061619   0.076417
    21  H   -0.151893   0.280965
    22  H    0.135517   0.005821
    23  H    0.297698  -0.125949
    24  H    0.047406   0.163402
    25  H   -0.411743   0.563928
    26  H   -0.451909   0.609377
    27  H    0.123861  -0.001666
    28  H    0.031665   0.107566
    29  H    0.173095   0.007969
    30  H   -0.116488   0.239463
    31  H   -0.091487   0.339798
    32  H   -0.226647   0.489724
 Sum of Mulliken charges =  -1.00000   1.00000

 Dipole moment (field-independent basis, Debye):
    X=             -1.0558    Y=              7.1562    Z=              0.9060  Tot=              7.2902
 Quadrupole moment (field-independent basis, Debye-Ang):
   XX=           -143.5911   YY=           -142.5392   ZZ=           -122.1950
   XY=              2.7364   XZ=             -4.2101   YZ=             -2.6344

 Summary of Natural Population Analysis:

                                       Natural Population
                Natural  -----------------------------------------------
    Atom  No    Charge         Core      Valence    Rydberg      Total
 -----------------------------------------------------------------------
      C    1   -0.29091      0.99964     2.28513    0.00614     3.29091
      C    2   -0.00213      0.99959     1.98986    0.01268     3.00213
      C    3   -0.29414      0.99963     2.28921    0.00530     3.29414
      N    4   -0.11579      0.99960     2.60247    0.01371     3.61579
      C    5    0.21071      0.99960     1.77223    0.01747     2.78929
      N    6   -0.27508      0.99970     2.76697    0.00841     3.77508
      C    7    0.08497      0.99970     1.89613    0.01920     2.91503
      N    8   -0.16405      0.99974     2.65481    0.00951     3.66405
      C    9   -0.21713      0.99953     2.20553    0.01207     3.21713
      C   10    0.06150      0.99955     1.92199    0.01696     2.93850
      C   11   -0.19233      0.99959     2.18351    0.00923     3.19233
      C   12   -0.19340      0.99965     2.18572    0.00804     3.19340
      C   13   -0.19177      0.99959     2.18353    0.00865     3.19177
      N   14   -0.42751      0.99973     2.91608    0.01170     3.92751
      H   15    0.10346      0.00000     0.39411    0.00243     0.39654
      H   16    0.10259      0.00000     0.39599    0.00142     0.39741
      H   17    0.10797      0.00000     0.39039    0.00164     0.39203
      H   18    0.10187      0.00000     0.39637    0.00175     0.39813
      H   19    0.11864      0.00000     0.37993    0.00143     0.38136
      H   20    0.10148      0.00000     0.39762    0.00090     0.39852
      H   21    0.09898      0.00000     0.40012    0.00090     0.40102
      H   22    0.08911      0.00000     0.41010    0.00078     0.41089
      H   23    0.11371      0.00000     0.38449    0.00180     0.38629
      H   24    0.11329      0.00000     0.38496    0.00175     0.38671
      H   25    0.10210      0.00000     0.39547    0.00243     0.39790
      H   26    0.09745      0.00000     0.40126    0.00129     0.40255
      H   27    0.09480      0.00000     0.40405    0.00114     0.40520
      H   28    0.09510      0.00000     0.40396    0.00094     0.40490
      H   29    0.10954      0.00000     0.38913    0.00133     0.39046
      H   30    0.09744      0.00000     0.40142    0.00114     0.40256
      H   31    0.17949      0.00000     0.31526    0.00525     0.32051
      H   32    0.18005      0.00000     0.31634    0.00361     0.31995
 =======================================================================
   * Total *   -0.00000     13.99485    38.81416    0.19099    53.00000

 Normal termination of Gaussian 16 at Thu Dec 10 10:33:23 2020.
