 Gaussian 16, Revision A.03,

 -----------------------------------------------------------
 # opt freq B3LYP/6-31G(d) empiricaldispersion=gd3bj scf=xqc
 -----------------------------------------------------------

 ------------------------------
 CID_148484243_JID_479_neutraal
 ------------------------------
 Symbolic Z-matrix:
 Charge =  0 Multiplicity = 1

 SCF Done:  E(RB3LYP) =  -406.640399834     A.U. after   13 cycles
 SCF Done:  E(RB3LYP) =  -406.665489246     A.U. after   11 cycles
 SCF Done:  E(RB3LYP) =  -406.675719347     A.U. after   11 cycles
 SCF Done:  E(RB3LYP) =  -406.678295247     A.U. after   10 cycles
 SCF Done:  E(RB3LYP) =  -406.679713597     A.U. after   11 cycles
 SCF Done:  E(RB3LYP) =  -406.679964139     A.U. after   10 cycles
 SCF Done:  E(RB3LYP) =  -406.680112164     A.U. after    9 cycles
 SCF Done:  E(RB3LYP) =  -406.680175400     A.U. after    9 cycles
 SCF Done:  E(RB3LYP) =  -406.680191683     A.U. after    9 cycles
 SCF Done:  E(RB3LYP) =  -406.680194452     A.U. after    8 cycles
 SCF Done:  E(RB3LYP) =  -406.680195243     A.U. after    7 cycles
 SCF Done:  E(RB3LYP) =  -406.680195527     A.U. after    7 cycles
 SCF Done:  E(RB3LYP) =  -406.680195622     A.U. after    7 cycles
 Optimization completed.
    -- Stationary point found.

 1\1\GINC-NODE106\FOpt\RB3LYP\6-31G(d)\C9H15N1\VSC10255\08-Dec-2020\0\\
 # opt freq B3LYP/6-31G(d) empiricaldispersion=gd3bj scf=xqc\\CID_14848
 4243_JID_479_neutraal\\0,1\C,0.9665667954,-0.0569502578,-0.0593431154\
 C,0.716171452,0.1899953557,1.425570839\N,1.1511356191,1.5343427839,1.7
 940814433\C,1.3430868555,1.8087066451,3.222720914\C,2.5023754623,1.708
 075072,2.2989718849\C,3.6427242216,0.6653777372,2.2841342123\C,4.57845
 04537,1.7729011939,1.7805710923\C,3.4284405574,2.7907645331,1.76974688
 86\C,4.5753184814,2.9367004605,2.735934008\C,3.0277739041,3.8216770204

 Normal termination of Gaussian 16 at Tue Dec  8 10:53:55 2020.

 --------------------------------------------------------------------
 #N Geom=AllCheck Guess=TCheck SCRF=Check GenChk RB3LYP/6-31G(d) Freq
 --------------------------------------------------------------------

 Structure from the checkpoint file:  "JID_479.chk"
 ------------------------------
 CID_148484243_JID_479_neutraal
 ------------------------------
 Charge =  0 Multiplicity = 1

 SCF Done:  E(RB3LYP) =  -406.680195622     A.U. after    1 cycles

  Exact polarizability: 106.602  -0.989  88.487  -0.271   1.132  89.350
 Approx polarizability: 136.499   0.303 127.390  -1.842   0.271 133.335

                      1                      2                      3
                      A                      A                      A
 Frequencies --     87.8014               100.1027               151.7284
 Red. masses --      2.7684                 2.9144                 2.1850
 Frc consts  --      0.0126                 0.0172                 0.0296
 IR Inten    --      0.1075                 0.2349                 0.3322

                      4                      5                      6
                      A                      A                      A
 Frequencies --    176.4512               189.3144               229.4622
 Red. masses --      1.5356                 1.2021                 1.7034
 Frc consts  --      0.0282                 0.0254                 0.0528
 IR Inten    --      0.5195                 0.4746                 0.3563

                      7                      8                      9
                      A                      A                      A
 Frequencies --    271.4539               285.1476               364.0920
 Red. masses --      1.9405                 2.1788                 2.3634
 Frc consts  --      0.0842                 0.1044                 0.1846
 IR Inten    --      0.9784                 0.3164                 0.3845

                     10                     11                     12
                      A                      A                      A
 Frequencies --    412.4627               441.3132               452.4438
 Red. masses --      2.0098                 2.7166                 2.9017
 Frc consts  --      0.2015                 0.3117                 0.3500
 IR Inten    --      0.4428                 1.8279                 1.7823

                     13                     14                     15
                      A                      A                      A
 Frequencies --    516.9220               572.4277               658.1183
 Red. masses --      2.7575                 3.6597                 2.8160
 Frc consts  --      0.4341                 0.7065                 0.7186
 IR Inten    --      5.6283                 0.3769                 2.8179

                     16                     17                     18
                      A                      A                      A
 Frequencies --    778.0866               779.5047               824.3357
 Red. masses --      2.6388                 2.7658                 1.1869
 Frc consts  --      0.9413                 0.9902                 0.4752
 IR Inten    --      8.7550                 5.7292                 1.8388

                     19                     20                     21
                      A                      A                      A
 Frequencies --    839.2691               865.2874               883.5423
 Red. masses --      2.0539                 1.7855                 1.7613
 Frc consts  --      0.8524                 0.7876                 0.8101
 IR Inten    --      0.6687                 2.1703                 4.9952

                     22                     23                     24
                      A                      A                      A
 Frequencies --    912.4549               961.3001               980.1587
 Red. masses --      2.1434                 1.5711                 1.4301
 Frc consts  --      1.0514                 0.8554                 0.8095
 IR Inten    --      4.1854                 3.1790                 3.4839

                     25                     26                     27
                      A                      A                      A
 Frequencies --   1001.0702              1015.7213              1048.9012
 Red. masses --      2.6491                 1.4649                 1.4725
 Frc consts  --      1.5642                 0.8904                 0.9545
 IR Inten    --      2.9307                 3.0423                 1.9689

                     28                     29                     30
                      A                      A                      A
 Frequencies --   1075.1530              1086.8397              1100.8022
 Red. masses --      1.3837                 1.4409                 1.3437
 Frc consts  --      0.9424                 1.0028                 0.9593
 IR Inten    --      7.6705                 1.8391                 0.3133

                     31                     32                     33
                      A                      A                      A
 Frequencies --   1103.7407              1118.6152              1130.7429
 Red. masses --      2.2726                 1.7595                 1.9147
 Frc consts  --      1.6312                 1.2971                 1.4424
 IR Inten    --      2.0775                 8.1954                 2.3157

                     34                     35                     36
                      A                      A                      A
 Frequencies --   1150.1366              1180.0455              1194.3134
 Red. masses --      2.0107                 1.5618                 1.7059
 Frc consts  --      1.5671                 1.2813                 1.4336
 IR Inten    --      5.5386                 1.8957                 3.9959

                     37                     38                     39
                      A                      A                      A
 Frequencies --   1231.9049              1262.0438              1287.1135
 Red. masses --      2.4203                 1.6940                 1.9764
 Frc consts  --      2.1641                 1.5897                 1.9292
 IR Inten    --     33.8164                 3.6357                 5.2417

                     40                     41                     42
                      A                      A                      A
 Frequencies --   1300.8575              1323.8143              1400.2378
 Red. masses --      2.1313                 1.3171                 1.7863
 Frc consts  --      2.1250                 1.3600                 2.0635
 IR Inten    --     11.3782                 7.4002                13.0138

                     43                     44                     45
                      A                      A                      A
 Frequencies --   1403.5987              1434.7433              1440.2656
 Red. masses --      1.4588                 2.2549                 1.3072
 Frc consts  --      1.6933                 2.7348                 1.5976
 IR Inten    --     11.8149                30.5534                12.0345

                     46                     47                     48
                      A                      A                      A
 Frequencies --   1449.8210              1507.5325              1509.6994
 Red. masses --      1.7279                 1.1305                 1.0535
 Frc consts  --      2.1399                 1.5138                 1.4147
 IR Inten    --      2.4468                 1.3035                 3.6483

                     49                     50                     51
                      A                      A                      A
 Frequencies --   1519.3349              1523.3323              1529.2390
 Red. masses --      1.0754                 1.1344                 1.1237
 Frc consts  --      1.4626                 1.5510                 1.5483
 IR Inten    --      3.4808                 0.7782                 2.9971

                     52                     53                     54
                      A                      A                      A
 Frequencies --   1529.8369              1534.1105              1545.1738
 Red. masses --      1.0755                 1.3179                 1.1407
 Frc consts  --      1.4831                 1.8274                 1.6047
 IR Inten    --      5.9242                 8.0797                 4.1460

                     55                     56                     57
                      A                      A                      A
 Frequencies --   2965.6581              3041.7268              3053.5899
 Red. masses --      1.0720                 1.0365                 1.0399
 Frc consts  --      5.5553                 5.6499                 5.7130
 IR Inten    --     52.4805                38.7872                23.9627

                     58                     59                     60
                      A                      A                      A
 Frequencies --   3055.3837              3068.4568              3097.1025
 Red. masses --      1.0584                 1.0892                 1.0529
 Frc consts  --      5.8214                 6.0421                 5.9507
 IR Inten    --     37.6496                30.2569                24.4765

                     61                     62                     63
                      A                      A                      A
 Frequencies --   3100.6623              3112.1010              3113.3501
 Red. masses --      1.1000                 1.0962                 1.0633
 Frc consts  --      6.2306                 6.2552                 6.0725
 IR Inten    --     25.4610                13.9983                45.3891

                     64                     65                     66
                      A                      A                      A
 Frequencies --   3120.4701              3121.8359              3131.5002
 Red. masses --      1.1020                 1.1017                 1.1028
 Frc consts  --      6.3221                 6.3258                 6.3715
 IR Inten    --     46.9277                20.5343                26.6490

                     67                     68                     69
                      A                      A                      A
 Frequencies --   3183.0053              3189.6568              3203.0791
 Red. masses --      1.1170                 1.0963                 1.1093
 Frc consts  --      6.6675                 6.5716                 6.7056
 IR Inten    --     21.5928                13.2862                24.7375

 - Thermochemistry -
 -------------------
 Temperature   298.150 Kelvin.  Pressure   1.00000 Atm.
 Atom     1 has atomic number  6 and mass  12.00000

 Molecular mass:   137.12045 amu.
 Principal axes and moments of inertia in atomic units:
                           1         2         3
     Eigenvalues --   827.898971832.182991872.82457
           X            0.99977  -0.00812   0.01986
           Y            0.00637   0.99623   0.08653
           Z           -0.02049  -0.08638   0.99605
 This molecule is an asymmetric top.
 Rotational symmetry number  1.
 Warning -- assumption of classical behavior for rotation
           may cause significant error
 Rotational temperatures (Kelvin)      0.10462     0.04727     0.04625
 Rotational constants (GHZ):           2.17991     0.98502     0.96365
 Zero-point vibrational energy     587542.9 (Joules/Mol)
                                  140.42612 (Kcal/Mol)
 Warning -- explicit consideration of  14 degrees of freedom as
           vibrations may cause significant error
 Vibrational temperatures:    126.33   144.03   218.30   253.87   272.38
          (Kelvin)            330.14   390.56   410.26   523.85   593.44
                              634.95   650.97   743.74   823.60   946.89
                             1119.49  1121.53  1186.04  1207.52  1244.96
                             1271.22  1312.82  1383.10  1410.23  1440.32
                             1461.40  1509.13  1546.91  1563.72  1583.81
                             1588.04  1609.44  1626.89  1654.79  1697.82
                             1718.35  1772.44  1815.80  1851.87  1871.64
                             1904.67  2014.63  2019.47  2064.28  2072.22
                             2085.97  2169.00  2172.12  2185.98  2191.74
                             2200.23  2201.09  2207.24  2223.16  4266.92
                             4376.37  4393.43  4396.02  4414.82  4456.04
                             4461.16  4477.62  4479.42  4489.66  4491.63
                             4505.53  4579.63  4589.20  4608.52

 Zero-point correction=                           0.223783 (Hartree/Particle)
 Thermal correction to Energy=                    0.234030
 Thermal correction to Enthalpy=                  0.234974
 Thermal correction to Gibbs Free Energy=         0.188822
 Sum of electronic and zero-point Energies=           -406.456412
 Sum of electronic and thermal Energies=              -406.446166
 Sum of electronic and thermal Enthalpies=            -406.445222
 Sum of electronic and thermal Free Energies=         -406.491373

                     E (Thermal)             CV                S
                      KCal/Mol        Cal/Mol-Kelvin    Cal/Mol-Kelvin
 Total                  146.856             39.834             97.135
 Electronic               0.000              0.000              0.000
 Translational            0.889              2.981             40.659
 Rotational               0.889              2.981             29.431
 Vibrational            145.079             33.872             27.045
 Vibration     1          0.601              1.958              3.708
 Vibration     2          0.604              1.949              3.452
 Vibration     3          0.619              1.901              2.650
 Vibration     4          0.628              1.871              2.366
 Vibration     5          0.633              1.855              2.235
 Vibration     6          0.652              1.796              1.883
 Vibration     7          0.675              1.726              1.587
 Vibration     8          0.683              1.701              1.503
 Vibration     9          0.738              1.546              1.105
 Vibration    10          0.776              1.443              0.918
 Vibration    11          0.801              1.380              0.822
 Vibration    12          0.811              1.355              0.788
 Vibration    13          0.872              1.213              0.617
 Vibration    14          0.929              1.091              0.500

 Optimization completed.
    -- Stationary point found.

 1\1\GINC-NODE106\Freq\RB3LYP\6-31G(d)\C9H15N1\VSC10255\08-Dec-2020\0\\
 #N Geom=AllCheck Guess=TCheck SCRF=Check GenChk RB3LYP/6-31G(d) Freq\\
 CID_148484243_JID_479_neutraal\\0,1\C,0.9665667954,-0.0569502578,-0.05
 93431154\C,0.716171452,0.1899953557,1.425570839\N,1.1511356191,1.53434
 27839,1.7940814433\C,1.3430868555,1.8087066451,3.222720914\C,2.5023754
 623,1.708075072,2.2989718849\C,3.6427242216,0.6653777372,2.2841342123\
 C,4.5784504537,1.7729011939,1.7805710923\C,3.4284405574,2.7907645331,1
 .7697468886\C,4.5753184814,2.9367004605,2.735934008\C,3.0277739041,3.8

 Normal termination of Gaussian 16 at Tue Dec  8 11:01:30 2020.

 ----------------------------------------------------------------------
 # B3LYP/6-311++G(d,p) empiricaldispersion=gd3bj scf=xqc pop=npa geom=c
 heck
 ----------------------------------------------------------------------

 --------------------------------------
 CID_148484243_JID_479_Energie_neutraal
 --------------------------------------
 Structure from the checkpoint file:  "JID_479.chk"
 Charge =  0 Multiplicity = 1

 SCF Done:  E(RB3LYP) =  -406.786590389     A.U. after   14 cycles
 Normal termination of Gaussian 16 at Tue Dec  8 11:04:36 2020.

 ----------------------------------------------------------------------
 # B3LYP/6-311++G(d,p) empiricaldispersion=gd3bj scf=xqc pop=npa geom=c
 heck
 ----------------------------------------------------------------------

 ------------------------------------
 CID_148484243_JID_479_Energie_kation
 ------------------------------------
 Structure from the checkpoint file:  "JID_479.chk"
 Charge =  1 Multiplicity = 2

 SCF Done:  E(UB3LYP) =  -406.482836535     A.U. after   23 cycles
 Normal termination of Gaussian 16 at Tue Dec  8 11:10:28 2020.
 Gaussian 16:  ES64L-G16RevA.03 25-Dec-2016

 -----------------------------------
 CID_148484243_JID_479_Energie_anion
 -----------------------------------
 Structure from the checkpoint file:  "JID_479.chk"
 Charge = -1 Multiplicity = 2

                         Standard orientation:
 ---------------------------------------------------------------------
 Center     Atomic      Atomic             Coordinates (Angstroms)
 Number     Number       Type             X           Y           Z
 ---------------------------------------------------------------------
      1          6           0        2.683377    0.893775    0.916701
      2          6           0        2.379569   -0.219863   -0.081377
      3          7           0        1.151190    0.078646   -0.812295
      4          6           0        0.506471   -1.032338   -1.521649
      5          6           0       -0.102122   -0.447380   -0.299018
      6          6           0       -0.339919   -1.108565    1.077253
      7          6           0       -1.604381   -0.249260    1.213264
      8          6           0       -1.338258    0.422761   -0.141820
      9          6           0       -2.526356   -0.484527    0.046316
     10          6           0       -1.418209    1.858674   -0.567902
     11          1           0        2.762718    1.854266    0.397847
     12          1           0        3.624012    0.700831    1.444350
     13          1           0        1.885703    0.982321    1.662694
     14          1           0        3.188209   -0.293369   -0.818613
     15          1           0        2.332040   -1.194308    0.436917
     16          1           0        0.953434   -2.023805   -1.426165
     17          1           0        0.117058   -0.799906   -2.511386
     18          1           0        0.432786   -0.844788    1.805596
     19          1           0       -0.483465   -2.195824    1.093682
     20          1           0       -1.950071    0.208653    2.135274
     21          1           0       -2.561172   -1.460778   -0.438031
     22          1           0       -3.488870    0.018915    0.101513
     23          1           0       -0.516126    2.402039   -0.267391
     24          1           0       -1.506018    1.943724   -1.658381
     25          1           0       -2.289602    2.351848   -0.122448
 ---------------------------------------------------------------------

 SCF Done:  E(UB3LYP) =  -406.766451337     A.U. after   30 cycles

 The electronic state is 2-A.
 Alpha  occ. eigenvalues --  -14.20627 -10.10263 -10.08937 -10.08781 -10.07799
 Alpha  occ. eigenvalues --  -10.07159 -10.06697 -10.06531 -10.05716 -10.05294
 Alpha  occ. eigenvalues --   -0.86720  -0.78742  -0.66830  -0.62872  -0.59820
 Alpha  occ. eigenvalues --   -0.55447  -0.51207  -0.48362  -0.47352  -0.40730
 Alpha  occ. eigenvalues --   -0.38560  -0.37938  -0.36308  -0.33779  -0.32211
 Alpha  occ. eigenvalues --   -0.32113  -0.30380  -0.29004  -0.28237  -0.27544
 Alpha  occ. eigenvalues --   -0.25595  -0.25210  -0.22924  -0.22144  -0.20595
 Alpha  occ. eigenvalues --   -0.17489  -0.14984  -0.12916   0.04923
 Alpha virt. eigenvalues --    0.06965   0.07594   0.07925   0.09280   0.09583
 Alpha virt. eigenvalues --    0.09900   0.10353   0.10709   0.11906   0.12408
 Alpha virt. eigenvalues --    0.12920   0.13455   0.14189   0.14454   0.16147

  Beta  occ. eigenvalues --  -14.20620 -10.10260 -10.08916 -10.08768 -10.07799
  Beta  occ. eigenvalues --  -10.07142 -10.06674 -10.06508 -10.05696 -10.05260
  Beta  occ. eigenvalues --   -0.86704  -0.78726  -0.66797  -0.62841  -0.59784
  Beta  occ. eigenvalues --   -0.55388  -0.51162  -0.48302  -0.47289  -0.40691
  Beta  occ. eigenvalues --   -0.38529  -0.37895  -0.36261  -0.33750  -0.32170
  Beta  occ. eigenvalues --   -0.32078  -0.30358  -0.28979  -0.28202  -0.27498
  Beta  occ. eigenvalues --   -0.25553  -0.25177  -0.22884  -0.22122  -0.20563
  Beta  occ. eigenvalues --   -0.17464  -0.14964  -0.12887
  Beta virt. eigenvalues --    0.07213   0.08077   0.08247   0.08612   0.10046
  Beta virt. eigenvalues --    0.10137   0.10536   0.10813   0.11153   0.12574
  Beta virt. eigenvalues --    0.12979   0.13407   0.13894   0.14300   0.14758

 Mulliken charges and spin densities:
               1          2
     1  C    0.945775  -1.445615
     2  C   -0.190332   0.027415
     3  N    0.009759   0.171720
     4  C    0.712579  -0.972705
     5  C   -1.042773   0.307651
     6  C    2.242067  -2.820779
     7  C   -1.531133   1.572471
     8  C   -0.464908   1.293687
     9  C    0.983375  -1.785837
    10  C    0.714135  -0.940764
    11  H    0.017284   0.121731
    12  H   -0.580077   0.716943
    13  H   -0.167311   0.305186
    14  H   -0.387053   0.539359
    15  H   -0.015988   0.136618
    16  H   -0.096370   0.222758
    17  H   -0.058921   0.230204
    18  H    0.210882  -0.082625
    19  H   -0.556749   0.715468
    20  H   -1.068032   1.278201
    21  H   -0.195881   0.344202
    22  H   -0.277235   0.414322
    23  H    0.085132   0.066813
    24  H    0.029957   0.113336
    25  H   -0.318178   0.470242
 Sum of Mulliken charges =  -1.00000   1.00000

 Dipole moment (field-independent basis, Debye):
    X=             -0.0429    Y=             -0.1634    Z=             -3.1688  Tot=              3.1733
 Quadrupole moment (field-independent basis, Debye-Ang):
   XX=           -129.6919   YY=            -99.0939   ZZ=           -103.2485
   XY=              1.3292   XZ=              1.8783   YZ=              0.4488

 Summary of Natural Population Analysis:

                                       Natural Population
                Natural  -----------------------------------------------
    Atom  No    Charge         Core      Valence    Rydberg      Total
 -----------------------------------------------------------------------
      C    1   -0.28797      0.99966     2.28257    0.00575     3.28797
      C    2   -0.08655      0.99962     2.07575    0.01118     3.08655
      N    3   -0.25823      0.99970     2.74626    0.01227     3.75823
      C    4   -0.10297      0.99954     2.09269    0.01075     3.10297
      C    5    0.06024      0.99952     1.92304    0.01720     2.93976
      C    6   -0.19084      0.99960     2.18257    0.00867     3.19084
      C    7   -0.10145      0.99957     2.08958    0.01231     3.10145
      C    8   -0.03327      0.99949     2.01967    0.01411     3.03327
      C    9   -0.19410      0.99957     2.18389    0.01064     3.19410
      C   10   -0.28341      0.99961     2.27773    0.00607     3.28341
      H   11    0.09930      0.00000     0.39936    0.00134     0.40070
      H   12    0.09972      0.00000     0.39889    0.00139     0.40028
      H   13    0.09786      0.00000     0.40068    0.00146     0.40214
      H   14    0.09345      0.00000     0.40513    0.00142     0.40655
      H   15    0.08271      0.00000     0.41538    0.00191     0.41729
      H   16    0.09170      0.00000     0.40709    0.00121     0.40830
      H   17    0.09556      0.00000     0.40336    0.00108     0.40444
      H   18    0.10611      0.00000     0.39208    0.00181     0.39389
      H   19    0.09692      0.00000     0.40153    0.00155     0.40308
      H   20    0.10392      0.00000     0.39373    0.00235     0.39608
      H   21    0.09818      0.00000     0.40027    0.00155     0.40182
      H   22    0.10616      0.00000     0.39227    0.00157     0.39384
      H   23    0.10549      0.00000     0.39304    0.00147     0.39451
      H   24    0.09961      0.00000     0.39939    0.00100     0.40039
      H   25    0.10190      0.00000     0.39703    0.00107     0.39810
 =======================================================================
   * Total *    0.00000      9.99586    27.87300    0.13114    38.00000

 Normal termination of Gaussian 16 at Tue Dec  8 11:17:36 2020.
