 Gaussian 16, Revision A.03,

 -----------------------------------------------------------
 # opt freq B3LYP/6-31G(d) empiricaldispersion=gd3bj scf=xqc
 -----------------------------------------------------------

 -----------------------------
 CID_79346737_JID_784_neutraal
 -----------------------------
 Symbolic Z-matrix:
 Charge =  0 Multiplicity = 1

 SCF Done:  E(RB3LYP) =  -406.671100556     A.U. after   13 cycles
 SCF Done:  E(RB3LYP) =  -406.674167584     A.U. after   11 cycles
 SCF Done:  E(RB3LYP) =  -406.674432522     A.U. after   10 cycles
 SCF Done:  E(RB3LYP) =  -406.674529677     A.U. after    9 cycles
 SCF Done:  E(RB3LYP) =  -406.674583782     A.U. after   10 cycles
 SCF Done:  E(RB3LYP) =  -406.674614123     A.U. after   10 cycles
 SCF Done:  E(RB3LYP) =  -406.674684405     A.U. after   10 cycles
 SCF Done:  E(RB3LYP) =  -406.674771565     A.U. after   11 cycles
 SCF Done:  E(RB3LYP) =  -406.674848104     A.U. after   11 cycles
 SCF Done:  E(RB3LYP) =  -406.674899175     A.U. after   10 cycles
 SCF Done:  E(RB3LYP) =  -406.674932090     A.U. after   10 cycles
 SCF Done:  E(RB3LYP) =  -406.674939506     A.U. after   10 cycles
 SCF Done:  E(RB3LYP) =  -406.674941525     A.U. after    9 cycles
 SCF Done:  E(RB3LYP) =  -406.674941853     A.U. after    8 cycles
 SCF Done:  E(RB3LYP) =  -406.674941820     A.U. after    6 cycles
 Optimization completed.
    -- Stationary point found.

 1\1\GINC-NODE117\FOpt\RB3LYP\6-31G(d)\C9H15N1\VSC10255\08-Dec-2020\0\\
 # opt freq B3LYP/6-31G(d) empiricaldispersion=gd3bj scf=xqc\\CID_79346
 737_JID_784_neutraal\\0,1\C,-0.0373670891,0.9181267857,0.0405009806\C,
 -0.7916202492,-0.3793976673,0.053443868\C,0.6820952175,-0.36429965,0.4
 221460819\C,1.6748869872,-0.9497504326,-0.5001199713\C,2.7840836199,-1
 .5969542281,-0.1303140728\C,3.7801714897,-2.1833708816,-1.0881161183\N
 ,5.1003369155,-1.6000589402,-0.845077739\C,6.182216796,-1.9939914086,-
 1.7207243135\C,6.2162033754,-3.3146961365,-2.43453163\C,6.1033864081,-

 Normal termination of Gaussian 16 at Tue Dec  8 12:43:44 2020.

 --------------------------------------------------------------------
 #N Geom=AllCheck Guess=TCheck SCRF=Check GenChk RB3LYP/6-31G(d) Freq
 --------------------------------------------------------------------

 Structure from the checkpoint file:  "JID_784.chk"
 -----------------------------
 CID_79346737_JID_784_neutraal
 -----------------------------
 Charge =  0 Multiplicity = 1

 SCF Done:  E(RB3LYP) =  -406.674941820     A.U. after    1 cycles

  Exact polarizability: 141.414   6.493  84.306   0.288   2.174  78.889
 Approx polarizability: 163.788  14.921 127.986   2.240   6.225 116.784

                      1                      2                      3
                      A                      A                      A
 Frequencies --     32.3145                42.5884                81.5743
 Red. masses --      2.7637                 3.2584                 2.8566
 Frc consts  --      0.0017                 0.0035                 0.0112
 IR Inten    --      0.1058                 0.3159                 0.3941

                      4                      5                      6
                      A                      A                      A
 Frequencies --     97.1821               144.0856               185.3444
 Red. masses --      2.5399                 2.8016                 2.7587
 Frc consts  --      0.0141                 0.0343                 0.0558
 IR Inten    --      1.8134                 0.9748                 1.5203

                      7                      8                      9
                      A                      A                      A
 Frequencies --    213.5412               298.2428               381.8562
 Red. masses --      3.1708                 2.4995                 2.1698
 Frc consts  --      0.0852                 0.1310                 0.1864
 IR Inten    --      0.8584                 0.7223                 8.0159

                     10                     11                     12
                      A                      A                      A
 Frequencies --    411.7505               434.6106               457.5496
 Red. masses --      2.8060                 2.5026                 3.2992
 Frc consts  --      0.2803                 0.2785                 0.4069
 IR Inten    --      0.4243                 1.3245                 3.1523

                     13                     14                     15
                      A                      A                      A
 Frequencies --    563.7565               754.8234               777.8557
 Red. masses --      2.6251                 1.8626                 1.1426
 Frc consts  --      0.4916                 0.6253                 0.4073
 IR Inten    --      5.2222                41.8003                29.9498

                     16                     17                     18
                      A                      A                      A
 Frequencies --    784.6286               805.6767               826.4266
 Red. masses --      1.0696                 1.2247                 1.3616
 Frc consts  --      0.3880                 0.4684                 0.5479
 IR Inten    --      0.6376                 2.0259                 0.7055

                     19                     20                     21
                      A                      A                      A
 Frequencies --    833.2864               848.7346               878.9661
 Red. masses --      2.4585                 1.7425                 1.9739
 Frc consts  --      1.0058                 0.7396                 0.8985
 IR Inten    --     17.4686                 9.0689                 3.6014

                     22                     23                     24
                      A                      A                      A
 Frequencies --    914.1669               927.3082               952.9599
 Red. masses --      2.6759                 2.5108                 2.3324
 Frc consts  --      1.3175                 1.2721                 1.2480
 IR Inten    --     17.9761                 7.2668                17.0800

                     25                     26                     27
                      A                      A                      A
 Frequencies --    995.1175              1008.7593              1039.0104
 Red. masses --      1.7845                 1.0979                 1.3813
 Frc consts  --      1.0412                 0.6583                 0.8786
 IR Inten    --     41.7163                21.6516                18.0668

                     28                     29                     30
                      A                      A                      A
 Frequencies --   1062.3886              1067.0593              1077.7254
 Red. masses --      1.6831                 1.4524                 2.4044
 Frc consts  --      1.1193                 0.9743                 1.6454
 IR Inten    --      3.0628                 6.1050                 7.9014

                     31                     32                     33
                      A                      A                      A
 Frequencies --   1080.4648              1084.0490              1123.9196
 Red. masses --      1.3626                 1.3759                 2.3292
 Frc consts  --      0.9372                 0.9526                 1.7335
 IR Inten    --      4.4922                 7.9299                 3.5885

                     34                     35                     36
                      A                      A                      A
 Frequencies --   1137.5349              1145.1685              1200.3307
 Red. masses --      1.0993                 1.1952                 1.6631
 Frc consts  --      0.8381                 0.9235                 1.4118
 IR Inten    --      2.0643                 6.6242                 1.2818

                     37                     38                     39
                      A                      A                      A
 Frequencies --   1208.6268              1212.4229              1213.6261
 Red. masses --      1.4651                 1.3990                 2.0033
 Frc consts  --      1.2610                 1.2117                 1.7385
 IR Inten    --      1.1929                 1.9518                25.7496

                     40                     41                     42
                      A                      A                      A
 Frequencies --   1231.0689              1263.7308              1280.3246
 Red. masses --      1.8399                 1.3917                 2.0467
 Frc consts  --      1.6429                 1.3095                 1.9767
 IR Inten    --      5.0451                 6.5719                27.5855

                     43                     44                     45
                      A                      A                      A
 Frequencies --   1305.6056              1339.6304              1380.7721
 Red. masses --      1.2992                 1.2872                 1.3881
 Frc consts  --      1.3049                 1.3610                 1.5592
 IR Inten    --      1.3771                 1.5317                 2.5615

                     46                     47                     48
                      A                      A                      A
 Frequencies --   1425.1906              1435.3080              1489.7571
 Red. masses --      1.4353                 1.6001                 1.1016
 Frc consts  --      1.7176                 1.9421                 1.4405
 IR Inten    --     53.5462                 2.9827                 3.3252

                     49                     50                     51
                      A                      A                      A
 Frequencies --   1495.0735              1509.1781              1531.7341
 Red. masses --      1.0869                 1.2081                 1.3131
 Frc consts  --      1.4314                 1.6212                 1.8151
 IR Inten    --      0.8679                35.2449                 0.4837

                     52                     53                     54
                      A                      A                      A
 Frequencies --   1536.8119              1542.5912              1755.2846
 Red. masses --      1.2333                 1.2150                 6.1158
 Frc consts  --      1.7162                 1.7035                11.1019
 IR Inten    --     12.0407                 4.5688                12.9549

                     55                     56                     57
                      A                      A                      A
 Frequencies --   2941.5841              3051.1913              3123.3564
 Red. masses --      1.0720                 1.0861                 1.0881
 Frc consts  --      5.4655                 5.9576                 6.2539
 IR Inten    --     55.5383                28.3602                12.1162

                     58                     59                     60
                      A                      A                      A
 Frequencies --   3143.5240              3145.2103              3145.6014
 Red. masses --      1.0709                 1.0680                 1.0504
 Frc consts  --      6.2351                 6.2245                 6.1235
 IR Inten    --     25.3069                20.4006                25.4788

                     61                     62                     63
                      A                      A                      A
 Frequencies --   3149.5356              3157.0538              3158.3099
 Red. masses --      1.0587                 1.0604                 1.0886
 Frc consts  --      6.1877                 6.2273                 6.3979
 IR Inten    --     15.4825                13.9487                 5.7669

                     64                     65                     66
                      A                      A                      A
 Frequencies --   3164.6552              3220.5444              3220.6119
 Red. masses --      1.0891                 1.1185                 1.1198
 Frc consts  --      6.4262                 6.8354                 6.8435
 IR Inten    --     27.4110                 4.2180                 0.2196

                     67                     68                     69
                      A                      A                      A
 Frequencies --   3235.5455              3237.4417              3475.9325
 Red. masses --      1.1162                 1.1149                 1.0737
 Frc consts  --      6.8847                 6.8845                 7.6433
 IR Inten    --     25.0732                31.2527                 0.8069

 - Thermochemistry -
 -------------------
 Temperature   298.150 Kelvin.  Pressure   1.00000 Atm.
 Atom     1 has atomic number  6 and mass  12.00000

 Molecular mass:   137.12045 amu.
 Principal axes and moments of inertia in atomic units:
                           1         2         3
     Eigenvalues --   380.234584455.047124481.94765
           X            1.00000  -0.00076  -0.00281
           Y            0.00082   0.99983   0.01863
           Z            0.00280  -0.01863   0.99982
 This molecule is an asymmetric top.
 Rotational symmetry number  1.
 Rotational temperatures (Kelvin)      0.22779     0.01944     0.01933
 Rotational constants (GHZ):           4.74639     0.40510     0.40267
 Zero-point vibrational energy     588548.3 (Joules/Mol)
                                  140.66642 (Kcal/Mol)
 Warning -- explicit consideration of  13 degrees of freedom as
           vibrations may cause significant error
 Vibrational temperatures:     46.49    61.28   117.37   139.82   207.31
          (Kelvin)            266.67   307.24   429.10   549.41   592.42
                              625.31   658.31   811.12  1086.02  1119.16
                             1128.91  1159.19  1189.04  1198.91  1221.14
                             1264.64  1315.28  1334.19  1371.10  1431.75
                             1451.38  1494.90  1528.54  1535.26  1550.61
                             1554.55  1559.70  1617.07  1636.66  1647.64
                             1727.01  1738.94  1744.41  1746.14  1771.23
                             1818.23  1842.10  1878.48  1927.43  1986.62
                             2050.53  2065.09  2143.43  2151.08  2171.37
                             2203.82  2211.13  2219.44  2525.46  4232.28
                             4389.98  4493.81  4522.83  4525.26  4525.82
                             4531.48  4542.30  4544.10  4553.23  4633.65
                             4633.74  4655.23  4657.96  5001.09

 Zero-point correction=                           0.224166 (Hartree/Particle)
 Thermal correction to Energy=                    0.235002
 Thermal correction to Enthalpy=                  0.235946
 Thermal correction to Gibbs Free Energy=         0.186079
 Sum of electronic and zero-point Energies=           -406.450776
 Sum of electronic and thermal Energies=              -406.439940
 Sum of electronic and thermal Enthalpies=            -406.438995
 Sum of electronic and thermal Free Energies=         -406.488863

                     E (Thermal)             CV                S
                      KCal/Mol        Cal/Mol-Kelvin    Cal/Mol-Kelvin
 Total                  147.466             40.020            104.955
 Electronic               0.000              0.000              0.000
 Translational            0.889              2.981             40.659
 Rotational               0.889              2.981             30.408
 Vibrational            145.689             34.059             33.888
 Vibration     1          0.594              1.983              5.682
 Vibration     2          0.595              1.980              5.135
 Vibration     3          0.600              1.962              3.853
 Vibration     4          0.603              1.951              3.510
 Vibration     5          0.616              1.909              2.749
 Vibration     6          0.631              1.860              2.274
 Vibration     7          0.644              1.820              2.013
 Vibration     8          0.691              1.677              1.427
 Vibration     9          0.751              1.509              1.032
 Vibration    10          0.776              1.445              0.920
 Vibration    11          0.795              1.395              0.844
 Vibration    12          0.816              1.344              0.773
 Vibration    13          0.920              1.110              0.516

 Optimization completed.
    -- Stationary point found.

 1\1\GINC-NODE117\Freq\RB3LYP\6-31G(d)\C9H15N1\VSC10255\08-Dec-2020\0\\
 #N Geom=AllCheck Guess=TCheck SCRF=Check GenChk RB3LYP/6-31G(d) Freq\\
 CID_79346737_JID_784_neutraal\\0,1\C,-0.0373670891,0.9181267857,0.0405
 009806\C,-0.7916202492,-0.3793976673,0.053443868\C,0.6820952175,-0.364
 29965,0.4221460819\C,1.6748869872,-0.9497504326,-0.5001199713\C,2.7840
 836199,-1.5969542281,-0.1303140728\C,3.7801714897,-2.1833708816,-1.088
 1161183\N,5.1003369155,-1.6000589402,-0.845077739\C,6.182216796,-1.993
 9914086,-1.7207243135\C,6.2162033754,-3.3146961365,-2.43453163\C,6.103

 Normal termination of Gaussian 16 at Tue Dec  8 13:04:03 2020.

 ----------------------------------------------------------------------
 # B3LYP/6-311++G(d,p) empiricaldispersion=gd3bj scf=xqc pop=npa geom=c
 heck
 ----------------------------------------------------------------------

 -------------------------------------
 CID_79346737_JID_784_Energie_neutraal
 -------------------------------------
 Structure from the checkpoint file:  "JID_784.chk"
 Charge =  0 Multiplicity = 1

 SCF Done:  E(RB3LYP) =  -406.791959570     A.U. after   13 cycles
 Normal termination of Gaussian 16 at Tue Dec  8 13:09:00 2020.

 ----------------------------------------------------------------------
 # B3LYP/6-311++G(d,p) empiricaldispersion=gd3bj scf=xqc pop=npa geom=c
 heck
 ----------------------------------------------------------------------

 -----------------------------------
 CID_79346737_JID_784_Energie_kation
 -----------------------------------
 Structure from the checkpoint file:  "JID_784.chk"
 Charge =  1 Multiplicity = 2

 SCF Done:  E(UB3LYP) =  -406.502963701     A.U. after   22 cycles
 Normal termination of Gaussian 16 at Tue Dec  8 13:17:05 2020.
 Gaussian 16:  ES64L-G16RevA.03 25-Dec-2016

 ----------------------------------
 CID_79346737_JID_784_Energie_anion
 ----------------------------------
 Structure from the checkpoint file:  "JID_784.chk"
 Charge = -1 Multiplicity = 2

                         Standard orientation:
 ---------------------------------------------------------------------
 Center     Atomic      Atomic             Coordinates (Angstroms)
 Number     Number       Type             X           Y           Z
 ---------------------------------------------------------------------
      1          6           0        3.950819    0.808701   -0.568809
      2          6           0        4.160094    0.070031    0.720845
      3          6           0        3.011024   -0.323734   -0.191620
      4          6           0        1.621981   -0.021448    0.206057
      5          6           0        0.559992   -0.789432   -0.055334
      6          6           0       -0.844628   -0.459811    0.359215
      7          7           0       -1.705986   -0.398653   -0.822513
      8          6           0       -3.089662   -0.024135   -0.628656
      9          6           0       -3.827566   -0.259948    0.657744
     10          6           0       -3.562048    1.159444    0.195664
     11          1           0        4.645713    0.637692   -1.385981
     12          1           0        3.557781    1.820930   -0.523163
     13          1           0        5.000209   -0.614023    0.799273
     14          1           0        3.910044    0.576263    1.649430
     15          1           0        3.136735   -1.252737   -0.743396
     16          1           0        1.478355    0.908111    0.761906
     17          1           0        0.680470   -1.712905   -0.621484
     18          1           0       -1.231054   -1.255656    1.009065
     19          1           0       -0.837439    0.468499    0.961287
     20          1           0       -1.285176    0.249234   -1.487106
     21          1           0       -3.669255   -0.215011   -1.530289
     22          1           0       -4.839248   -0.651604    0.599560
     23          1           0       -3.275505   -0.608282    1.524671
     24          1           0       -2.819795    1.726194    0.751443
     25          1           0       -4.389972    1.755864   -0.178261
 ---------------------------------------------------------------------

 SCF Done:  E(UB3LYP) =  -406.773078568     A.U. after   33 cycles
 SCF Done:  E(UB3LYP) =  -406.773078568     a.u. after    1 cycles

 The electronic state is 2-A.
 Alpha  occ. eigenvalues --  -14.20592 -10.10590 -10.10224 -10.08831 -10.08017
 Alpha  occ. eigenvalues --  -10.07844 -10.07811 -10.07531 -10.07199 -10.06926
 Alpha  occ. eigenvalues --   -0.82261  -0.77018  -0.73750  -0.68078  -0.59201
 Alpha  occ. eigenvalues --   -0.50882  -0.50725  -0.50406  -0.47602  -0.46622
 Alpha  occ. eigenvalues --   -0.41560  -0.40156  -0.38686  -0.38263  -0.35655
 Alpha  occ. eigenvalues --   -0.33083  -0.30355  -0.29094  -0.28270  -0.27381
 Alpha  occ. eigenvalues --   -0.26751  -0.24945  -0.23762  -0.22749  -0.20661
 Alpha  occ. eigenvalues --   -0.20283  -0.14407  -0.12300   0.04542
 Alpha virt. eigenvalues --    0.05793   0.07023   0.07587   0.08252   0.08420
 Alpha virt. eigenvalues --    0.08754   0.09885   0.10399   0.10525   0.10854
 Alpha virt. eigenvalues --    0.12130   0.12267   0.12545   0.14004   0.14639

  Beta  occ. eigenvalues --  -14.20587 -10.10580 -10.10215 -10.08823 -10.08007
  Beta  occ. eigenvalues --  -10.07817 -10.07784 -10.07514 -10.07198 -10.06899
  Beta  occ. eigenvalues --   -0.82244  -0.76995  -0.73728  -0.68062  -0.59178
  Beta  occ. eigenvalues --   -0.50827  -0.50639  -0.50357  -0.47565  -0.46585
  Beta  occ. eigenvalues --   -0.41525  -0.40131  -0.38629  -0.38199  -0.35623
  Beta  occ. eigenvalues --   -0.33054  -0.30332  -0.29066  -0.28244  -0.27344
  Beta  occ. eigenvalues --   -0.26721  -0.24915  -0.23741  -0.22726  -0.20627
  Beta  occ. eigenvalues --   -0.20253  -0.14393  -0.12286
  Beta virt. eigenvalues --    0.06805   0.07233   0.07687   0.07920   0.08699
  Beta virt. eigenvalues --    0.08974   0.09138   0.09972   0.11039   0.11086
  Beta virt. eigenvalues --    0.11347   0.12289   0.12564   0.12860   0.14103

 Mulliken charges and spin densities:
               1          2
     1  C    1.276002  -1.760941
     2  C    1.190841  -1.649559
     3  C   -3.078665   3.446061
     4  C    0.817229  -1.039714
     5  C    1.896198  -1.938569
     6  C   -0.492719  -0.261525
     7  N    0.022128  -0.015305
     8  C   -0.868406   0.722061
     9  C    0.430641  -0.713667
    10  C    1.074677  -1.405684
    11  H   -0.278271   0.431741
    12  H   -0.316338   0.456420
    13  H   -0.537988   0.691944
    14  H   -0.136685   0.268769
    15  H   -0.597518   0.832732
    16  H   -0.355226   0.517924
    17  H    0.170857  -0.037259
    18  H    0.080169   0.045629
    19  H    0.267502  -0.173081
    20  H    0.176745   0.028172
    21  H   -0.562776   0.781624
    22  H   -0.436915   0.610643
    23  H   -0.037139   0.158559
    24  H   -0.282268   0.429595
    25  H   -0.422077   0.573431
 Sum of Mulliken charges =  -1.00000   1.00000

 Dipole moment (field-independent basis, Debye):
    X=             -0.8075    Y=             -1.5179    Z=              1.0940  Tot=              2.0379
 Quadrupole moment (field-independent basis, Debye-Ang):
   XX=           -193.3961   YY=            -96.2276   ZZ=            -92.2369
   XY=              5.7682   XZ=             -1.7325   YZ=             -2.1539

 Summary of Natural Population Analysis:

                                       Natural Population
                Natural  -----------------------------------------------
    Atom  No    Charge         Core      Valence    Rydberg      Total
 -----------------------------------------------------------------------
      C    1   -0.19260      0.99962     2.18335    0.00963     3.19260
      C    2   -0.19265      0.99962     2.18340    0.00962     3.19265
      C    3   -0.12846      0.99958     2.11773    0.01115     3.12846
      C    4   -0.08327      0.99949     2.07418    0.00959     3.08327
      C    5   -0.09864      0.99952     2.09028    0.00884     3.09864
      C    6   -0.10237      0.99961     2.09221    0.01055     3.10237
      N    7   -0.33335      0.99972     2.82274    0.01088     3.83335
      C    8   -0.01315      0.99959     1.99968    0.01388     3.01315
      C    9   -0.20596      0.99963     2.19702    0.00932     3.20596
      C   10   -0.21253      0.99963     2.20374    0.00916     3.21253
      H   11    0.10573      0.00000     0.39258    0.00170     0.39427
      H   12    0.10182      0.00000     0.39689    0.00129     0.39818
      H   13    0.10599      0.00000     0.39209    0.00192     0.39401
      H   14    0.10124      0.00000     0.39754    0.00122     0.39876
      H   15    0.10373      0.00000     0.39408    0.00219     0.39627
      H   16    0.09239      0.00000     0.40618    0.00143     0.40761
      H   17    0.09402      0.00000     0.40452    0.00146     0.40598
      H   18    0.09415      0.00000     0.40419    0.00166     0.40585
      H   19    0.08006      0.00000     0.41716    0.00279     0.41994
      H   20    0.17357      0.00000     0.32364    0.00278     0.32643
      H   21    0.09888      0.00000     0.39966    0.00146     0.40112
      H   22    0.10490      0.00000     0.39383    0.00127     0.39510
      H   23    0.10132      0.00000     0.39765    0.00103     0.39868
      H   24    0.10084      0.00000     0.39793    0.00123     0.39916
      H   25    0.10435      0.00000     0.39344    0.00221     0.39565
 =======================================================================
   * Total *   -0.00000      9.99602    27.87571    0.12827    38.00000

 Normal termination of Gaussian 16 at Tue Dec  8 13:27:11 2020.
