 Gaussian 16, Revision A.03,

 -----------------------------------------------------------
 # opt freq B3LYP/6-31G(d) empiricaldispersion=gd3bj scf=xqc
 -----------------------------------------------------------

 -------------------------------
 CID_119022917_JID_2520_neutraal
 -------------------------------
 Symbolic Z-matrix:
 Charge =  0 Multiplicity = 1

 SCF Done:  E(RB3LYP) =  -517.672469313     A.U. after   16 cycles
 SCF Done:  E(RB3LYP) =  -517.694768497     A.U. after   13 cycles
 SCF Done:  E(RB3LYP) =  -517.695344465     A.U. after   11 cycles
 SCF Done:  E(RB3LYP) =  -517.695406988     A.U. after   11 cycles
 SCF Done:  E(RB3LYP) =  -517.695427121     A.U. after   10 cycles
 SCF Done:  E(RB3LYP) =  -517.695441147     A.U. after   10 cycles
 SCF Done:  E(RB3LYP) =  -517.695462066     A.U. after   10 cycles
 SCF Done:  E(RB3LYP) =  -517.695467325     A.U. after   10 cycles
 SCF Done:  E(RB3LYP) =  -517.695474638     A.U. after   10 cycles
 SCF Done:  E(RB3LYP) =  -517.695491249     A.U. after   11 cycles
 SCF Done:  E(RB3LYP) =  -517.697152947     A.U. after   12 cycles
 SCF Done:  E(RB3LYP) =  -517.697180400     A.U. after   11 cycles
 SCF Done:  E(RB3LYP) =  -517.697188720     A.U. after   10 cycles
 SCF Done:  E(RB3LYP) =  -517.697189336     A.U. after    8 cycles
 SCF Done:  E(RB3LYP) =  -517.697189605     A.U. after    8 cycles
 SCF Done:  E(RB3LYP) =  -517.697189811     A.U. after    7 cycles
 Optimization completed.
    -- Stationary point found.
 Normal termination of Gaussian 16 at Wed Dec  9 17:33:34 2020.

 --------------------------------------------------------------------
 #N Geom=AllCheck Guess=TCheck SCRF=Check GenChk RB3LYP/6-31G(d) Freq
 --------------------------------------------------------------------

 Structure from the checkpoint file:  "JID_2520.chk"
 -------------------------------
 CID_119022917_JID_2520_neutraal
 -------------------------------
 Charge =  0 Multiplicity = 1

 SCF Done:  E(RB3LYP) =  -517.697189811     A.U. after    1 cycles

  Exact polarizability: 143.967   2.692 113.042  -3.184   4.340  67.020
 Approx polarizability: 206.711   9.711 181.679  -2.678  10.023 109.785

                      1                      2                      3
                      A                      A                      A
 Frequencies --     47.7488                78.4480               124.1830
 Red. masses --      5.5946                 4.9396                 1.6188
 Frc consts  --      0.0075                 0.0179                 0.0147
 IR Inten    --      4.5335                 3.0657                 0.5345

                      4                      5                      6
                      A                      A                      A
 Frequencies --    130.0903               155.7244               193.5027
 Red. masses --      1.4137                 1.3632                 2.8599
 Frc consts  --      0.0141                 0.0195                 0.0631
 IR Inten    --      0.5497                 2.0147                 4.9093

                      7                      8                      9
                      A                      A                      A
 Frequencies --    272.0939               278.6903               287.9137
 Red. masses --      4.3069                 2.6893                 3.1182
 Frc consts  --      0.1879                 0.1231                 0.1523
 IR Inten    --      2.6341                 2.2978                 0.9654

                     10                     11                     12
                      A                      A                      A
 Frequencies --    322.1068               350.4951               375.6164
 Red. masses --      3.4396                 1.4769                 2.8210
 Frc consts  --      0.2103                 0.1069                 0.2345
 IR Inten    --      4.0541                54.8635                15.2344

                     13                     14                     15
                      A                      A                      A
 Frequencies --    380.0895               409.5125               458.9411
 Red. masses --      2.3474                 5.9477                 3.2607
 Frc consts  --      0.1998                 0.5877                 0.4046
 IR Inten    --     41.3489                 1.1386                 1.7197

                     16                     17                     18
                      A                      A                      A
 Frequencies --    483.5278               537.2161               582.5647
 Red. masses --      5.0382                 3.7144                 3.9240
 Frc consts  --      0.6940                 0.6316                 0.7846
 IR Inten    --      1.0857                 5.2250                 2.9399

                     19                     20                     21
                      A                      A                      A
 Frequencies --    650.9018               708.4522               737.0537
 Red. masses --      5.3109                 4.1524                 4.3550
 Frc consts  --      1.3257                 1.2279                 1.3939
 IR Inten    --      3.4632                 3.4705                 3.0888

                     22                     23                     24
                      A                      A                      A
 Frequencies --    776.2127               832.3446               844.3391
 Red. masses --      4.8581                 2.2308                 1.9808
 Frc consts  --      1.7246                 0.9106                 0.8320
 IR Inten    --      6.1991                10.6468                 8.6044

                     25                     26                     27
                      A                      A                      A
 Frequencies --    901.7905               944.9221               955.4357
 Red. masses --      1.2884                 3.6260                 2.1160
 Frc consts  --      0.6173                 1.9075                 1.1381
 IR Inten    --      5.4085                 3.0459                 1.6410

                     28                     29                     30
                      A                      A                      A
 Frequencies --   1021.3677              1051.1718              1075.3041
 Red. masses --      1.4366                 1.5933                 1.4827
 Frc consts  --      0.8830                 1.0372                 1.0101
 IR Inten    --      0.3878                16.8805                 5.5165

                     31                     32                     33
                      A                      A                      A
 Frequencies --   1076.4768              1108.3430              1187.7811
 Red. masses --      1.4886                 4.0530                 1.9418
 Frc consts  --      1.0163                 2.9334                 1.6141
 IR Inten    --      0.2234                37.9663                81.3743

                     34                     35                     36
                      A                      A                      A
 Frequencies --   1221.7003              1236.5144              1274.4904
 Red. masses --      1.2653                 1.5132                 1.8385
 Frc consts  --      1.1127                 1.3632                 1.7595
 IR Inten    --      6.0609                57.4909                 4.1113

                     37                     38                     39
                      A                      A                      A
 Frequencies --   1325.5229              1336.5915              1353.6787
 Red. masses --      2.0629                 1.7373                 2.5326
 Frc consts  --      2.1355                 1.8286                 2.7343
 IR Inten    --     52.6652                 8.7171                13.7302

                     40                     41                     42
                      A                      A                      A
 Frequencies --   1382.8564              1443.5246              1448.1089
 Red. masses --      2.7954                 1.3556                 1.2680
 Frc consts  --      3.1496                 1.6642                 1.5667
 IR Inten    --     27.3599                 8.4251                 4.9591

                     43                     44                     45
                      A                      A                      A
 Frequencies --   1460.8986              1490.6772              1508.1930
 Red. masses --      2.7105                 1.0915                 1.0439
 Frc consts  --      3.4083                 1.4290                 1.3991
 IR Inten    --     46.0625                 9.1811                 5.1061

                     46                     47                     48
                      A                      A                      A
 Frequencies --   1519.4906              1523.7950              1533.1597
 Red. masses --      1.0488                 1.0967                 1.1995
 Frc consts  --      1.4267                 1.5004                 1.6613
 IR Inten    --     10.4508                 0.7135                39.8422

                     49                     50                     51
                      A                      A                      A
 Frequencies --   1567.3769              1650.3743              1681.1805
 Red. masses --      2.9435                 6.3108                 6.3483
 Frc consts  --      4.2606                10.1274                10.5715
 IR Inten    --     45.1694                 7.5556                24.3758

                     52                     53                     54
                      A                      A                      A
 Frequencies --   2368.9358              3038.6364              3051.0297
 Red. masses --     12.5950                 1.0418                 1.0363
 Frc consts  --     41.6442                 5.6676                 5.6837
 IR Inten    --      9.0343                32.2863                28.1352

                     55                     56                     57
                      A                      A                      A
 Frequencies --   3054.1160              3092.6268              3099.1268
 Red. masses --      1.0621                 1.0963                 1.0997
 Frc consts  --      5.8368                 6.1780                 6.2228
 IR Inten    --      8.3468                13.3154                 3.9222

                     58                     59                     60
                      A                      A                      A
 Frequencies --   3103.4732              3131.9053              3134.2196
 Red. masses --      1.1004                 1.1002                 1.1026
 Frc consts  --      6.2446                 6.3584                 6.3817
 IR Inten    --     15.5969                14.9377                15.1045

                     61                     62                     63
                      A                      A                      A
 Frequencies --   3159.5799              3178.1801              3754.8681
 Red. masses --      1.0901                 1.0899                 1.0660
 Frc consts  --      6.4115                 6.4860                 8.8548
 IR Inten    --     22.3210                16.7587                42.0672

 - Thermochemistry -
 -------------------
 Temperature   298.150 Kelvin.  Pressure   1.00000 Atm.
 Atom     1 has atomic number  6 and mass  12.00000

 Molecular mass:   161.08406 amu.
 Principal axes and moments of inertia in atomic units:
                           1         2         3
     Eigenvalues --  1043.841923026.252453718.10107
           X            0.99983   0.00109  -0.01856
           Y           -0.00080   0.99988   0.01530
           Z            0.01857  -0.01529   0.99971
 This molecule is an asymmetric top.
 Rotational symmetry number  1.
 Warning -- assumption of classical behavior for rotation
           may cause significant error
 Rotational temperatures (Kelvin)      0.08298     0.02862     0.02330
 Rotational constants (GHZ):           1.72894     0.59636     0.48539
 Zero-point vibrational energy     493251.4 (Joules/Mol)
                                  117.88991 (Kcal/Mol)
 Warning -- explicit consideration of  18 degrees of freedom as
           vibrations may cause significant error
 Vibrational temperatures:     68.70   112.87   178.67   187.17   224.05
          (Kelvin)            278.41   391.48   400.97   414.24   463.44
                              504.28   540.43   546.86   589.20   660.31
                              695.69   772.93   838.18   936.50  1019.30
                             1060.46  1116.80  1197.56  1214.82  1297.48
                             1359.53  1374.66  1469.52  1512.40  1547.12
                             1548.81  1594.66  1708.95  1757.75  1779.07
                             1833.71  1907.13  1923.06  1947.64  1989.62
                             2076.91  2083.51  2101.91  2144.75  2169.95
                             2186.21  2192.40  2205.87  2255.11  2374.52
                             2418.84  3408.37  4371.92  4389.75  4394.19
                             4449.60  4458.95  4465.21  4506.11  4509.44
                             4545.93  4572.69  5402.42

 Zero-point correction=                           0.187870 (Hartree/Particle)
 Thermal correction to Energy=                    0.199804
 Thermal correction to Enthalpy=                  0.200748
 Thermal correction to Gibbs Free Energy=         0.149999
 Sum of electronic and zero-point Energies=           -517.509320
 Sum of electronic and thermal Energies=              -517.497386
 Sum of electronic and thermal Enthalpies=            -517.496442
 Sum of electronic and thermal Free Energies=         -517.547191

                     E (Thermal)             CV                S
                      KCal/Mol        Cal/Mol-Kelvin    Cal/Mol-Kelvin
 Total                  125.379             44.499            106.810
 Electronic               0.000              0.000              0.000
 Translational            0.889              2.981             41.139
 Rotational               0.889              2.981             30.841
 Vibrational            123.601             38.538             34.830
 Vibration     1          0.595              1.978              4.909
 Vibration     2          0.600              1.964              3.929
 Vibration     3          0.610              1.929              3.034
 Vibration     4          0.612              1.923              2.945
 Vibration     5          0.620              1.896              2.601
 Vibration     6          0.635              1.849              2.194
 Vibration     7          0.675              1.725              1.583
 Vibration     8          0.679              1.713              1.542
 Vibration     9          0.685              1.696              1.486
 Vibration    10          0.707              1.631              1.299
 Vibration    11          0.727              1.574              1.164
 Vibration    12          0.746              1.522              1.057
 Vibration    13          0.750              1.513              1.039
 Vibration    14          0.774              1.450              0.928
 Vibration    15          0.817              1.341              0.769
 Vibration    16          0.840              1.287              0.701
 Vibration    17          0.892              1.168              0.571
 Vibration    18          0.939              1.069              0.481

                           ! Non-Optimized Parameters !
 Normal termination of Gaussian 16 at Wed Dec  9 17:38:31 2020.

 ----------------------------------------------------------------------
 # B3LYP/6-311++G(d,p) empiricaldispersion=gd3bj scf=xqc pop=npa geom=c
 heck
 ----------------------------------------------------------------------

 ---------------------------------------
 CID_119022917_JID_2520_Energie_neutraal
 ---------------------------------------
 Structure from the checkpoint file:  "JID_2520.chk"
 Charge =  0 Multiplicity = 1

 SCF Done:  E(RB3LYP) =  -517.844044785     A.U. after   15 cycles
 Normal termination of Gaussian 16 at Wed Dec  9 17:40:41 2020.

 ----------------------------------------------------------------------
 # B3LYP/6-311++G(d,p) empiricaldispersion=gd3bj scf=xqc pop=npa geom=c
 heck
 ----------------------------------------------------------------------

 -------------------------------------
 CID_119022917_JID_2520_Energie_kation
 -------------------------------------
 Structure from the checkpoint file:  "JID_2520.chk"
 Charge =  1 Multiplicity = 2

 SCF Done:  E(UB3LYP) =  -517.543390155     A.U. after   22 cycles
 Normal termination of Gaussian 16 at Wed Dec  9 17:45:22 2020.
 Gaussian 16:  ES64L-G16RevA.03 25-Dec-2016

 ----------------------------------------------------------------------
 # B3LYP/6-311++G(d,p) empiricaldispersion=gd3bj scf=xqc pop=npa geom=c
 heck
 ----------------------------------------------------------------------

 ------------------------------------
 CID_119022917_JID_2520_Energie_anion
 ------------------------------------
 Structure from the checkpoint file:  "JID_2520.chk"
 Charge = -1 Multiplicity = 2

                         Standard orientation:
 ---------------------------------------------------------------------
 Center     Atomic      Atomic             Coordinates (Angstroms)
 Number     Number       Type             X           Y           Z
 ---------------------------------------------------------------------
      1          6           0        1.533256    2.096843   -0.345949
      2          6           0        0.450613    1.049482   -0.253459
      3          6           0       -0.869113    1.414776    0.036427
      4          6           0       -1.911622    0.495031    0.146159
      5          6           0       -1.604062   -0.859863   -0.046939
      6          6           0       -0.299885   -1.255583   -0.339698
      7          6           0        0.725430   -0.313514   -0.445489
      8          6           0        2.133353   -0.789130   -0.766510
      9          6           0        3.043048   -0.678929    0.381501
     10          7           0        3.748586   -0.574676    1.297141
     11          8           0       -2.636581   -1.753475    0.063429
     12          6           0       -3.323395    0.911145    0.460221
     13          1           0        2.029630    2.088030   -1.325521
     14          1           0        1.117258    3.097549   -0.199375
     15          1           0        2.313262    1.944377    0.409362
     16          1           0       -1.095823    2.467996    0.185900
     17          1           0       -0.078587   -2.311923   -0.485020
     18          1           0        2.116529   -1.835385   -1.090649
     19          1           0        2.564362   -0.210121   -1.593127
     20          1           0       -2.293430   -2.649755   -0.073892
     21          1           0       -3.392652    1.995808    0.582655
     22          1           0       -4.013026    0.607403   -0.336061
     23          1           0       -3.680722    0.435009    1.380721
 ---------------------------------------------------------------------

 SCF Done:  E(UB3LYP) =  -517.835513866     A.U. after   32 cycles

 The electronic state is 2-A.
 Alpha  occ. eigenvalues --  -19.04769 -14.21168 -10.13100 -10.11724 -10.11375
 Alpha  occ. eigenvalues --  -10.09093 -10.08130 -10.08035 -10.07408 -10.07322
 Alpha  occ. eigenvalues --  -10.07315 -10.07118  -0.95806  -0.81024  -0.76790
 Alpha  occ. eigenvalues --   -0.70783  -0.67112  -0.65060  -0.59381  -0.57524
 Alpha  occ. eigenvalues --   -0.52249  -0.47542  -0.44873  -0.40630  -0.40292
 Alpha  occ. eigenvalues --   -0.36682  -0.34634  -0.34313  -0.33502  -0.32244
 Alpha  occ. eigenvalues --   -0.31798  -0.30513  -0.29785  -0.28925  -0.27750
 Alpha  occ. eigenvalues --   -0.27088  -0.25647  -0.25235  -0.22931  -0.22785
 Alpha  occ. eigenvalues --   -0.22532  -0.15174  -0.12012   0.04371
 Alpha virt. eigenvalues --    0.06577   0.06932   0.07875   0.08615   0.09102
 Alpha virt. eigenvalues --    0.09506   0.10662   0.11323   0.11699   0.11851
 Alpha virt. eigenvalues --    0.12151   0.13074   0.13383   0.13776   0.14870

  Beta  occ. eigenvalues --  -19.04714 -14.21153 -10.13103 -10.11681 -10.11372
  Beta  occ. eigenvalues --  -10.09083 -10.08131 -10.08015 -10.07396 -10.07311
  Beta  occ. eigenvalues --  -10.07294 -10.07066  -0.95700  -0.80992  -0.76752
  Beta  occ. eigenvalues --   -0.70728  -0.67068  -0.65000  -0.59334  -0.57465
  Beta  occ. eigenvalues --   -0.52158  -0.47484  -0.44793  -0.40568  -0.40231
  Beta  occ. eigenvalues --   -0.36601  -0.34554  -0.34266  -0.33458  -0.32213
  Beta  occ. eigenvalues --   -0.31753  -0.30483  -0.29755  -0.28887  -0.27710
  Beta  occ. eigenvalues --   -0.27061  -0.25607  -0.25173  -0.22901  -0.22732
  Beta  occ. eigenvalues --   -0.22475  -0.15074  -0.11954
  Beta virt. eigenvalues --    0.06589   0.07458   0.07913   0.08196   0.09426
  Beta virt. eigenvalues --    0.09500   0.09824   0.10918   0.11334   0.11926
  Beta virt. eigenvalues --    0.11981   0.12491   0.13181   0.13655   0.13800

 Mulliken charges and spin densities:
               1          2
     1  C    0.560285  -1.377284
     2  C   -1.189707   1.591687
     3  C   -2.125889   1.004385
     4  C    2.889643  -1.655031
     5  C    1.719554  -3.023801
     6  C   -1.485009   1.128539
     7  C   -0.762083   1.654370
     8  C    1.080686  -0.762637
     9  C    0.928664  -1.213954
    10  N   -0.400269   0.056433
    11  O   -0.308666   0.093498
    12  C    0.755928  -1.077351
    13  H   -0.063110   0.215234
    14  H   -0.045562   0.193705
    15  H    0.117978   0.045241
    16  H   -0.141407   0.224594
    17  H   -1.214597   1.405659
    18  H   -0.608920   0.838664
    19  H   -0.432411   0.613360
    20  H   -0.473743   0.758123
    21  H    0.089675   0.043074
    22  H    0.007836   0.170722
    23  H    0.101124   0.072770
 Sum of Mulliken charges =  -1.00000   1.00000

 Dipole moment (field-independent basis, Debye):
    X=             -2.2370    Y=              7.2074    Z=              1.6295  Tot=              7.7205
 Quadrupole moment (field-independent basis, Debye-Ang):
   XX=           -130.6761   YY=           -121.0088   ZZ=           -101.9553
   XY=             -5.6661   XZ=             -4.0837   YZ=             -3.1779

 Summary of Natural Population Analysis:

                                       Natural Population
                Natural  -----------------------------------------------
    Atom  No    Charge         Core      Valence    Rydberg      Total
 -----------------------------------------------------------------------
      C    1   -0.29601      0.99964     2.29080    0.00558     3.29601
      C    2   -0.02701      0.99947     2.01737    0.01017     3.02701
      C    3   -0.08829      0.99949     2.08107    0.00773     3.08829
      C    4   -0.03461      0.99948     2.02505    0.01009     3.03461
      C    5    0.16248      0.99934     1.82522    0.01297     2.83752
      C    6   -0.12120      0.99946     2.11016    0.01158     3.12120
      C    7   -0.00933      0.99946     1.99855    0.01133     3.00933
      C    8   -0.25410      0.99952     2.24346    0.01112     3.25410
      C    9    0.16929      0.99965     1.81456    0.01650     2.83071
      N   10   -0.19152      0.99979     2.68040    0.01133     3.69152
      O   11   -0.34284      0.99988     3.33589    0.00707     4.34284
      C   12   -0.29085      0.99964     2.28609    0.00513     3.29085
      H   13    0.10367      0.00000     0.39515    0.00117     0.39633
      H   14    0.10073      0.00000     0.39850    0.00077     0.39927
      H   15    0.10812      0.00000     0.39087    0.00101     0.39188
      H   16    0.09416      0.00000     0.40459    0.00125     0.40584
      H   17    0.10778      0.00000     0.38681    0.00541     0.39222
      H   18    0.12956      0.00000     0.36723    0.00321     0.37044
      H   19    0.12645      0.00000     0.37089    0.00266     0.37355
      H   20    0.24332      0.00000     0.24056    0.01612     0.25668
      H   21    0.09695      0.00000     0.40226    0.00079     0.40305
      H   22    0.10727      0.00000     0.39147    0.00126     0.39273
      H   23    0.10598      0.00000     0.39282    0.00119     0.39402
 =======================================================================
   * Total *    0.00000     11.99479    30.84977    0.15544    43.00000

 Normal termination of Gaussian 16 at Wed Dec  9 17:51:45 2020.
