 Gaussian 16, Revision A.03,

 -----------------------------------------------------------
 # opt freq B3LYP/6-31G(d) empiricaldispersion=gd3bj scf=xqc
 -----------------------------------------------------------

 -------------------------------
 CID_81116799_JID_10903_neutraal
 -------------------------------
 Symbolic Z-matrix:
 Charge =  0 Multiplicity = 1

 SCF Done:  E(RB3LYP) =  -1276.51036677     A.U. after   15 cycles
 SCF Done:  E(RB3LYP) =  -1276.51923733     A.U. after   13 cycles
 SCF Done:  E(RB3LYP) =  -1276.51941106     A.U. after   13 cycles
 SCF Done:  E(RB3LYP) =  -1276.52131647     A.U. after   12 cycles
 SCF Done:  E(RB3LYP) =  -1276.52183971     A.U. after   12 cycles
 SCF Done:  E(RB3LYP) =  -1276.52216598     A.U. after   11 cycles
 SCF Done:  E(RB3LYP) =  -1276.52241099     A.U. after   12 cycles
 SCF Done:  E(RB3LYP) =  -1276.52273523     A.U. after   12 cycles
 SCF Done:  E(RB3LYP) =  -1276.52298172     A.U. after   12 cycles
 SCF Done:  E(RB3LYP) =  -1276.52317038     A.U. after   13 cycles
 SCF Done:  E(RB3LYP) =  -1276.52428717     A.U. after   10 cycles
 SCF Done:  E(RB3LYP) =  -1276.52428869     A.U. after    8 cycles
 SCF Done:  E(RB3LYP) =  -1276.52428923     A.U. after    8 cycles
 SCF Done:  E(RB3LYP) =  -1276.52428938     A.U. after    7 cycles
 SCF Done:  E(RB3LYP) =  -1276.52428941     A.U. after    7 cycles
 Optimization completed.
    -- Stationary point found.
 Normal termination of Gaussian 16 at Mon Dec 14 15:04:56 2020.

 --------------------------------------------------------------------
 #N Geom=AllCheck Guess=TCheck SCRF=Check GenChk RB3LYP/6-31G(d) Freq
 --------------------------------------------------------------------

 Structure from the checkpoint file:  "JID_10903.chk"
 -------------------------------
 CID_81116799_JID_10903_neutraal
 -------------------------------
 Charge =  0 Multiplicity = 1

 SCF Done:  E(RB3LYP) =  -1276.52428941     A.U. after    1 cycles

  Exact polarizability: 241.308  -6.445 175.666 -13.034 -10.629 133.178
 Approx polarizability: 324.906 -19.420 331.169 -20.167 -32.892 205.531

                      1                      2                      3
                      A                      A                      A
 Frequencies --     15.3100                26.5396                34.0372
 Red. masses --      5.1529                 4.8954                 5.1374
 Frc consts  --      0.0007                 0.0020                 0.0035
 IR Inten    --      0.1923                 0.7974                 1.2042

                      4                      5                      6
                      A                      A                      A
 Frequencies --     51.6601                63.2228               112.2975
 Red. masses --      6.3821                 6.0759                 6.4957
 Frc consts  --      0.0100                 0.0143                 0.0483
 IR Inten    --      1.9406                 0.9586                 1.1067

                      7                      8                      9
                      A                      A                      A
 Frequencies --    119.3719               140.0368               143.0404
 Red. masses --      2.8653                 4.7670                 5.5358
 Frc consts  --      0.0241                 0.0551                 0.0667
 IR Inten    --      4.5528                 3.9795                 2.7192

                     10                     11                     12
                      A                      A                      A
 Frequencies --    162.5895               183.4387               189.8938
 Red. masses --      4.2157                 1.9191                 5.0997
 Frc consts  --      0.0657                 0.0380                 0.1083
 IR Inten    --      2.0736                 3.2348                 1.4197

                     13                     14                     15
                      A                      A                      A
 Frequencies --    212.7510               248.2437               258.7517
 Red. masses --      1.7504                 3.5999                 1.0451
 Frc consts  --      0.0467                 0.1307                 0.0412
 IR Inten    --      7.4713                 1.8599                22.5680

                     16                     17                     18
                      A                      A                      A
 Frequencies --    284.6384               326.8672               337.8508
 Red. masses --      2.5272                 6.1365                 5.2965
 Frc consts  --      0.1206                 0.3863                 0.3562
 IR Inten    --      2.9090                 0.8260                 1.2514

                     19                     20                     21
                      A                      A                      A
 Frequencies --    364.2409               379.2536               399.0854
 Red. masses --      6.1459                 4.7957                 3.0266
 Frc consts  --      0.4804                 0.4064                 0.2840
 IR Inten    --      8.3559                 2.9472                 0.6621

                     22                     23                     24
                      A                      A                      A
 Frequencies --    424.7695               454.5395               474.8280
 Red. masses --      3.2488                 3.7620                 4.5655
 Frc consts  --      0.3454                 0.4579                 0.6065
 IR Inten    --      0.4577                 0.9933                 1.3395

                     25                     26                     27
                      A                      A                      A
 Frequencies --    489.1352               502.7535               542.9015
 Red. masses --      3.8686                 4.4882                 5.8008
 Frc consts  --      0.5453                 0.6684                 1.0073
 IR Inten    --      9.0161                21.2174                43.2965

                     28                     29                     30
                      A                      A                      A
 Frequencies --    554.5034               575.0341               640.1527
 Red. masses --      2.7202                 4.7431                 4.3748
 Frc consts  --      0.4928                 0.9241                 1.0563
 IR Inten    --     15.9172                 7.2973                32.5081

                     31                     32                     33
                      A                      A                      A
 Frequencies --    651.7243               658.8697               675.9067
 Red. masses --      1.6197                 5.8691                 2.2585
 Frc consts  --      0.4053                 1.5011                 0.6079
 IR Inten    --    340.1379                16.0556                17.4579

                     34                     35                     36
                      A                      A                      A
 Frequencies --    708.3373               714.2410               720.9848
 Red. masses --      4.7123                 1.9466                 3.7559
 Frc consts  --      1.3931                 0.5851                 1.1503
 IR Inten    --     10.1002                59.8998                32.7018

                     37                     38                     39
                      A                      A                      A
 Frequencies --    748.3680               771.6765               796.5997
 Red. masses --      3.2754                 1.8288                 3.6932
 Frc consts  --      1.0808                 0.6416                 1.3808
 IR Inten    --      3.2252                53.4846                75.0190

                     40                     41                     42
                      A                      A                      A
 Frequencies --    814.5072               840.6765               850.3872
 Red. masses --      1.2707                 1.7722                 4.2887
 Frc consts  --      0.4967                 0.7380                 1.8273
 IR Inten    --      3.5383                68.4203                16.7874

                     43                     44                     45
                      A                      A                      A
 Frequencies --    855.1852               891.5029               905.8984
 Red. masses --      3.9090                 1.3113                 2.8348
 Frc consts  --      1.6843                 0.6141                 1.3707
 IR Inten    --      2.2170                 0.9357                29.2212

                     46                     47                     48
                      A                      A                      A
 Frequencies --    928.4443               935.7659               948.9216
 Red. masses --      1.2997                 1.3043                 1.8764
 Frc consts  --      0.6601                 0.6729                 0.9955
 IR Inten    --      2.3940                 3.1381                17.0197

                     49                     50                     51
                      A                      A                      A
 Frequencies --    972.8627              1031.9862              1039.9546
 Red. masses --      5.3750                 2.6935                 4.1737
 Frc consts  --      2.9973                 1.6901                 2.6595
 IR Inten    --     28.2310                 4.9766                70.0700

                     52                     53                     54
                      A                      A                      A
 Frequencies --   1075.1911              1090.0231              1101.6592
 Red. masses --      3.6297                 3.5094                 1.4540
 Frc consts  --      2.4722                 2.4567                 1.0397
 IR Inten    --     93.9191                42.1971                 3.6997

                     55                     56                     57
                      A                      A                      A
 Frequencies --   1109.8242              1139.3511              1161.7715
 Red. masses --      1.6198                 1.9222                 1.1852
 Frc consts  --      1.1755                 1.4702                 0.9425
 IR Inten    --      8.3588                 9.1337                 9.1407

                     58                     59                     60
                      A                      A                      A
 Frequencies --   1173.8005              1185.0419              1203.5084
 Red. masses --      2.8333                 1.2462                 1.1408
 Frc consts  --      2.3000                 1.0311                 0.9735
 IR Inten    --     27.2749                 1.2631                 1.6619

                     61                     62                     63
                      A                      A                      A
 Frequencies --   1221.7727              1260.8300              1268.8242
 Red. masses --      1.3934                 2.2111                 2.1899
 Frc consts  --      1.2255                 2.0710                 2.0772
 IR Inten    --      0.1483               136.9073               232.2549

                     64                     65                     66
                      A                      A                      A
 Frequencies --   1294.0417              1319.3887              1335.5216
 Red. masses --      1.4513                 2.8997                 1.6379
 Frc consts  --      1.4319                 2.9741                 1.7212
 IR Inten    --     66.7159                27.7087                40.0507

                     67                     68                     69
                      A                      A                      A
 Frequencies --   1342.3183              1373.5430              1381.0496
 Red. masses --      1.4935                 2.9973                 2.5104
 Frc consts  --      1.5855                 3.3317                 2.8211
 IR Inten    --     54.1577                48.7944               107.4024

                     70                     71                     72
                      A                      A                      A
 Frequencies --   1413.2438              1433.1603              1439.2379
 Red. masses --      1.4636                 1.3469                 2.8618
 Frc consts  --      1.7223                 1.6300                 3.4927
 IR Inten    --     12.8802                56.7750               143.0173

                     73                     74                     75
                      A                      A                      A
 Frequencies --   1476.1970              1488.0655              1490.1621
 Red. masses --      5.1025                 2.8794                 1.5292
 Frc consts  --      6.5513                 3.7566                 2.0007
 IR Inten    --    257.7455                 0.4539                 3.0935

                     76                     77                     78
                      A                      A                      A
 Frequencies --   1501.9522              1513.6556              1517.8835
 Red. masses --      1.3367                 1.0559                 1.1755
 Frc consts  --      1.7767                 1.4254                 1.5958
 IR Inten    --      3.5314                 7.0289                 6.4482

                     79                     80                     81
                      A                      A                      A
 Frequencies --   1525.8613              1531.6068              1567.1207
 Red. masses --      1.1533                 1.0581                 2.6115
 Frc consts  --      1.5821                 1.4624                 3.7787
 IR Inten    --      1.5505                33.6212               235.7570

                     82                     83                     84
                      A                      A                      A
 Frequencies --   1590.0922              1643.0396              1679.4159
 Red. masses --      5.0728                 6.4686                 2.6695
 Frc consts  --      7.5569                10.2886                 4.4361
 IR Inten    --     54.7055                 0.3867                 8.3266

                     85                     86                     87
                      A                      A                      A
 Frequencies --   1697.9208              1742.3591              3006.4951
 Red. masses --      1.4786                 7.2371                 1.0730
 Frc consts  --      2.5115                12.9446                 5.7142
 IR Inten    --     65.6982               304.3187                39.9258

                     88                     89                     90
                      A                      A                      A
 Frequencies --   3037.3346              3054.7940              3081.4045
 Red. masses --      1.0588                 1.0398                 1.1083
 Frc consts  --      5.7553                 5.7172                 6.2003
 IR Inten    --     80.0862                44.2720                36.8167

                     91                     92                     93
                      A                      A                      A
 Frequencies --   3145.0133              3178.6551              3179.5549
 Red. masses --      1.0976                 1.0890                 1.0892
 Frc consts  --      6.3964                 6.4829                 6.4876
 IR Inten    --     25.4471                18.7704                22.3982

                     94                     95                     96
                      A                      A                      A
 Frequencies --   3186.4706              3196.3607              3213.3501
 Red. masses --      1.0894                 1.1041                 1.0930
 Frc consts  --      6.5169                 6.6461                 6.6494
 IR Inten    --      4.1398                12.5891                 7.6258

                     97                     98                     99
                      A                      A                      A
 Frequencies --   3236.1108              3236.7124              3268.0345
 Red. masses --      1.0907                 1.0905                 1.0979
 Frc consts  --      6.7299                 6.7310                 6.9086
 IR Inten    --      2.5703                 3.2566                 0.5000

                    100                    101                    102
                      A                      A                      A
 Frequencies --   3541.1223              3542.0394              3639.1555
 Red. masses --      1.0743                 1.0482                 1.0974
 Frc consts  --      7.9368                 7.7480                 8.5625
 IR Inten    --     13.8528                 9.6283                 6.5938

 - Thermochemistry -
 -------------------
 Temperature   298.150 Kelvin.  Pressure   1.00000 Atm.
 Atom     1 has atomic number  6 and mass  12.00000

 Molecular mass:   292.08816 amu.
 Principal axes and moments of inertia in atomic units:
                           1         2         3
     Eigenvalues --  2697.69528********************
           X            0.99996   0.00804  -0.00441
           Y           -0.00776   0.99817   0.06004
           Z            0.00489  -0.06000   0.99819
 This molecule is an asymmetric top.
 Rotational symmetry number  1.
 Warning -- assumption of classical behavior for rotation
           may cause significant error
 Rotational temperatures (Kelvin)      0.03211     0.00716     0.00697
 Rotational constants (GHZ):           0.66899     0.14922     0.14521
 Zero-point vibrational energy     754877.0 (Joules/Mol)
                                  180.41994 (Kcal/Mol)
 Warning -- explicit consideration of  29 degrees of freedom as
           vibrations may cause significant error
 Vibrational temperatures:     22.03    38.18    48.97    74.33    90.96
          (Kelvin)            161.57   171.75   201.48   205.80   233.93
                              263.93   273.21   306.10   357.17   372.29
                              409.53   470.29   486.09   524.06   545.66
                              574.19   611.15   653.98   683.17   703.76
                              723.35   781.11   797.81   827.35   921.04
                              937.69   947.97   972.48  1019.14  1027.63
                             1037.34  1076.73  1110.27  1146.13  1171.89
                             1209.55  1223.52  1230.42  1282.67  1303.39
                             1335.82  1346.36  1365.29  1399.73  1484.80
                             1496.26  1546.96  1568.30  1585.04  1596.79
                             1639.27  1671.53  1688.84  1705.01  1731.58
                             1757.86  1814.05  1825.56  1861.84  1898.31
                             1921.52  1931.30  1976.22  1987.02  2033.34
                             2062.00  2070.74  2123.92  2140.99  2144.01
                             2160.97  2177.81  2183.90  2195.37  2203.64
                             2254.74  2287.79  2363.97  2416.30  2442.93
                             2506.87  4325.68  4370.05  4395.17  4433.45
                             4524.97  4573.38  4574.67  4584.62  4598.85
                             4623.29  4656.04  4656.91  4701.97  5094.89
                             5096.20  5235.93

 Zero-point correction=                           0.287517 (Hartree/Particle)
 Thermal correction to Energy=                    0.306757
 Thermal correction to Enthalpy=                  0.307701
 Thermal correction to Gibbs Free Energy=         0.237602
 Sum of electronic and zero-point Energies=          -1276.236772
 Sum of electronic and thermal Energies=             -1276.217532
 Sum of electronic and thermal Enthalpies=           -1276.216588
 Sum of electronic and thermal Free Energies=        -1276.286687

                     E (Thermal)             CV                S
                      KCal/Mol        Cal/Mol-Kelvin    Cal/Mol-Kelvin
 Total                  192.493             72.573            147.536
 Electronic               0.000              0.000              0.000
 Translational            0.889              2.981             42.913
 Rotational               0.889              2.981             34.360
 Vibrational            190.715             66.611             70.263
 Vibration     1          0.593              1.986              7.165
 Vibration     2          0.593              1.984              6.073
 Vibration     3          0.594              1.983              5.579
 Vibration     4          0.596              1.977              4.753
 Vibration     5          0.597              1.972              4.354
 Vibration     6          0.607              1.939              3.229
 Vibration     7          0.609              1.933              3.111
 Vibration     8          0.615              1.913              2.803
 Vibration     9          0.616              1.910              2.763
 Vibration    10          0.623              1.888              2.519
 Vibration    11          0.631              1.862              2.293
 Vibration    12          0.633              1.854              2.229
 Vibration    13          0.644              1.821              2.020
 Vibration    14          0.662              1.766              1.743
 Vibration    15          0.668              1.748              1.670
 Vibration    16          0.683              1.702              1.506
 Vibration    17          0.711              1.622              1.276
 Vibration    18          0.718              1.600              1.222
 Vibration    19          0.738              1.546              1.104
 Vibration    20          0.749              1.514              1.042
 Vibration    21          0.765              1.472              0.966
 Vibration    22          0.787              1.416              0.876
 Vibration    23          0.813              1.351              0.782
 Vibration    24          0.832              1.306              0.724
 Vibration    25          0.845              1.274              0.686
 Vibration    26          0.858              1.244              0.651
 Vibration    27          0.898              1.155              0.559
 Vibration    28          0.910              1.130              0.535
 Vibration    29          0.931              1.085              0.495

 Optimization completed.
    -- Stationary point found.
 Normal termination of Gaussian 16 at Mon Dec 14 15:22:54 2020.

 ----------------------------------------------------------------------
 # B3LYP/6-311++G(d,p) empiricaldispersion=gd3bj scf=xqc pop=npa geom=c
 heck
 ----------------------------------------------------------------------

 ---------------------------------------
 CID_81116799_JID_10903_Energie_neutraal
 ---------------------------------------
 Structure from the checkpoint file:  "JID_10903.chk"
 Charge =  0 Multiplicity = 1

 SCF Done:  E(RB3LYP) =  -1276.80324014     A.U. after   16 cycles
 Normal termination of Gaussian 16 at Mon Dec 14 15:30:19 2020.

 ----------------------------------------------------------------------
 # B3LYP/6-311++G(d,p) empiricaldispersion=gd3bj scf=xqc pop=npa geom=c
 heck
 ----------------------------------------------------------------------

 -------------------------------------
 CID_81116799_JID_10903_Energie_kation
 -------------------------------------
 Structure from the checkpoint file:  "JID_10903.chk"
 Charge =  1 Multiplicity = 2

 SCF Done:  E(UB3LYP) =  -1276.53351144     A.U. after   30 cycles
 Normal termination of Gaussian 16 at Mon Dec 14 15:48:13 2020.
 Gaussian 16:  ES64L-G16RevA.03 25-Dec-2016

 ----------------------------------------------------------------------
 # B3LYP/6-311++G(d,p) empiricaldispersion=gd3bj scf=xqc pop=npa geom=c
 heck
 ----------------------------------------------------------------------

 ------------------------------------
 CID_81116799_JID_10903_Energie_anion
 ------------------------------------
 Structure from the checkpoint file:  "JID_10903.chk"
 Charge = -1 Multiplicity = 2

                         Standard orientation:
 ---------------------------------------------------------------------
 Center     Atomic      Atomic             Coordinates (Angstroms)
 Number     Number       Type             X           Y           Z
 ---------------------------------------------------------------------
      1          6           0        0.321666    1.487096    0.983552
      2          8           0        1.391873    1.747563    0.059371
      3          6           0        2.548910    1.062431    0.289639
      4          6           0        2.732640   -0.308576    0.191933
      5         16           0        4.376570   -0.732599    0.615833
      6          6           0        4.799365    0.926062    0.843715
      7          6           0        3.736611    1.765006    0.652471
      8          6           0        1.853016   -1.457618   -0.111112
      9          8           0        2.109943   -2.571814    0.341850
     10          7           0        0.731526   -1.273551   -0.900991
     11          6           0        0.614933   -0.355737   -2.032923
     12          6           0       -0.839740   -0.087882   -2.404557
     13          8           0       -1.463581    0.829874   -1.511409
     14          6           0       -2.508083    0.403370   -0.720625
     15          6           0       -3.583233    1.281916   -0.567416
     16          6           0       -4.650414    0.953811    0.261963
     17          6           0       -4.677057   -0.269915    0.949999
     18          6           0       -3.592301   -1.143616    0.789318
     19          6           0       -2.513871   -0.809502   -0.028029
     20          7           0       -5.727205   -0.577947    1.828018
     21          1           0       -0.506096    2.119959    0.667302
     22          1           0        0.636607    1.747651    2.000876
     23          1           0        0.007381    0.442144    0.943086
     24          1           0        5.810311    1.193067    1.121353
     25          1           0        3.762053    2.842403    0.763984
     26          1           0        0.304647   -2.181874   -1.060412
     27          1           0        1.080119    0.593661   -1.774146
     28          1           0        1.127038   -0.766305   -2.917307
     29          1           0       -0.857741    0.375394   -3.399114
     30          1           0       -1.416228   -1.020554   -2.459549
     31          1           0       -3.568915    2.222383   -1.109092
     32          1           0       -5.477227    1.650918    0.376045
     33          1           0       -3.580755   -2.088239    1.327902
     34          1           0       -1.665809   -1.479647   -0.100388
     35          1           0       -5.867738   -1.570825    1.971730
     36          1           0       -6.603558   -0.124123    1.599157
 ---------------------------------------------------------------------

 SCF Done:  E(UB3LYP) =  -1276.77188455     A.U. after   33 cycles
 SCF Done:  E(UB3LYP) =  -1276.80634355     a.u. after   27 cycles

 The electronic state is 2-A.
 Alpha  occ. eigenvalues --  -88.74865 -19.05198 -19.03357 -18.96087 -14.22504
 Alpha  occ. eigenvalues --  -14.22065 -10.14678 -10.14168 -10.13423 -10.12196
 Alpha  occ. eigenvalues --  -10.10929 -10.10836 -10.10665 -10.08439 -10.08324
 Alpha  occ. eigenvalues --  -10.08295 -10.08223 -10.07419 -10.07238 -10.05823
 Alpha  occ. eigenvalues --   -7.83486  -5.79786  -5.79419  -5.79087  -0.96834
 Alpha  occ. eigenvalues --   -0.94823  -0.91630  -0.82841  -0.80980  -0.75759
 Alpha  occ. eigenvalues --   -0.75091  -0.67493  -0.66108  -0.62940  -0.62675
 Alpha  occ. eigenvalues --   -0.61908  -0.57187  -0.55199  -0.53171  -0.50869
 Alpha  occ. eigenvalues --   -0.50026  -0.45151  -0.45037  -0.43483  -0.42780
 Alpha  occ. eigenvalues --   -0.42023  -0.41470  -0.39102  -0.37258  -0.36112
 Alpha  occ. eigenvalues --   -0.35725  -0.35370  -0.35092  -0.33704  -0.33586
 Alpha  occ. eigenvalues --   -0.32739  -0.32513  -0.31371  -0.30123  -0.29353
 Alpha  occ. eigenvalues --   -0.28865  -0.28134  -0.27101  -0.26762  -0.26038
 Alpha  occ. eigenvalues --   -0.25474  -0.23942  -0.22820  -0.22623  -0.19279
 Alpha  occ. eigenvalues --   -0.17821  -0.16851  -0.15742  -0.14017  -0.12860
 Alpha  occ. eigenvalues --   -0.12031  -0.10987   0.03568
 Alpha virt. eigenvalues --    0.04650   0.06791   0.06983   0.07182   0.07911
 Alpha virt. eigenvalues --    0.08341   0.08939   0.09242   0.09683   0.10215
 Alpha virt. eigenvalues --    0.10824   0.11146   0.11677   0.12111   0.13020

  Beta  occ. eigenvalues --  -88.74817 -19.05196 -19.03345 -18.95897 -14.22451
  Beta  occ. eigenvalues --  -14.22037 -10.14497 -10.14167 -10.13423 -10.12194
  Beta  occ. eigenvalues --  -10.10921 -10.10646 -10.10634 -10.08436 -10.08313
  Beta  occ. eigenvalues --  -10.08289 -10.08214 -10.07151 -10.07133 -10.05892
  Beta  occ. eigenvalues --   -7.83442  -5.79762  -5.79396  -5.78934  -0.96828
  Beta  occ. eigenvalues --   -0.94732  -0.91287  -0.82779  -0.80845  -0.75506
  Beta  occ. eigenvalues --   -0.75063  -0.67452  -0.66091  -0.62708  -0.62498
  Beta  occ. eigenvalues --   -0.61683  -0.57038  -0.55153  -0.53136  -0.50484
  Beta  occ. eigenvalues --   -0.49972  -0.45047  -0.44866  -0.43373  -0.42700
  Beta  occ. eigenvalues --   -0.41947  -0.41386  -0.39035  -0.37171  -0.36021
  Beta  occ. eigenvalues --   -0.35694  -0.35158  -0.35019  -0.33647  -0.33502
  Beta  occ. eigenvalues --   -0.32699  -0.32462  -0.31197  -0.29923  -0.29152
  Beta  occ. eigenvalues --   -0.28566  -0.27946  -0.26789  -0.26734  -0.25753
  Beta  occ. eigenvalues --   -0.25365  -0.23499  -0.22741  -0.22356  -0.19234
  Beta  occ. eigenvalues --   -0.17691  -0.16834  -0.15297  -0.13646  -0.12307
  Beta  occ. eigenvalues --   -0.10965  -0.10815
  Beta virt. eigenvalues --    0.05942   0.06763   0.07051   0.07486   0.07726
  Beta virt. eigenvalues --    0.08055   0.08586   0.09000   0.09273   0.09677
  Beta virt. eigenvalues --    0.10186   0.10776   0.11292   0.11911   0.12311

 Mulliken charges and spin densities:
               1          2
     1  C   -0.331754  -0.031487
     2  O   -0.084438  -0.000291
     3  C   -0.702268   0.143274
     4  C    0.725814   0.107718
     5  S   -0.461526   0.081404
     6  C   -0.150966   0.185713
     7  C    0.221280  -0.064253
     8  C   -0.394757   0.041130
     9  O   -0.359237   0.069005
    10  N   -0.175312  -0.006345
    11  C   -0.174657   0.056515
    12  C   -0.182381  -0.176033
    13  O    0.059074  -0.008181
    14  C    0.037992  -0.450947
    15  C   -0.917198   0.582132
    16  C    0.365333  -0.311039
    17  C    0.192541  -0.685327
    18  C   -0.860628   0.569821
    19  C    1.143280  -0.618279
    20  N   -0.242369  -0.059269
    21  H    0.178549   0.000083
    22  H    0.100943   0.027394
    23  H    0.161994   0.007427
    24  H    0.197310  -0.005332
    25  H    0.125455   0.009778
    26  H    0.284650  -0.005177
    27  H    0.223163   0.005663
    28  H    0.143270   0.027879
    29  H    0.137454   0.025805
    30  H    0.117039   0.016556
    31  H    0.112896   0.047911
    32  H   -0.197468   0.361817
    33  H   -0.040496   0.218277
    34  H    0.103095  -0.001427
    35  H   -0.173819   0.416656
    36  H   -0.181857   0.421427
 Sum of Mulliken charges =  -1.00000   1.00000

 Dipole moment (field-independent basis, Debye):
    X=              1.9461    Y=              2.7996    Z=             -4.7091  Tot=              5.8138
 Quadrupole moment (field-independent basis, Debye-Ang):
   XX=           -235.9535   YY=           -153.3446   ZZ=           -144.3586
   XY=              5.2024   XZ=             14.1579   YZ=              7.4469

 Summary of Natural Population Analysis:

                                       Natural Population
                Natural  -----------------------------------------------
    Atom  No    Charge         Core      Valence    Rydberg      Total
 -----------------------------------------------------------------------
      C    1   -0.09360      0.99959     2.08553    0.00848     3.09360
      O    2   -0.29169      0.99986     3.28186    0.00997     4.29169
      C    3    0.17173      0.99929     1.81597    0.01301     2.82827
      C    4   -0.16389      0.99941     2.15317    0.01132     3.16389
      S    5    0.23504      4.99946     2.74202    0.02348     7.76496
      C    6   -0.13862      0.99956     2.12833    0.01072     3.13862
      C    7   -0.16692      0.99950     2.15727    0.01016     3.16692
      C    8    0.34765      0.99960     1.63023    0.02252     2.65235
      O    9   -0.30960      0.99988     3.30445    0.00527     4.30960
      N   10   -0.32854      0.99968     2.81849    0.01038     3.82854
      C   11   -0.10329      0.99960     2.09460    0.00909     3.10329
      C   12   -0.00880      0.99956     1.99778    0.01145     3.00880
      O   13   -0.28879      0.99985     3.27802    0.01092     4.28879
      C   14    0.13763      0.99935     1.84896    0.01406     2.86237
      C   15   -0.11306      0.99952     2.10315    0.01039     3.11306
      C   16   -0.11994      0.99953     2.11074    0.00967     3.11994
      C   17    0.07442      0.99949     1.91508    0.01101     2.92558
      C   18   -0.11700      0.99953     2.10772    0.00975     3.11700
      C   19   -0.12705      0.99951     2.11795    0.00959     3.12705
      N   20   -0.39726      0.99972     2.88705    0.01049     3.89726
      H   21    0.09129      0.00000     0.40758    0.00113     0.40871
      H   22    0.07852      0.00000     0.42027    0.00121     0.42148
      H   23    0.09043      0.00000     0.40786    0.00171     0.40957
      H   24    0.09845      0.00000     0.40060    0.00094     0.40155
      H   25    0.10259      0.00000     0.39629    0.00112     0.39741
      H   26    0.18197      0.00000     0.31504    0.00298     0.31803
      H   27    0.11937      0.00000     0.37881    0.00182     0.38063
      H   28    0.08365      0.00000     0.41459    0.00176     0.41635
      H   29    0.08644      0.00000     0.41237    0.00119     0.41356
      H   30    0.08377      0.00000     0.41475    0.00148     0.41623
      H   31    0.10418      0.00000     0.39478    0.00104     0.39582
      H   32    0.09984      0.00000     0.39925    0.00092     0.40016
      H   33    0.10046      0.00000     0.39862    0.00092     0.39954
      H   34    0.10956      0.00000     0.38865    0.00179     0.39044
      H   35    0.18541      0.00000     0.31156    0.00303     0.31459
      H   36    0.18565      0.00000     0.31047    0.00388     0.31435
 =======================================================================
   * Total *   -0.00000     23.99148    52.74987    0.25865    77.00000

 Normal termination of Gaussian 16 at Mon Dec 14 17:56:10 2020.
