 Gaussian 16, Revision A.03,

 -----------------------------------------------------------
 # opt freq B3LYP/6-31G(d) empiricaldispersion=gd3bj scf=xqc
 -----------------------------------------------------------

 -------------------------------
 CID_131859609_JID_1998_neutraal
 -------------------------------
 Symbolic Z-matrix:
 Charge =  0 Multiplicity = 1

 SCF Done:  E(RB3LYP) =  -463.265650987     A.U. after   14 cycles
 SCF Done:  E(RB3LYP) =  -463.275714837     A.U. after   12 cycles
 SCF Done:  E(RB3LYP) =  -463.277700647     A.U. after   11 cycles
 SCF Done:  E(RB3LYP) =  -463.278302223     A.U. after   12 cycles
 SCF Done:  E(RB3LYP) =  -463.278547762     A.U. after   11 cycles
 SCF Done:  E(RB3LYP) =  -463.279363335     A.U. after   13 cycles
 SCF Done:  E(RB3LYP) =  -463.280085739     A.U. after   14 cycles
 SCF Done:  E(RB3LYP) =  -463.281360997     A.U. after   12 cycles
 SCF Done:  E(RB3LYP) =  -463.282166114     A.U. after   12 cycles
 SCF Done:  E(RB3LYP) =  -463.282401923     A.U. after   12 cycles
 SCF Done:  E(RB3LYP) =  -463.282663625     A.U. after   10 cycles
 SCF Done:  E(RB3LYP) =  -463.282655794     A.U. after   10 cycles
 SCF Done:  E(RB3LYP) =  -463.282664390     A.U. after   10 cycles
 SCF Done:  E(RB3LYP) =  -463.282664754     A.U. after    8 cycles
 SCF Done:  E(RB3LYP) =  -463.282664840     A.U. after    8 cycles
 SCF Done:  E(RB3LYP) =  -463.282664898     A.U. after    7 cycles
 Optimization completed.
    -- Stationary point found.

 1\1\GINC-NODE307\FOpt\RB3LYP\6-31G(d)\C9H18N2\VSC10255\08-Dec-2020\0\\
 # opt freq B3LYP/6-31G(d) empiricaldispersion=gd3bj scf=xqc\\CID_13185
 9609_JID_1998_neutraal\\0,1\C,0.0828589814,-0.3678578694,0.5341119844\
 C,0.9399290166,-1.4903419566,0.0060397617\C,1.2697318992,-2.5445325675
 ,0.7578546676\C,1.405777362,-1.3738189958,-1.4266993949\C,0.2615833078
 ,-1.5903594189,-2.4469107429\C,0.7716145571,-1.4038823022,-3.860112838
 2\N,1.4074320919,-2.2759137985,-4.5498577976\N,1.5739049313,-3.5512759
 801,-3.8699921441\C,0.5535129679,-4.4604868263,-4.3935564364\C,2.90887

 Normal termination of Gaussian 16 at Tue Dec  8 21:57:44 2020.

 --------------------------------------------------------------------
 #N Geom=AllCheck Guess=TCheck SCRF=Check GenChk RB3LYP/6-31G(d) Freq
 --------------------------------------------------------------------

 Structure from the checkpoint file:  "JID_1998.chk"
 -------------------------------
 CID_131859609_JID_1998_neutraal
 -------------------------------
 Charge =  0 Multiplicity = 1

 SCF Done:  E(RB3LYP) =  -463.282664898     A.U. after    1 cycles

  Exact polarizability: 124.120  -6.458 125.184   3.934   0.489  82.255
 Approx polarizability: 156.983 -10.546 180.661   7.626   0.520 119.945

                      1                      2                      3
                      A                      A                      A
 Frequencies --     29.0918                39.2901                45.2484
 Red. masses --      2.7376                 3.4603                 2.8250
 Frc consts  --      0.0014                 0.0031                 0.0034
 IR Inten    --      0.1188                 0.0388                 0.7769

                      4                      5                      6
                      A                      A                      A
 Frequencies --     86.3868               132.2658               158.2396
 Red. masses --      2.2393                 2.6676                 2.7100
 Frc consts  --      0.0098                 0.0275                 0.0400
 IR Inten    --      0.3695                 2.8914                 0.1276

                      7                      8                      9
                      A                      A                      A
 Frequencies --    175.9586               186.3603               210.4349
 Red. masses --      2.3475                 1.2279                 1.1293
 Frc consts  --      0.0428                 0.0251                 0.0295
 IR Inten    --      0.5015                 0.4049                 0.0245

                     10                     11                     12
                      A                      A                      A
 Frequencies --    236.0455               249.5558               285.5804
 Red. masses --      1.6724                 1.0371                 1.6142
 Frc consts  --      0.0549                 0.0381                 0.0776
 IR Inten    --      1.6561                 0.4946                 0.8070

                     13                     14                     15
                      A                      A                      A
 Frequencies --    332.0037               389.9723               420.0078
 Red. masses --      2.0581                 2.1449                 2.3001
 Frc consts  --      0.1337                 0.1922                 0.2391
 IR Inten    --      0.7431                 0.7216                 4.0504

                     16                     17                     18
                      A                      A                      A
 Frequencies --    429.3676               452.0430               483.0401
 Red. masses --      2.6173                 2.4397                 3.2251
 Frc consts  --      0.2843                 0.2937                 0.4434
 IR Inten    --      2.1564                 7.9382                 6.5852

                     19                     20                     21
                      A                      A                      A
 Frequencies --    539.0026               568.1020               620.7474
 Red. masses --      2.6264                 3.2161                 3.9509
 Frc consts  --      0.4496                 0.6116                 0.8970
 IR Inten    --      7.0527                 4.0050                 2.6644

                     22                     23                     24
                      A                      A                      A
 Frequencies --    728.1427               772.6641               830.0409
 Red. masses --      1.1012                 1.2734                 3.8211
 Frc consts  --      0.3440                 0.4479                 1.5511
 IR Inten    --      0.4618                 1.3114                 0.4057

                     25                     26                     27
                      A                      A                      A
 Frequencies --    872.2408               892.7091               926.1602
 Red. masses --      3.9510                 2.7475                 1.3619
 Frc consts  --      1.7710                 1.2900                 0.6883
 IR Inten    --      1.4468                 5.6271                36.7831

                     28                     29                     30
                      A                      A                      A
 Frequencies --    973.8288               988.5463               990.2085
 Red. masses --      1.7628                 1.9006                 2.3082
 Frc consts  --      0.9850                 1.0943                 1.3335
 IR Inten    --      5.8543                13.9209                20.1798

                     31                     32                     33
                      A                      A                      A
 Frequencies --   1019.3913              1038.1035              1049.3701
 Red. masses --      2.3464                 1.4992                 1.6834
 Frc consts  --      1.4366                 0.9519                 1.0922
 IR Inten    --      2.3245                11.8131                13.8434

                     34                     35                     36
                      A                      A                      A
 Frequencies --   1070.6040              1088.8514              1105.7735
 Red. masses --      1.5990                 1.6666                 1.7895
 Frc consts  --      1.0798                 1.1642                 1.2891
 IR Inten    --      1.0817                 0.3296                 4.0378

                     37                     38                     39
                      A                      A                      A
 Frequencies --   1127.4972              1192.5204              1204.5839
 Red. masses --      1.2336                 1.4013                 1.5692
 Frc consts  --      0.9239                 1.1741                 1.3416
 IR Inten    --      3.2610                 0.3631                 9.0616

                     40                     41                     42
                      A                      A                      A
 Frequencies --   1238.9032              1260.5860              1278.8815
 Red. masses --      2.8649                 1.8561                 1.8407
 Frc consts  --      2.5908                 1.7378                 1.7738
 IR Inten    --     10.1485                 6.4847                 6.5111

                     43                     44                     45
                      A                      A                      A
 Frequencies --   1305.8059              1317.7423              1345.2721
 Red. masses --      1.4845                 2.0280                 1.3906
 Frc consts  --      1.4914                 2.0748                 1.4827
 IR Inten    --     13.2154                 2.6181                 7.9484

                     46                     47                     48
                      A                      A                      A
 Frequencies --   1382.7992              1430.7102              1441.4408
 Red. masses --      1.4554                 1.3539                 1.2492
 Frc consts  --      1.6396                 1.6329                 1.5293
 IR Inten    --      5.5291                13.6762                 5.1444

                     49                     50                     51
                      A                      A                      A
 Frequencies --   1454.4984              1471.4148              1484.1549
 Red. masses --      1.1666                 1.1921                 1.1858
 Frc consts  --      1.4541                 1.5207                 1.5390
 IR Inten    --      0.7297                 0.2874                 0.2918

                     52                     53                     54
                      A                      A                      A
 Frequencies --   1500.7794              1504.4215              1506.7939
 Red. masses --      1.0713                 1.0492                 1.0664
 Frc consts  --      1.4216                 1.3991                 1.4266
 IR Inten    --      8.1727                 7.8116                 3.5676

                     55                     56                     57
                      A                      A                      A
 Frequencies --   1509.0361              1513.9416              1517.7159
 Red. masses --      1.0529                 1.0704                 1.0447
 Frc consts  --      1.4127                 1.4455                 1.4178
 IR Inten    --      7.0709                 0.5444                 3.5626

                     58                     59                     60
                      A                      A                      A
 Frequencies --   1522.6424              1525.3461              1529.8707
 Red. masses --      1.0683                 1.0541                 1.0851
 Frc consts  --      1.4593                 1.4450                 1.4964
 IR Inten    --      8.4725                 6.0067                 7.0430

                     61                     62                     63
                      A                      A                      A
 Frequencies --   1542.1660              1730.4210              1740.0522
 Red. masses --      1.0519                 8.1471                 5.0226
 Frc consts  --      1.4740                14.3733                 8.9599
 IR Inten    --      9.3106                53.0334                11.1065

                     64                     65                     66
                      A                      A                      A
 Frequencies --   2983.2793              2992.0860              3025.2284
 Red. masses --      1.0531                 1.0532                 1.0662
 Frc consts  --      5.5222                 5.5555                 5.7493
 IR Inten    --     45.2300               129.1785                19.3176

                     67                     68                     69
                      A                      A                      A
 Frequencies --   3033.9666              3039.7868              3067.8133
 Red. masses --      1.0417                 1.0394                 1.0698
 Frc consts  --      5.6497                 5.6586                 5.9322
 IR Inten    --     29.5499                16.9729                21.5660

                     70                     71                     72
                      A                      A                      A
 Frequencies --   3080.5733              3089.5982              3091.8597
 Red. masses --      1.0952                 1.0995                 1.0793
 Frc consts  --      6.1234                 6.1835                 6.0791
 IR Inten    --     30.3703                21.6626                18.1074

                     73                     74                     75
                      A                      A                      A
 Frequencies --   3097.0006              3119.0808              3127.8019
 Red. masses --      1.0796                 1.0907                 1.0995
 Frc consts  --      6.1010                 6.2519                 6.3377
 IR Inten    --     35.7169                 9.2535                25.4088

                     76                     77                     78
                      A                      A                      A
 Frequencies --   3132.2274              3138.0456              3143.5175
 Red. masses --      1.1043                 1.1042                 1.0983
 Frc consts  --      6.3835                 6.4062                 6.3947
 IR Inten    --     25.3511                33.7681                17.7650

                     79                     80                     81
                      A                      A                      A
 Frequencies --   3156.8583              3158.6438              3234.1527
 Red. masses --      1.0602                 1.0996                 1.1160
 Frc consts  --      6.2248                 6.4636                 6.8777
 IR Inten    --     11.5352                12.6361                21.4456

 - Thermochemistry -
 -------------------
 Temperature   298.150 Kelvin.  Pressure   1.00000 Atm.
 Atom     1 has atomic number  6 and mass  12.00000

 Molecular mass:   154.14700 amu.
 Principal axes and moments of inertia in atomic units:
                           1         2         3
     Eigenvalues --  1232.817072904.627253645.48316
           X            0.99979  -0.02063   0.00180
           Y            0.02063   0.99979  -0.00025
           Z           -0.00180   0.00028   1.00000
 This molecule is an asymmetric top.
 Rotational symmetry number  1.
 Warning -- assumption of classical behavior for rotation
           may cause significant error
 Rotational temperatures (Kelvin)      0.07026     0.02982     0.02376
 Rotational constants (GHZ):           1.46392     0.62133     0.49506
 Zero-point vibrational energy     686099.6 (Joules/Mol)
                                  163.98174 (Kcal/Mol)
 Warning -- explicit consideration of  21 degrees of freedom as
           vibrations may cause significant error
 Vibrational temperatures:     41.86    56.53    65.10   124.29   190.30
          (Kelvin)            227.67   253.17   268.13   302.77   339.62
                              359.06   410.89   477.68   561.08   604.30
                              617.76   650.39   694.99   775.50   817.37
                              893.12  1047.64  1111.69  1194.24  1254.96
                             1284.41  1332.54  1401.12  1422.30  1424.69
                             1466.68  1493.60  1509.81  1540.36  1566.61
                             1590.96  1622.22  1715.77  1733.13  1782.51
                             1813.70  1840.03  1878.76  1895.94  1935.55
                             1989.54  2058.47  2073.91  2092.70  2117.04
                             2135.37  2159.29  2164.53  2167.94  2171.17
                             2178.22  2183.65  2190.74  2194.63  2201.14
                             2218.83  2489.69  2503.55  4292.27  4304.94
                             4352.63  4365.20  4373.58  4413.90  4432.26
                             4445.24  4448.50  4455.89  4487.66  4500.21
                             4506.58  4514.95  4522.82  4542.01  4544.58
                             4653.22

 Zero-point correction=                           0.261322 (Hartree/Particle)
 Thermal correction to Energy=                    0.275184
 Thermal correction to Enthalpy=                  0.276128
 Thermal correction to Gibbs Free Energy=         0.219836
 Sum of electronic and zero-point Energies=           -463.021343
 Sum of electronic and thermal Energies=              -463.007481
 Sum of electronic and thermal Enthalpies=            -463.006537
 Sum of electronic and thermal Free Energies=         -463.062829

                     E (Thermal)             CV                S
                      KCal/Mol        Cal/Mol-Kelvin    Cal/Mol-Kelvin
 Total                  172.681             49.893            118.477
 Electronic               0.000              0.000              0.000
 Translational            0.889              2.981             41.008
 Rotational               0.889              2.981             30.946
 Vibrational            170.903             43.931             46.523
 Vibration     1          0.593              1.984              5.890
 Vibration     2          0.594              1.981              5.295
 Vibration     3          0.595              1.979              5.015
 Vibration     4          0.601              1.959              3.740
 Vibration     5          0.612              1.921              2.913
 Vibration     6          0.621              1.893              2.571
 Vibration     7          0.628              1.872              2.371
 Vibration     8          0.632              1.859              2.264
 Vibration     9          0.643              1.825              2.040
 Vibration    10          0.655              1.786              1.832
 Vibration    11          0.662              1.763              1.734
 Vibration    12          0.683              1.700              1.500
 Vibration    13          0.714              1.612              1.250
 Vibration    14          0.758              1.492              1.000
 Vibration    15          0.783              1.427              0.892
 Vibration    16          0.791              1.406              0.861
 Vibration    17          0.811              1.356              0.790
 Vibration    18          0.839              1.288              0.702
 Vibration    19          0.894              1.164              0.567
 Vibration    20          0.924              1.100              0.508
 Vibration    21          0.981              0.988              0.415

 Optimization completed.
    -- Stationary point found.

 1\1\GINC-NODE307\Freq\RB3LYP\6-31G(d)\C9H18N2\VSC10255\08-Dec-2020\0\\
 #N Geom=AllCheck Guess=TCheck SCRF=Check GenChk RB3LYP/6-31G(d) Freq\\
 CID_131859609_JID_1998_neutraal\\0,1\C,0.0828589814,-0.3678578694,0.53
 41119844\C,0.9399290166,-1.4903419566,0.0060397617\C,1.2697318992,-2.5
 445325675,0.7578546676\C,1.405777362,-1.3738189958,-1.4266993949\C,0.2
 615833078,-1.5903594189,-2.4469107429\C,0.7716145571,-1.4038823022,-3.
 8601128382\N,1.4074320919,-2.2759137985,-4.5498577976\N,1.5739049313,-
 3.5512759801,-3.8699921441\C,0.5535129679,-4.4604868263,-4.3935564364\

 Normal termination of Gaussian 16 at Tue Dec  8 22:03:35 2020.

 ----------------------------------------------------------------------
 # B3LYP/6-311++G(d,p) empiricaldispersion=gd3bj scf=xqc pop=npa geom=c
 heck
 ----------------------------------------------------------------------

 ---------------------------------------
 CID_131859609_JID_1998_Energie_neutraal
 ---------------------------------------
 Structure from the checkpoint file:  "JID_1998.chk"
 Charge =  0 Multiplicity = 1

 SCF Done:  E(RB3LYP) =  -463.413758080     A.U. after   14 cycles
 Normal termination of Gaussian 16 at Tue Dec  8 22:05:51 2020.

 ----------------------------------------------------------------------
 # B3LYP/6-311++G(d,p) empiricaldispersion=gd3bj scf=xqc pop=npa geom=c
 heck
 ----------------------------------------------------------------------

 -------------------------------------
 CID_131859609_JID_1998_Energie_kation
 -------------------------------------
 Structure from the checkpoint file:  "JID_1998.chk"
 Charge =  1 Multiplicity = 2

 SCF Done:  E(UB3LYP) =  -463.131585417     A.U. after   24 cycles
 Normal termination of Gaussian 16 at Tue Dec  8 22:10:50 2020.
 Gaussian 16:  ES64L-G16RevA.03 25-Dec-2016

 ------------------------------------
 CID_131859609_JID_1998_Energie_anion
 ------------------------------------
 Structure from the checkpoint file:  "JID_1998.chk"
 Charge = -1 Multiplicity = 2

                         Standard orientation:
 ---------------------------------------------------------------------
 Center     Atomic      Atomic             Coordinates (Angstroms)
 Number     Number       Type             X           Y           Z
 ---------------------------------------------------------------------
      1          6           0       -3.657701    0.411311   -0.256867
      2          6           0       -2.580995   -0.567066    0.139218
      3          6           0       -2.767712   -1.888818    0.080721
      4          6           0       -1.266567    0.018481    0.600461
      5          6           0       -0.453500    0.647937   -0.556954
      6          6           0        0.822070    1.269692   -0.029329
      7          7           0        1.904149    0.642763    0.247288
      8          7           0        1.845481   -0.781528   -0.043285
      9          6           0        2.518011   -0.992515   -1.325928
     10          6           0        2.580427   -1.447592    1.030124
     11          6           0        0.799858    2.748715    0.247452
     12          1           0       -4.574837   -0.100116   -0.563545
     13          1           0       -3.335763    1.051972   -1.088231
     14          1           0       -3.901967    1.082495    0.577902
     15          1           0       -1.986274   -2.586269    0.371464
     16          1           0       -3.705605   -2.320146   -0.260503
     17          1           0       -1.451354    0.785556    1.366605
     18          1           0       -0.645401   -0.758111    1.054328
     19          1           0       -0.233017   -0.137152   -1.282198
     20          1           0       -1.047759    1.419137   -1.059832
     21          1           0        3.544258   -0.586699   -1.334908
     22          1           0        2.556960   -2.067563   -1.528560
     23          1           0        1.947365   -0.510146   -2.125115
     24          1           0        3.622371   -1.095169    1.113781
     25          1           0        2.074264   -1.260558    1.981120
     26          1           0        2.577312   -2.525610    0.838982
     27          1           0        0.668263    3.312697   -0.685130
     28          1           0       -0.049017    3.004649    0.895160
     29          1           0        1.729445    3.061509    0.727265
 ---------------------------------------------------------------------

 SCF Done:  E(UB3LYP) =  -463.398113308     A.U. after   31 cycles

 The electronic state is 2-A.
 Alpha  occ. eigenvalues --  -14.23037 -14.21938 -10.11512 -10.08879 -10.08805
 Alpha  occ. eigenvalues --  -10.08088 -10.07117 -10.07080 -10.06601 -10.06044
 Alpha  occ. eigenvalues --  -10.05467  -0.88005  -0.75574  -0.71480  -0.65074
 Alpha  occ. eigenvalues --   -0.61961  -0.60895  -0.58482  -0.53986  -0.52242
 Alpha  occ. eigenvalues --   -0.42854  -0.42363  -0.38867  -0.37795  -0.36239
 Alpha  occ. eigenvalues --   -0.35402  -0.35074  -0.32402  -0.32202  -0.31285
 Alpha  occ. eigenvalues --   -0.30813  -0.29691  -0.28392  -0.27431  -0.27181
 Alpha  occ. eigenvalues --   -0.26856  -0.26700  -0.23962  -0.23534  -0.20953
 Alpha  occ. eigenvalues --   -0.18477  -0.14946  -0.11145   0.04569
 Alpha virt. eigenvalues --    0.06612   0.07335   0.07515   0.09097   0.09202
 Alpha virt. eigenvalues --    0.09340   0.09547   0.10048   0.10677   0.11421
 Alpha virt. eigenvalues --    0.11623   0.12113   0.12372   0.13183   0.13192

  Beta  occ. eigenvalues --  -14.23031 -14.21923 -10.11497 -10.08850 -10.08790
  Beta  occ. eigenvalues --  -10.08087 -10.07097 -10.07063 -10.06565 -10.05997
  Beta  occ. eigenvalues --  -10.05445  -0.87983  -0.75546  -0.71457  -0.65036
  Beta  occ. eigenvalues --   -0.61910  -0.60856  -0.58414  -0.53930  -0.52189
  Beta  occ. eigenvalues --   -0.42796  -0.42316  -0.38833  -0.37763  -0.36200
  Beta  occ. eigenvalues --   -0.35366  -0.35049  -0.32355  -0.32156  -0.31243
  Beta  occ. eigenvalues --   -0.30769  -0.29665  -0.28358  -0.27385  -0.27152
  Beta  occ. eigenvalues --   -0.26820  -0.26661  -0.23933  -0.23507  -0.20929
  Beta  occ. eigenvalues --   -0.18407  -0.14912  -0.11112
  Beta virt. eigenvalues --    0.06685   0.07517   0.07868   0.08054   0.09381
  Beta virt. eigenvalues --    0.09550   0.09782   0.09923   0.10551   0.11011
  Beta virt. eigenvalues --    0.11721   0.11892   0.12336   0.12934   0.13426

 Mulliken charges and spin densities:
               1          2
     1  C    2.146245  -2.822007
     2  C   -1.165530   2.261553
     3  C    0.041856  -0.877320
     4  C   -0.108379  -0.616607
     5  C   -0.049217   0.334816
     6  C   -0.491846   0.229311
     7  N   -0.069397   0.068220
     8  N   -0.120521   0.149526
     9  C    0.391843  -0.762918
    10  C    0.151984  -0.499862
    11  C    0.825801  -1.611161
    12  H   -0.291308   0.430258
    13  H   -0.387208   0.548762
    14  H   -0.361997   0.517121
    15  H    0.138167  -0.000761
    16  H   -0.224082   0.335387
    17  H   -0.021756   0.164599
    18  H   -0.036969   0.190510
    19  H   -0.201863   0.330169
    20  H   -0.046978   0.225703
    21  H   -0.065219   0.183028
    22  H   -0.160695   0.304145
    23  H   -0.186559   0.332590
    24  H    0.030254   0.087514
    25  H    0.014346   0.129791
    26  H   -0.118399   0.253594
    27  H   -0.446599   0.625022
    28  H   -0.267464   0.432722
    29  H    0.081491   0.056292
 Sum of Mulliken charges =  -1.00000   1.00000

 Dipole moment (field-independent basis, Debye):
    X=              3.2818    Y=             -2.6362    Z=              1.7594  Tot=              4.5624
 Quadrupole moment (field-independent basis, Debye-Ang):
   XX=           -139.8893   YY=           -119.7728   ZZ=           -103.0998
   XY=              5.5233   XZ=              0.2638   YZ=              0.9637

 Summary of Natural Population Analysis:

                                       Natural Population
                Natural  -----------------------------------------------
    Atom  No    Charge         Core      Valence    Rydberg      Total
 -----------------------------------------------------------------------
      C    1   -0.30056      0.99961     2.29457    0.00638     3.30056
      C    2    0.00193      0.99953     1.98631    0.01222     2.99807
      C    3   -0.19885      0.99948     2.19181    0.00756     3.19885
      C    4   -0.19760      0.99956     2.18856    0.00948     3.19760
      C    5   -0.21940      0.99956     2.21033    0.00950     3.21940
      C    6    0.15927      0.99961     1.82470    0.01642     2.84073
      N    7   -0.16811      0.99964     2.65603    0.01245     3.66811
      N    8   -0.20943      0.99974     2.69468    0.01500     3.70943
      C    9   -0.18059      0.99964     2.17178    0.00917     3.18059
      C   10   -0.17375      0.99964     2.16646    0.00765     3.17375
      C   11   -0.30426      0.99961     2.29860    0.00605     3.30426
      H   12    0.10203      0.00000     0.39669    0.00128     0.39797
      H   13    0.10550      0.00000     0.39269    0.00180     0.39450
      H   14    0.10451      0.00000     0.39375    0.00174     0.39549
      H   15    0.09346      0.00000     0.40531    0.00123     0.40654
      H   16    0.09144      0.00000     0.40757    0.00099     0.40856
      H   17    0.09867      0.00000     0.39967    0.00166     0.40133
      H   18    0.10584      0.00000     0.39188    0.00228     0.39416
      H   19    0.11208      0.00000     0.38585    0.00207     0.38792
      H   20    0.10418      0.00000     0.39384    0.00197     0.39582
      H   21    0.08453      0.00000     0.41382    0.00165     0.41547
      H   22    0.09607      0.00000     0.40266    0.00126     0.40393
      H   23    0.09698      0.00000     0.40177    0.00125     0.40302
      H   24    0.08317      0.00000     0.41475    0.00208     0.41683
      H   25    0.09660      0.00000     0.40227    0.00113     0.40340
      H   26    0.09336      0.00000     0.40538    0.00126     0.40664
      H   27    0.10895      0.00000     0.38921    0.00185     0.39105
      H   28    0.10622      0.00000     0.39230    0.00148     0.39378
      H   29    0.10776      0.00000     0.39107    0.00117     0.39224
 =======================================================================
   * Total *   -0.00000     10.99563    31.86433    0.14004    43.00000

 Normal termination of Gaussian 16 at Tue Dec  8 22:17:12 2020.
