 Gaussian 16, Revision A.03,

 -----------------------------------------------------------
 # opt freq B3LYP/6-31G(d) empiricaldispersion=gd3bj scf=xqc
 -----------------------------------------------------------

 -------------------------------
 CID_112757982_JID_3199_neutraal
 -------------------------------
 Symbolic Z-matrix:
 Charge =  0 Multiplicity = 1

 SCF Done:  E(RB3LYP) =  -1006.21658157     A.U. after   15 cycles
 SCF Done:  E(RB3LYP) =  -1006.22305735     A.U. after   13 cycles
 SCF Done:  E(RB3LYP) =  -1006.22340001     A.U. after   12 cycles
 SCF Done:  E(RB3LYP) =  -1006.22364774     A.U. after   12 cycles
 SCF Done:  E(RB3LYP) =  -1006.22389599     A.U. after   11 cycles
 SCF Done:  E(RB3LYP) =  -1006.22396684     A.U. after   11 cycles
 SCF Done:  E(RB3LYP) =  -1006.22402757     A.U. after   11 cycles
 SCF Done:  E(RB3LYP) =  -1006.22404863     A.U. after   11 cycles
 SCF Done:  E(RB3LYP) =  -1006.22405659     A.U. after   10 cycles
 SCF Done:  E(RB3LYP) =  -1006.22405912     A.U. after    9 cycles
 SCF Done:  E(RB3LYP) =  -1006.22405977     A.U. after    8 cycles
 SCF Done:  E(RB3LYP) =  -1006.22405999     A.U. after    8 cycles
 Optimization completed.
    -- Stationary point found.
 Normal termination of Gaussian 16 at Wed Dec  9 22:28:03 2020.

 --------------------------------------------------------------------
 #N Geom=AllCheck Guess=TCheck SCRF=Check GenChk RB3LYP/6-31G(d) Freq
 --------------------------------------------------------------------

 Structure from the checkpoint file:  "JID_3199.chk"
 -------------------------------
 CID_112757982_JID_3199_neutraal
 -------------------------------
 Charge =  0 Multiplicity = 1

 SCF Done:  E(RB3LYP) =  -1006.22405999     A.U. after    1 cycles

  Exact polarizability: 152.582 -13.805 105.540   6.012  -2.464  75.807
 Approx polarizability: 224.857 -33.123 159.739  15.534  -6.018 123.421

                      1                      2                      3
                      A                      A                      A
 Frequencies --     33.0856                51.4024                62.5856
 Red. masses --      5.6736                 5.6665                 4.6933
 Frc consts  --      0.0037                 0.0088                 0.0108
 IR Inten    --      0.8328                 1.7812                 0.3008

                      4                      5                      6
                      A                      A                      A
 Frequencies --     70.4406                91.6564               134.0493
 Red. masses --      4.4434                 5.3657                 6.0502
 Frc consts  --      0.0130                 0.0266                 0.0641
 IR Inten    --      1.7008                 2.8499                 1.2006

                      7                      8                      9
                      A                      A                      A
 Frequencies --    174.7057               218.8592               233.9966
 Red. masses --      5.6609                 1.2819                 5.6148
 Frc consts  --      0.1018                 0.0362                 0.1811
 IR Inten    --      2.2516                 1.0883                 2.5622

                     10                     11                     12
                      A                      A                      A
 Frequencies --    274.7926               320.8610               341.0365
 Red. masses --      3.3542                 2.6876                 4.3872
 Frc consts  --      0.1492                 0.1630                 0.3006
 IR Inten    --     11.5850                 7.2629                 5.1148

                     13                     14                     15
                      A                      A                      A
 Frequencies --    413.6816               434.7466               465.3353
 Red. masses --      4.5839                 2.0646                 1.5333
 Frc consts  --      0.4622                 0.2299                 0.1956
 IR Inten    --      6.0963                89.1686                47.3786

                     16                     17                     18
                      A                      A                      A
 Frequencies --    511.8878               529.1024               576.3575
 Red. masses --      7.1207                 2.4926                 2.8297
 Frc consts  --      1.0993                 0.4111                 0.5538
 IR Inten    --     11.3385                 7.6176                31.1875

                     19                     20                     21
                      A                      A                      A
 Frequencies --    609.8812               649.9490               677.8739
 Red. masses --      4.2012                 4.7815                 2.5143
 Frc consts  --      0.9207                 1.1901                 0.6807
 IR Inten    --     70.3714                13.2028                22.5364

                     22                     23                     24
                      A                      A                      A
 Frequencies --    711.3364               724.1379               757.0421
 Red. masses --      2.7206                 3.8113                 3.2490
 Frc consts  --      0.8111                 1.1775                 1.0971
 IR Inten    --     56.3015                12.0332                12.0948

                     25                     26                     27
                      A                      A                      A
 Frequencies --    799.8015               907.2903               919.5005
 Red. masses --      1.4026                 3.3696                 2.8261
 Frc consts  --      0.5286                 1.6343                 1.4078
 IR Inten    --     20.1383                10.9123                14.2463

                     28                     29                     30
                      A                      A                      A
 Frequencies --    975.4511              1008.8241              1061.4289
 Red. masses --      2.3666                 2.5622                 3.2162
 Frc consts  --      1.3267                 1.5364                 2.1349
 IR Inten    --      7.5001                19.0725                 7.7570

                     31                     32                     33
                      A                      A                      A
 Frequencies --   1102.5301              1118.4944              1135.9487
 Red. masses --      3.6428                 2.1206                 2.2799
 Frc consts  --      2.6089                 1.5631                 1.7334
 IR Inten    --     11.7995                65.4269                 0.4897

                     34                     35                     36
                      A                      A                      A
 Frequencies --   1164.4744              1174.4341              1218.6223
 Red. masses --      1.6924                 2.1957                 1.5696
 Frc consts  --      1.3521                 1.7844                 1.3733
 IR Inten    --    188.2590                39.6574               124.6352

                     37                     38                     39
                      A                      A                      A
 Frequencies --   1251.7730              1274.2672              1300.9424
 Red. masses --      2.3119                 1.9258                 1.3905
 Frc consts  --      2.1344                 1.8424                 1.3865
 IR Inten    --     15.9312               114.4075                 7.9447

                     40                     41                     42
                      A                      A                      A
 Frequencies --   1344.3452              1366.8442              1395.6172
 Red. masses --      1.5786                 1.6590                 1.5523
 Frc consts  --      1.6809                 1.8262                 1.7814
 IR Inten    --    102.2249                 5.5156                83.1460

                     43                     44                     45
                      A                      A                      A
 Frequencies --   1407.0126              1428.1101              1435.7454
 Red. masses --      1.6888                 2.1033                 1.7609
 Frc consts  --      1.9698                 2.5274                 2.1387
 IR Inten    --    102.3379               158.4229                97.0344

                     46                     47                     48
                      A                      A                      A
 Frequencies --   1446.0582              1498.3490              1503.9514
 Red. masses --      1.7519                 1.0957                 1.1654
 Frc consts  --      2.1585                 1.4493                 1.5531
 IR Inten    --     31.0718                 7.6242                63.2541

                     49                     50                     51
                      A                      A                      A
 Frequencies --   1522.0985              1530.4184              1533.9744
 Red. masses --      1.1639                 1.8145                 1.1390
 Frc consts  --      1.5887                 2.5040                 1.5791
 IR Inten    --    119.3490               275.6577                40.2223

                     52                     53                     54
                      A                      A                      A
 Frequencies --   1839.8246              1849.4320              3061.7387
 Red. masses --     11.8437                10.1668                 1.0831
 Frc consts  --     23.6207                20.4886                 5.9823
 IR Inten    --    265.8746               285.3652                 2.2952

                     55                     56                     57
                      A                      A                      A
 Frequencies --   3063.3418              3069.1370              3103.3157
 Red. masses --      1.0348                 1.0667                 1.0605
 Frc consts  --      5.7211                 5.9201                 6.0173
 IR Inten    --     15.6164                 5.5997                 8.9003

                     58                     59                     60
                      A                      A                      A
 Frequencies --   3134.2003              3140.4077              3143.5903
 Red. masses --      1.1027                 1.1026                 1.0978
 Frc consts  --      6.3820                 6.4067                 6.3917
 IR Inten    --     19.6491                13.0627                 4.0985

                     61                     62                     63
                      A                      A                      A
 Frequencies --   3162.2625              3649.5844              3679.7467
 Red. masses --      1.1077                 1.0793                 1.0638
 Frc consts  --      6.5263                 8.4702                 8.4871
 IR Inten    --      6.7478                61.0179                60.5345

 - Thermochemistry -
 -------------------
 Temperature   298.150 Kelvin.  Pressure   1.00000 Atm.
 Atom     1 has atomic number  6 and mass  12.00000

 Molecular mass:   202.04121 amu.
 Principal axes and moments of inertia in atomic units:
                           1         2         3
     Eigenvalues --  1379.287794394.126745202.29426
           X            0.99956   0.02952  -0.00155
           Y           -0.02949   0.99944   0.01611
           Z            0.00202  -0.01606   0.99987
 This molecule is an asymmetric top.
 Rotational symmetry number  1.
 Warning -- assumption of classical behavior for rotation
           may cause significant error
 Rotational temperatures (Kelvin)      0.06280     0.01971     0.01665
 Rotational constants (GHZ):           1.30846     0.41072     0.34691
 Zero-point vibrational energy     471279.0 (Joules/Mol)
                                  112.63838 (Kcal/Mol)
 Warning -- explicit consideration of  19 degrees of freedom as
           vibrations may cause significant error
 Vibrational temperatures:     47.60    73.96    90.05   101.35   131.87
          (Kelvin)            192.87   251.36   314.89   336.67   395.37
                              461.65   490.68   595.20   625.50   669.51
                              736.49   761.26   829.25   877.48   935.13
                              975.31  1023.45  1041.87  1089.21  1150.74
                             1305.39  1322.96  1403.46  1451.47  1527.16
                             1586.29  1609.26  1634.38  1675.42  1689.75
                             1753.33  1801.02  1833.39  1871.77  1934.21
                             1966.58  2007.98  2024.38  2054.73  2065.72
                             2080.56  2155.79  2163.85  2189.96  2201.93
                             2207.05  2647.10  2660.92  4405.16  4407.47
                             4415.80  4464.98  4509.42  4518.35  4522.93
                             4549.79  5250.94  5294.33

 Zero-point correction=                           0.179501 (Hartree/Particle)
 Thermal correction to Energy=                    0.192575
 Thermal correction to Enthalpy=                  0.193519
 Thermal correction to Gibbs Free Energy=         0.138008
 Sum of electronic and zero-point Energies=          -1006.044559
 Sum of electronic and thermal Energies=             -1006.031485
 Sum of electronic and thermal Enthalpies=           -1006.030541
 Sum of electronic and thermal Free Energies=        -1006.086052

                     E (Thermal)             CV                S
                      KCal/Mol        Cal/Mol-Kelvin    Cal/Mol-Kelvin
 Total                  120.843             46.694            116.834
 Electronic               0.000              0.000              0.000
 Translational            0.889              2.981             41.814
 Rotational               0.889              2.981             31.822
 Vibrational            119.065             40.732             43.197
 Vibration     1          0.594              1.983              5.635
 Vibration     2          0.596              1.977              4.763
 Vibration     3          0.597              1.972              4.374
 Vibration     4          0.598              1.968              4.141
 Vibration     5          0.602              1.955              3.624
 Vibration     6          0.613              1.919              2.887
 Vibration     7          0.627              1.874              2.384
 Vibration     8          0.647              1.812              1.969
 Vibration     9          0.654              1.789              1.848
 Vibration    10          0.677              1.720              1.566
 Vibration    11          0.706              1.634              1.306
 Vibration    12          0.721              1.593              1.207
 Vibration    13          0.777              1.441              0.914
 Vibration    14          0.795              1.394              0.843
 Vibration    15          0.823              1.327              0.751
 Vibration    16          0.867              1.224              0.629
 Vibration    17          0.884              1.186              0.589
 Vibration    18          0.933              1.082              0.492
 Vibration    19          0.969              1.011              0.433

                           ! Non-Optimized Parameters !
 Normal termination of Gaussian 16 at Wed Dec  9 22:34:01 2020.

 ----------------------------------------------------------------------
 # B3LYP/6-311++G(d,p) empiricaldispersion=gd3bj scf=xqc pop=npa geom=c
 heck
 ----------------------------------------------------------------------

 ---------------------------------------
 CID_112757982_JID_3199_Energie_neutraal
 ---------------------------------------
 Structure from the checkpoint file:  "JID_3199.chk"
 Charge =  0 Multiplicity = 1

 SCF Done:  E(RB3LYP) =  -1006.43647278     A.U. after   15 cycles
 Normal termination of Gaussian 16 at Wed Dec  9 22:36:39 2020.

 ----------------------------------------------------------------------
 # B3LYP/6-311++G(d,p) empiricaldispersion=gd3bj scf=xqc pop=npa geom=c
 heck
 ----------------------------------------------------------------------

 -------------------------------------
 CID_112757982_JID_3199_Energie_kation
 -------------------------------------
 Structure from the checkpoint file:  "JID_3199.chk"
 Charge =  1 Multiplicity = 2

 SCF Done:  E(UB3LYP) =  -1006.11907690     A.U. after   31 cycles
 Normal termination of Gaussian 16 at Wed Dec  9 22:44:25 2020.
 Gaussian 16:  ES64L-G16RevA.03 25-Dec-2016

 ----------------------------------------------------------------------
 # B3LYP/6-311++G(d,p) empiricaldispersion=gd3bj scf=xqc pop=npa geom=c
 heck
 ----------------------------------------------------------------------

 ------------------------------------
 CID_112757982_JID_3199_Energie_anion
 ------------------------------------
 Structure from the checkpoint file:  "JID_3199.chk"
 Charge = -1 Multiplicity = 2

                         Standard orientation:
 ---------------------------------------------------------------------
 Center     Atomic      Atomic             Coordinates (Angstroms)
 Number     Number       Type             X           Y           Z
 ---------------------------------------------------------------------
      1          6           0        2.321739    2.258944    0.863957
      2          6           0        2.106450    1.598526   -0.495659
      3          7           0        1.200202    0.455063   -0.408326
      4          6           0       -0.174742    0.577275   -0.532956
      5          8           0       -0.792170    1.602093   -0.734495
      6          6           0       -0.753694   -0.823455   -0.322667
      7          7           0        0.434192   -1.561672    0.065189
      8          6           0        1.581127   -0.839815   -0.062524
      9         16           0        3.128156   -1.391592    0.154085
     10          6           0       -1.867013   -0.810817    0.731268
     11          6           0       -3.131361   -0.218432    0.139037
     12          8           0       -3.525905   -0.435468   -0.984615
     13          8           0       -3.793287    0.550000    1.026818
     14          1           0        1.372125    2.619632    1.271518
     15          1           0        2.998190    3.113724    0.760167
     16          1           0        2.767889    1.549873    1.567362
     17          1           0        1.649795    2.294310   -1.203195
     18          1           0        3.046739    1.228476   -0.909039
     19          1           0       -1.171560   -1.184446   -1.271379
     20          1           0        0.487674   -2.568610    0.115752
     21          1           0       -2.095790   -1.841659    1.028851
     22          1           0       -1.561697   -0.264645    1.626312
     23          1           0       -4.588749    0.878707    0.565847
 ---------------------------------------------------------------------

 SCF Done:  E(UB3LYP) =  -1006.43980551     A.U. after   27 cycles

 The electronic state is 2-A.
 Alpha  occ. eigenvalues --  -88.66245 -19.06714 -19.00820 -18.97027 -14.24139
 Alpha  occ. eigenvalues --  -14.22303 -10.20209 -10.13998 -10.13456 -10.11139
 Alpha  occ. eigenvalues --  -10.10145 -10.08228 -10.06205  -7.75020  -5.71408
 Alpha  occ. eigenvalues --   -5.70857  -5.70598  -1.00692  -0.93452  -0.91721
 Alpha  occ. eigenvalues --   -0.88097  -0.79487  -0.69005  -0.65916  -0.62871
 Alpha  occ. eigenvalues --   -0.56609  -0.54608  -0.49880  -0.48633  -0.45221
 Alpha  occ. eigenvalues --   -0.41473  -0.39255  -0.38566  -0.37315  -0.35721
 Alpha  occ. eigenvalues --   -0.35309  -0.33380  -0.32464  -0.31079  -0.30443
 Alpha  occ. eigenvalues --   -0.29112  -0.28069  -0.27258  -0.26018  -0.25176
 Alpha  occ. eigenvalues --   -0.24785  -0.24452  -0.22134  -0.18103  -0.14810
 Alpha  occ. eigenvalues --   -0.14363  -0.10587  -0.09304   0.04363
 Alpha virt. eigenvalues --    0.06890   0.07932   0.08268   0.10000   0.10534
 Alpha virt. eigenvalues --    0.11065   0.11487   0.11668   0.12423   0.13726
 Alpha virt. eigenvalues --    0.14160   0.14824   0.15137   0.15791   0.16093

  Beta  occ. eigenvalues --  -88.66215 -19.06664 -19.00801 -18.96735 -14.24268
  Beta  occ. eigenvalues --  -14.22254 -10.20194 -10.13712 -10.12937 -10.11171
  Beta  occ. eigenvalues --  -10.10142 -10.08137 -10.06209  -7.74993  -5.71411
  Beta  occ. eigenvalues --   -5.70742  -5.70581  -1.00614  -0.93008  -0.91660
  Beta  occ. eigenvalues --   -0.87711  -0.79464  -0.68754  -0.65846  -0.62433
  Beta  occ. eigenvalues --   -0.56458  -0.54532  -0.49624  -0.48376  -0.45087
  Beta  occ. eigenvalues --   -0.41294  -0.39055  -0.38451  -0.37174  -0.35512
  Beta  occ. eigenvalues --   -0.35163  -0.33146  -0.32295  -0.30909  -0.30229
  Beta  occ. eigenvalues --   -0.29011  -0.28008  -0.27088  -0.25420  -0.24625
  Beta  occ. eigenvalues --   -0.24245  -0.23405  -0.22032  -0.18043  -0.14544
  Beta  occ. eigenvalues --   -0.14007  -0.09854  -0.09228
  Beta virt. eigenvalues --    0.07363   0.08242   0.08581   0.09722   0.10055
  Beta virt. eigenvalues --    0.10900   0.11369   0.11512   0.11893   0.12502
  Beta virt. eigenvalues --    0.13813   0.14583   0.15056   0.15669   0.15810

 Mulliken charges and spin densities:
               1          2
     1  C   -0.337708  -0.030842
     2  C   -0.220921  -0.013670
     3  N    0.255614  -0.052716
     4  C   -0.150547  -0.059542
     5  O   -0.357024   0.102598
     6  C   -0.643437   0.924156
     7  N   -0.074833  -0.016763
     8  C    0.202263   0.138427
     9  S   -0.920122   0.105056
    10  C    1.360146  -1.604052
    11  C   -0.139945  -0.012527
    12  O   -0.276218   0.006881
    13  O   -0.154957   0.042630
    14  H    0.164183  -0.001488
    15  H    0.098262   0.012500
    16  H    0.114244   0.031979
    17  H    0.148676   0.000337
    18  H    0.120261  -0.001683
    19  H    0.088705   0.188449
    20  H    0.261448   0.023094
    21  H   -0.421662   0.600580
    22  H    0.089303   0.132584
    23  H   -0.205731   0.484012
 Sum of Mulliken charges =  -1.00000   1.00000

 Dipole moment (field-independent basis, Debye):
    X=              1.2455    Y=              1.5475    Z=             -0.1522  Tot=              1.9922
 Quadrupole moment (field-independent basis, Debye-Ang):
   XX=           -148.5082   YY=           -104.8175   ZZ=           -101.9270
   XY=             13.3822   XZ=             -3.5431   YZ=              2.5131

 Summary of Natural Population Analysis:

                                       Natural Population
                Natural  -----------------------------------------------
    Atom  No    Charge         Core      Valence    Rydberg      Total
 -----------------------------------------------------------------------
      C    1   -0.29243      0.99966     2.28860    0.00417     3.29243
      C    2   -0.08641      0.99964     2.07764    0.00913     3.08641
      N    3   -0.27412      0.99958     2.76319    0.01136     3.77412
      C    4    0.38640      0.99964     1.58908    0.02488     2.61360
      O    5   -0.28450      0.99987     3.27936    0.00527     4.28450
      C    6   -0.04837      0.99956     2.03606    0.01274     3.04837
      N    7   -0.31040      0.99964     2.79911    0.01165     3.81040
      C    8    0.22679      0.99964     1.75320    0.02037     2.77321
      S    9   -0.14204      4.99957     3.12790    0.01457     8.14204
      C   10   -0.23114      0.99956     2.22143    0.01015     3.23114
      C   11    0.41289      0.99972     1.56100    0.02638     2.58711
      O   12   -0.30903      0.99987     3.30301    0.00615     4.30903
      O   13   -0.34078      0.99987     3.33438    0.00652     4.34078
      H   14    0.10174      0.00000     0.39717    0.00109     0.39826
      H   15    0.09301      0.00000     0.40594    0.00105     0.40699
      H   16    0.10650      0.00000     0.39225    0.00125     0.39350
      H   17    0.10214      0.00000     0.39672    0.00114     0.39786
      H   18    0.10745      0.00000     0.39141    0.00114     0.39255
      H   19    0.11582      0.00000     0.38281    0.00137     0.38418
      H   20    0.19838      0.00000     0.29968    0.00194     0.30162
      H   21    0.11452      0.00000     0.38396    0.00152     0.38548
      H   22    0.11323      0.00000     0.38533    0.00144     0.38677
      H   23    0.24035      0.00000     0.25217    0.00748     0.25965
 =======================================================================
   * Total *    0.00000     16.99583    35.82138    0.18278    53.00000

 Normal termination of Gaussian 16 at Wed Dec  9 22:51:14 2020.
