 Gaussian 16, Revision A.03,

 -----------------------------------------------------------
 # opt freq B3LYP/6-31G(d) empiricaldispersion=gd3bj scf=xqc
 -----------------------------------------------------------

 -------------------------------
 CID_131122687_JID_6019_neutraal
 -------------------------------
 Symbolic Z-matrix:
 Charge =  0 Multiplicity = 1

 SCF Done:  E(RB3LYP) =  -778.833410990     A.U. after   16 cycles
 SCF Done:  E(RB3LYP) =  -778.843144179     A.U. after   13 cycles
 SCF Done:  E(RB3LYP) =  -778.843923714     A.U. after   13 cycles
 SCF Done:  E(RB3LYP) =  -778.844121681     A.U. after   12 cycles
 SCF Done:  E(RB3LYP) =  -778.844461427     A.U. after   11 cycles
 SCF Done:  E(RB3LYP) =  -778.844542106     A.U. after   11 cycles
 SCF Done:  E(RB3LYP) =  -778.844557764     A.U. after   10 cycles
 SCF Done:  E(RB3LYP) =  -778.844566975     A.U. after   10 cycles
 SCF Done:  E(RB3LYP) =  -778.844588707     A.U. after   11 cycles
 SCF Done:  E(RB3LYP) =  -778.844599686     A.U. after   10 cycles
 SCF Done:  E(RB3LYP) =  -778.844604531     A.U. after   10 cycles
 SCF Done:  E(RB3LYP) =  -778.844605742     A.U. after    9 cycles
 SCF Done:  E(RB3LYP) =  -778.844605882     A.U. after    8 cycles
 SCF Done:  E(RB3LYP) =  -778.844605958     A.U. after    7 cycles
 SCF Done:  E(RB3LYP) =  -778.844605982     A.U. after    7 cycles
 Optimization completed.
    -- Stationary point found.
 Normal termination of Gaussian 16 at Thu Dec 10 21:09:50 2020.

 --------------------------------------------------------------------
 #N Geom=AllCheck Guess=TCheck SCRF=Check GenChk RB3LYP/6-31G(d) Freq
 --------------------------------------------------------------------

 Structure from the checkpoint file:  "JID_6019.chk"
 -------------------------------
 CID_131122687_JID_6019_neutraal
 -------------------------------
 Charge =  0 Multiplicity = 1

 SCF Done:  E(RB3LYP) =  -778.844605982     A.U. after    1 cycles

  Exact polarizability: 187.045  -1.495 124.100  -5.063  -1.200  86.826
 Approx polarizability: 243.786   3.543 199.049 -16.915  -8.067 138.007

                      1                      2                      3
                      A                      A                      A
 Frequencies --     25.2504                44.2256                55.7512
 Red. masses --      6.0665                 4.2658                 3.4468
 Frc consts  --      0.0023                 0.0049                 0.0063
 IR Inten    --      2.5823                 2.7402                 3.7651

                      4                      5                      6
                      A                      A                      A
 Frequencies --     87.6278               125.3905               146.4819
 Red. masses --      3.1542                 6.8789                 6.7753
 Frc consts  --      0.0143                 0.0637                 0.0857
 IR Inten    --      3.1798                 4.2940                 3.1175

                      7                      8                      9
                      A                      A                      A
 Frequencies --    166.5185               213.8388               233.6203
 Red. masses --      2.5976                 2.7033                 2.6394
 Frc consts  --      0.0424                 0.0728                 0.0849
 IR Inten    --      0.1749                 2.1923                 2.2345

                     10                     11                     12
                      A                      A                      A
 Frequencies --    257.0451               309.7200               384.3755
 Red. masses --      4.2897                 3.8321                 2.2026
 Frc consts  --      0.1670                 0.2166                 0.1917
 IR Inten    --      0.7465                 1.4898                 1.0656

                     13                     14                     15
                      A                      A                      A
 Frequencies --    398.7414               424.5485               462.2185
 Red. masses --      2.6581                 5.8494                 4.3393
 Frc consts  --      0.2490                 0.6212                 0.5462
 IR Inten    --      2.8517                 2.4892                 4.3212

                     16                     17                     18
                      A                      A                      A
 Frequencies --    492.9078               528.6980               546.6479
 Red. masses --      3.9770                 3.3437                 3.8380
 Frc consts  --      0.5693                 0.5507                 0.6757
 IR Inten    --     10.5726                 8.0962                 3.1520

                     19                     20                     21
                      A                      A                      A
 Frequencies --    591.2829               637.8354               653.3296
 Red. masses --      5.8064                 4.5043                 2.2670
 Frc consts  --      1.1960                 1.0797                 0.5701
 IR Inten    --      3.5343                 0.8292                 2.5845

                     22                     23                     24
                      A                      A                      A
 Frequencies --    669.0866               721.0999               788.9254
 Red. masses --      3.5165                 3.9190                 4.1846
 Frc consts  --      0.9275                 1.2006                 1.5345
 IR Inten    --      1.0201                 9.5121                 0.8663

                     25                     26                     27
                      A                      A                      A
 Frequencies --    807.1695               838.5956               872.1402
 Red. masses --      5.4352                 3.8071                 1.8515
 Frc consts  --      2.0864                 1.5774                 0.8297
 IR Inten    --      5.8150                 9.9218                 8.3351

                     28                     29                     30
                      A                      A                      A
 Frequencies --    913.3132               921.4878               944.8021
 Red. masses --      2.3852                 1.9056                 5.4535
 Frc consts  --      1.1722                 0.9534                 2.8682
 IR Inten    --     16.6013                 7.0653                16.7138

                     31                     32                     33
                      A                      A                      A
 Frequencies --    960.0636               961.1106               997.3997
 Red. masses --      2.3340                 2.9859                 1.8011
 Frc consts  --      1.2675                 1.6251                 1.0557
 IR Inten    --     13.3174                15.4740                 5.8940

                     34                     35                     36
                      A                      A                      A
 Frequencies --   1003.0375              1024.4980              1028.0540
 Red. masses --      2.6487                 1.6390                 2.0407
 Frc consts  --      1.5701                 1.0136                 1.2707
 IR Inten    --     23.7372                 4.6187                31.3493

                     37                     38                     39
                      A                      A                      A
 Frequencies --   1048.4423              1081.1092              1130.7418
 Red. masses --      4.7508                 5.6193                 5.4462
 Frc consts  --      3.0769                 3.8696                 4.1027
 IR Inten    --     48.1868                29.5157                86.9521

                     40                     41                     42
                      A                      A                      A
 Frequencies --   1134.5147              1157.0784              1172.9708
 Red. masses --      2.3968                 1.9271                 2.2739
 Frc consts  --      1.8176                 1.5201                 1.8433
 IR Inten    --     80.3604                67.5532               125.0059

                     43                     44                     45
                      A                      A                      A
 Frequencies --   1178.2637              1196.3679              1219.0381
 Red. masses --      2.5894                 1.3567                 2.5218
 Frc consts  --      2.1181                 1.1441                 2.2080
 IR Inten    --     58.1462                32.8184                84.1721

                     46                     47                     48
                      A                      A                      A
 Frequencies --   1223.5870              1235.4031              1250.6013
 Red. masses --      1.4154                 1.2334                 1.3318
 Frc consts  --      1.2485                 1.1091                 1.2272
 IR Inten    --      7.6231                43.3626                 3.7096

                     49                     50                     51
                      A                      A                      A
 Frequencies --   1262.0064              1285.1410              1295.5780
 Red. masses --      1.2470                 1.6865                 2.9956
 Frc consts  --      1.1701                 1.6411                 2.9625
 IR Inten    --     27.3351                85.4456                13.6466

                     52                     53                     54
                      A                      A                      A
 Frequencies --   1306.6484              1333.8793              1376.3574
 Red. masses --      1.7694                 1.5216                 1.5148
 Frc consts  --      1.7799                 1.5951                 1.6907
 IR Inten    --     52.9673                 3.5696               120.4190

                     55                     56                     57
                      A                      A                      A
 Frequencies --   1391.2476              1400.6668              1402.3929
 Red. masses --      1.4516                 1.8013                 1.3221
 Frc consts  --      1.6554                 2.0822                 1.5319
 IR Inten    --     30.6915                15.8555                12.8560

                     58                     59                     60
                      A                      A                      A
 Frequencies --   1443.7221              1450.9403              1505.5590
 Red. masses --      1.4277                 1.1083                 1.1306
 Frc consts  --      1.7533                 1.3747                 1.5099
 IR Inten    --    104.1672                56.4699                74.5103

                     61                     62                     63
                      A                      A                      A
 Frequencies --   1518.8418              1526.4627              1539.7483
 Red. masses --      1.7677                 1.8250                 1.0962
 Frc consts  --      2.4026                 2.5055                 1.5312
 IR Inten    --    246.2751                83.1081                 7.3929

                     64                     65                     66
                      A                      A                      A
 Frequencies --   1539.8640              1550.2200              1568.5600
 Red. masses --      1.2807                 1.1053                 3.9341
 Frc consts  --      1.7892                 1.5650                 5.7030
 IR Inten    --    107.0439                 1.7297               867.2972

                     67                     68                     69
                      A                      A                      A
 Frequencies --   1641.2479              1805.2349              3025.1716
 Red. masses --      7.7209                12.4583                 1.0720
 Frc consts  --     12.2537                23.9207                 5.7801
 IR Inten    --    269.0537               268.9918                46.2781

                     70                     71                     72
                      A                      A                      A
 Frequencies --   3034.9070              3046.6908              3051.6443
 Red. masses --      1.0699                 1.0663                 1.0663
 Frc consts  --      5.8058                 5.8314                 5.8503
 IR Inten    --      0.4713                61.7368                21.5761

                     73                     74                     75
                      A                      A                      A
 Frequencies --   3085.6169              3089.7280              3115.9126
 Red. masses --      1.0641                 1.0641                 1.0970
 Frc consts  --      5.9689                 5.9849                 6.2753
 IR Inten    --      5.3305                20.3907                14.7170

                     76                     77                     78
                      A                      A                      A
 Frequencies --   3124.9486              3129.1489              3143.2598
 Red. masses --      1.0927                 1.0986                 1.0977
 Frc consts  --      6.2868                 6.3379                 6.3898
 IR Inten    --      4.9916                34.1370                27.0259

                     79                     80                     81
                      A                      A                      A
 Frequencies --   3148.6312              3154.3013              3155.2577
 Red. masses --      1.1052                 1.1022                 1.0901
 Frc consts  --      6.4556                 6.4612                 6.3941
 IR Inten    --     16.6704                 6.8009                50.6483

 - Thermochemistry -
 -------------------
 Temperature   298.150 Kelvin.  Pressure   1.00000 Atm.
 Atom     1 has atomic number  6 and mass  12.00000

 Molecular mass:   223.09569 amu.
 Principal axes and moments of inertia in atomic units:
                           1         2         3
     Eigenvalues --  1140.857057222.201627690.14007
           X            0.99998  -0.00086   0.00642
           Y            0.00065   0.99947   0.03265
           Z           -0.00644  -0.03264   0.99945
 This molecule is an asymmetric top.
 Rotational symmetry number  1.
 Warning -- assumption of classical behavior for rotation
           may cause significant error
 Rotational temperatures (Kelvin)      0.07592     0.01199     0.01126
 Rotational constants (GHZ):           1.58192     0.24989     0.23468
 Zero-point vibrational energy     620350.4 (Joules/Mol)
                                  148.26731 (Kcal/Mol)
 Warning -- explicit consideration of  19 degrees of freedom as
           vibrations may cause significant error
 Vibrational temperatures:     36.33    63.63    80.21   126.08   180.41
          (Kelvin)            210.75   239.58   307.67   336.13   369.83
                              445.62   553.03   573.70   610.83   665.03
                              709.18   760.68   786.50   850.72   917.70
                              940.00   962.67  1037.50  1135.09  1161.34
                             1206.55  1254.82  1314.05  1325.82  1359.36
                             1381.32  1382.82  1435.04  1443.15  1474.02
                             1479.14  1508.47  1555.48  1626.89  1632.31
                             1664.78  1687.64  1695.26  1721.31  1753.92
                             1760.47  1777.47  1799.34  1815.75  1849.03
                             1864.05  1879.98  1919.15  1980.27  2001.69
                             2015.25  2017.73  2077.19  2087.58  2166.16
                             2185.27  2196.24  2215.35  2215.52  2230.42
                             2256.81  2361.39  2597.33  4352.55  4366.55
                             4383.51  4390.64  4439.51  4445.43  4483.10
                             4496.10  4502.15  4522.45  4530.18  4538.34
                             4539.71

 Zero-point correction=                           0.236279 (Hartree/Particle)
 Thermal correction to Energy=                    0.249808
 Thermal correction to Enthalpy=                  0.250753
 Thermal correction to Gibbs Free Energy=         0.194124
 Sum of electronic and zero-point Energies=           -778.608327
 Sum of electronic and thermal Energies=              -778.594798
 Sum of electronic and thermal Enthalpies=            -778.593853
 Sum of electronic and thermal Free Energies=         -778.650482

                     E (Thermal)             CV                S
                      KCal/Mol        Cal/Mol-Kelvin    Cal/Mol-Kelvin
 Total                  156.757             51.306            119.185
 Electronic               0.000              0.000              0.000
 Translational            0.889              2.981             42.110
 Rotational               0.889              2.981             32.516
 Vibrational            154.980             45.344             44.559
 Vibration     1          0.593              1.985              6.171
 Vibration     2          0.595              1.980              5.060
 Vibration     3          0.596              1.975              4.602
 Vibration     4          0.601              1.958              3.712
 Vibration     5          0.610              1.928              3.016
 Vibration     6          0.617              1.906              2.717
 Vibration     7          0.624              1.884              2.474
 Vibration     8          0.644              1.820              2.011
 Vibration     9          0.654              1.789              1.851
 Vibration    10          0.667              1.751              1.682
 Vibration    11          0.699              1.655              1.364
 Vibration    12          0.753              1.504              1.022
 Vibration    13          0.765              1.473              0.967
 Vibration    14          0.787              1.417              0.877
 Vibration    15          0.820              1.334              0.760
 Vibration    16          0.849              1.266              0.676
 Vibration    17          0.884              1.186              0.590
 Vibration    18          0.902              1.147              0.551
 Vibration    19          0.949              1.050              0.465

                           ! Non-Optimized Parameters !
 Normal termination of Gaussian 16 at Thu Dec 10 21:18:53 2020.

 ----------------------------------------------------------------------
 # B3LYP/6-311++G(d,p) empiricaldispersion=gd3bj scf=xqc pop=npa geom=c
 heck
 ----------------------------------------------------------------------

 ---------------------------------------
 CID_131122687_JID_6019_Energie_neutraal
 ---------------------------------------
 Structure from the checkpoint file:  "JID_6019.chk"
 Charge =  0 Multiplicity = 1

 SCF Done:  E(RB3LYP) =  -779.061301981     A.U. after   15 cycles
 Normal termination of Gaussian 16 at Thu Dec 10 21:22:19 2020.

 ----------------------------------------------------------------------
 # B3LYP/6-311++G(d,p) empiricaldispersion=gd3bj scf=xqc pop=npa geom=c
 heck
 ----------------------------------------------------------------------

 -------------------------------------
 CID_131122687_JID_6019_Energie_kation
 -------------------------------------
 Structure from the checkpoint file:  "JID_6019.chk"
 Charge =  1 Multiplicity = 2

 SCF Done:  E(UB3LYP) =  -778.750131656     A.U. after   32 cycles
 Normal termination of Gaussian 16 at Thu Dec 10 21:33:04 2020.
 Gaussian 16:  ES64L-G16RevA.03 25-Dec-2016

 ----------------------------------------------------------------------
 # B3LYP/6-311++G(d,p) empiricaldispersion=gd3bj scf=xqc pop=npa geom=c
 heck
 ----------------------------------------------------------------------

 ------------------------------------
 CID_131122687_JID_6019_Energie_anion
 ------------------------------------
 Structure from the checkpoint file:  "JID_6019.chk"
 Charge = -1 Multiplicity = 2

                         Standard orientation:
 ---------------------------------------------------------------------
 Center     Atomic      Atomic             Coordinates (Angstroms)
 Number     Number       Type             X           Y           Z
 ---------------------------------------------------------------------
      1          6           0        1.810832   -1.365415   -0.880406
      2          6           0        0.359993   -1.556946   -0.434513
      3          7           0       -0.146616   -0.177108   -0.345564
      4          6           0        0.927707    0.819505   -0.343812
      5          6           0        2.199460   -0.030471   -0.228517
      6          8           0        3.327169    0.556124   -0.852553
      7          6           0        4.315112    0.803987    0.150560
      8          6           0        3.937477   -0.194392    1.239443
      9          8           0        2.514689   -0.202169    1.148052
     10          6           0       -1.434922    0.172189   -0.244639
     11          7           0       -1.741850    1.451580   -0.202519
     12          6           0       -3.076240    1.743675   -0.053435
     13          7           0       -4.097211    0.969982    0.192282
     14          6           0       -3.843369   -0.395320    0.294483
     15          8           0       -4.659314   -1.189248    0.722696
     16          6           0       -2.484416   -0.907162   -0.211935
     17          1           0        2.468399   -2.178296   -0.564648
     18          1           0        1.875593   -1.258537   -1.967743
     19          1           0        0.309591   -2.043156    0.547811
     20          1           0       -0.230380   -2.144129   -1.142454
     21          1           0        0.931126    1.391073   -1.277369
     22          1           0        0.816985    1.511604    0.491982
     23          1           0        4.245203    1.838493    0.511800
     24          1           0        5.302383    0.636137   -0.286981
     25          1           0        4.212652    0.111613    2.250776
     26          1           0        4.353471   -1.191132    1.032014
     27          1           0       -3.291452    2.810396   -0.132139
     28          1           0       -2.186088   -1.767151    0.393298
     29          1           0       -2.637911   -1.283645   -1.234666
 ---------------------------------------------------------------------

 SCF Done:  E(UB3LYP) =  -779.075728441     A.U. after   30 cycles

 The electronic state is 2-A.
 Alpha  occ. eigenvalues --  -19.05563 -19.05451 -18.94022 -14.23053 -14.15561
 Alpha  occ. eigenvalues --  -14.13769 -10.19427 -10.14787 -10.14647 -10.11672
 Alpha  occ. eigenvalues --  -10.11198 -10.11033 -10.10233 -10.08865 -10.07655
 Alpha  occ. eigenvalues --  -10.05711  -1.01935  -0.92324  -0.88879  -0.87183
 Alpha  occ. eigenvalues --   -0.80524  -0.73652  -0.70508  -0.66555  -0.64495
 Alpha  occ. eigenvalues --   -0.60714  -0.56794  -0.54913  -0.50622  -0.49341
 Alpha  occ. eigenvalues --   -0.46631  -0.44009  -0.42821  -0.40060  -0.39871
 Alpha  occ. eigenvalues --   -0.38252  -0.37058  -0.35424  -0.34090  -0.33533
 Alpha  occ. eigenvalues --   -0.32869  -0.32030  -0.30933  -0.30581  -0.29572
 Alpha  occ. eigenvalues --   -0.28635  -0.28497  -0.27020  -0.26569  -0.25999
 Alpha  occ. eigenvalues --   -0.24240  -0.23633  -0.20147  -0.17920  -0.17188
 Alpha  occ. eigenvalues --   -0.15253  -0.12004  -0.10162  -0.09643   0.03233
 Alpha virt. eigenvalues --    0.04767   0.06776   0.07531   0.07802   0.09465
 Alpha virt. eigenvalues --    0.09810   0.10396   0.10753   0.11627   0.12320
 Alpha virt. eigenvalues --    0.13070   0.13312   0.13887   0.14119   0.14960

  Beta  occ. eigenvalues --  -19.05561 -19.05449 -18.93807 -14.22931 -14.15711
  Beta  occ. eigenvalues --  -14.13751 -10.19427 -10.14771 -10.14620 -10.11681
  Beta  occ. eigenvalues --  -10.11054 -10.10632 -10.10240 -10.08850 -10.07252
  Beta  occ. eigenvalues --  -10.05762  -1.01928  -0.92315  -0.88491  -0.86865
  Beta  occ. eigenvalues --   -0.80235  -0.73446  -0.70446  -0.66511  -0.64304
  Beta  occ. eigenvalues --   -0.60577  -0.56723  -0.54743  -0.50305  -0.49076
  Beta  occ. eigenvalues --   -0.46428  -0.43958  -0.42701  -0.39823  -0.39713
  Beta  occ. eigenvalues --   -0.38157  -0.36883  -0.35164  -0.33818  -0.33373
  Beta  occ. eigenvalues --   -0.32644  -0.31777  -0.30776  -0.30500  -0.29399
  Beta  occ. eigenvalues --   -0.28571  -0.28370  -0.26982  -0.26539  -0.25763
  Beta  occ. eigenvalues --   -0.23326  -0.22646  -0.20072  -0.17872  -0.16024
  Beta  occ. eigenvalues --   -0.15159  -0.11923  -0.09738  -0.09514
  Beta virt. eigenvalues --    0.05387   0.06940   0.07696   0.07934   0.08853
  Beta virt. eigenvalues --    0.09586   0.09756   0.10372   0.10807   0.11694
  Beta virt. eigenvalues --    0.12312   0.13001   0.13308   0.13816   0.14057

 Mulliken charges and spin densities:
               1          2
     1  C    0.332697  -0.602518
     2  C   -0.140572   0.014416
     3  N    0.150540   0.057895
     4  C    0.388610  -0.221339
     5  C   -1.922661   0.537617
     6  O   -0.011082   0.012787
     7  C    0.112369  -0.183151
     8  C    0.512544  -0.577410
     9  O   -0.020859   0.023920
    10  C   -0.009531   0.346662
    11  N   -0.216007  -0.081655
    12  C   -0.193491   0.279851
    13  N   -0.162806   0.001318
    14  C   -0.223321   0.136749
    15  O   -0.380776   0.078490
    16  C   -0.144247  -0.202314
    17  H   -0.019074   0.184883
    18  H    0.157797   0.029663
    19  H    0.093553   0.097405
    20  H    0.196278  -0.024074
    21  H    0.201506   0.015982
    22  H    0.213874   0.028847
    23  H    0.117378   0.005215
    24  H   -0.183860   0.348700
    25  H   -0.140212   0.303952
    26  H   -0.127153   0.263762
    27  H    0.155859  -0.021483
    28  H    0.187502  -0.019710
    29  H    0.075144   0.165542
 Sum of Mulliken charges =  -1.00000   1.00000

 Dipole moment (field-independent basis, Debye):
    X=             10.2333    Y=             -0.7423    Z=             -2.3359  Tot=             10.5227
 Quadrupole moment (field-independent basis, Debye-Ang):
   XX=           -200.3042   YY=           -113.0095   ZZ=           -108.4910
   XY=              2.6870   XZ=              7.6836   YZ=              4.1117

 Summary of Natural Population Analysis:

                                       Natural Population
                Natural  -----------------------------------------------
    Atom  No    Charge         Core      Valence    Rydberg      Total
 -----------------------------------------------------------------------
      C    1   -0.21220      0.99956     2.20217    0.01047     3.21220
      C    2   -0.08124      0.99964     2.07385    0.00775     3.08124
      N    3   -0.21906      0.99962     2.71107    0.00837     3.71906
      C    4   -0.09554      0.99955     2.08487    0.01111     3.09554
      C    5    0.29255      0.99952     1.68470    0.02323     2.70745
      O    6   -0.30362      0.99987     3.29551    0.00824     4.30362
      C    7   -0.02362      0.99959     2.01202    0.01201     3.02362
      C    8   -0.02634      0.99959     2.01467    0.01208     3.02634
      O    9   -0.30300      0.99987     3.29418    0.00895     4.30300
      C   10    0.32769      0.99957     1.65956    0.01318     2.67231
      N   11   -0.34203      0.99967     2.83217    0.01019     3.84203
      C   12    0.23507      0.99969     1.74584    0.01941     2.76493
      N   13   -0.31092      0.99968     2.79863    0.01261     3.81092
      C   14    0.35444      0.99968     1.62093    0.02495     2.64556
      O   15   -0.29210      0.99987     3.28521    0.00702     4.29210
      C   16   -0.28027      0.99957     2.27229    0.00841     3.28027
      H   17    0.10631      0.00000     0.39249    0.00120     0.39369
      H   18    0.10456      0.00000     0.39426    0.00117     0.39544
      H   19    0.09718      0.00000     0.40135    0.00147     0.40282
      H   20    0.09957      0.00000     0.39925    0.00118     0.40043
      H   21    0.10397      0.00000     0.39458    0.00145     0.39603
      H   22    0.11348      0.00000     0.38477    0.00175     0.38652
      H   23    0.08201      0.00000     0.41686    0.00113     0.41799
      H   24    0.09215      0.00000     0.40648    0.00137     0.40785
      H   25    0.09550      0.00000     0.40332    0.00118     0.40450
      H   26    0.08260      0.00000     0.41572    0.00168     0.41740
      H   27    0.06434      0.00000     0.43411    0.00155     0.43566
      H   28    0.11583      0.00000     0.38270    0.00148     0.38417
      H   29    0.12270      0.00000     0.37537    0.00193     0.37730
 =======================================================================
   * Total *   -0.00000     15.99455    42.78892    0.21653    59.00000

 Normal termination of Gaussian 16 at Thu Dec 10 21:45:40 2020.
