 Gaussian 16, Revision A.03,

 -----------------------------------------------------------
 # opt freq B3LYP/6-31G(d) empiricaldispersion=gd3bj scf=xqc
 -----------------------------------------------------------

 ------------------------------
 CID_57191968_JID_1960_neutraal
 ------------------------------
 Symbolic Z-matrix:
 Charge =  0 Multiplicity = 1

 SCF Done:  E(RB3LYP) =  -1222.04924459     A.U. after   14 cycles
 SCF Done:  E(RB3LYP) =  -1222.05373290     A.U. after   12 cycles
 SCF Done:  E(RB3LYP) =  -1222.05394697     A.U. after   13 cycles
 SCF Done:  E(RB3LYP) =  -1222.05562732     A.U. after   12 cycles
 SCF Done:  E(RB3LYP) =  -1222.05601211     A.U. after   12 cycles
 SCF Done:  E(RB3LYP) =  -1222.05692375     A.U. after   12 cycles
 SCF Done:  E(RB3LYP) =  -1222.05734465     A.U. after   12 cycles
 SCF Done:  E(RB3LYP) =  -1222.05749798     A.U. after   12 cycles
 SCF Done:  E(RB3LYP) =  -1222.05760568     A.U. after   12 cycles
 SCF Done:  E(RB3LYP) =  -1222.05766401     A.U. after   11 cycles
 SCF Done:  E(RB3LYP) =  -1222.05767316     A.U. after    9 cycles
 SCF Done:  E(RB3LYP) =  -1222.05767455     A.U. after    9 cycles
 SCF Done:  E(RB3LYP) =  -1222.05767478     A.U. after    8 cycles
 SCF Done:  E(RB3LYP) =  -1222.05767481     A.U. after    7 cycles
 Optimization completed.
    -- Stationary point found.
 Normal termination of Gaussian 16 at Tue Dec  8 21:45:25 2020.

 --------------------------------------------------------------------
 #N Geom=AllCheck Guess=TCheck SCRF=Check GenChk RB3LYP/6-31G(d) Freq
 --------------------------------------------------------------------

 Structure from the checkpoint file:  "JID_1960.chk"
 ------------------------------
 CID_57191968_JID_1960_neutraal
 ------------------------------
 Charge =  0 Multiplicity = 1

 SCF Done:  E(RB3LYP) =  -1222.05767481     A.U. after    1 cycles

  Exact polarizability: 116.764   3.340 121.202   3.406   1.008  90.801
 Approx polarizability: 158.339   1.603 171.636  10.256   0.311 145.119

                      1                      2                      3
                      A                      A                      A
 Frequencies --     29.5997                53.6580                57.3473
 Red. masses --      5.2982                 6.1710                 5.7475
 Frc consts  --      0.0027                 0.0105                 0.0111
 IR Inten    --      1.3605                 0.4176                 0.9784

                      4                      5                      6
                      A                      A                      A
 Frequencies --     87.0006               108.4821               127.4942
 Red. masses --      3.2291                 4.4671                 4.0731
 Frc consts  --      0.0144                 0.0310                 0.0390
 IR Inten    --      1.0432                 0.3180                 1.3159

                      7                      8                      9
                      A                      A                      A
 Frequencies --    164.0952               204.6215               233.1740
 Red. masses --      2.1429                 1.8242                 1.3611
 Frc consts  --      0.0340                 0.0450                 0.0436
 IR Inten    --     10.3449                 2.3205                 3.1636

                     10                     11                     12
                      A                      A                      A
 Frequencies --    247.0745               262.7073               283.1792
 Red. masses --      1.7734                 3.3551                 1.3893
 Frc consts  --      0.0638                 0.1364                 0.0656
 IR Inten    --      5.3532                 4.6355                19.4603

                     13                     14                     15
                      A                      A                      A
 Frequencies --    321.7235               333.7249               383.1757
 Red. masses --      2.1409                 2.9570                 2.4211
 Frc consts  --      0.1306                 0.1940                 0.2094
 IR Inten    --      8.7368                 1.2480                 0.9111

                     16                     17                     18
                      A                      A                      A
 Frequencies --    391.0329               460.1816               474.9394
 Red. masses --      2.9219                 3.5187                 2.8204
 Frc consts  --      0.2632                 0.4390                 0.3748
 IR Inten    --      6.1343                 3.7071                 2.1761

                     19                     20                     21
                      A                      A                      A
 Frequencies --    607.1886               631.3042               733.4087
 Red. masses --      2.7775                 3.8232                 3.0540
 Frc consts  --      0.6033                 0.8978                 0.9678
 IR Inten    --      2.0912                 5.3544                 8.7644

                     22                     23                     24
                      A                      A                      A
 Frequencies --    743.8901               793.6230               823.3067
 Red. masses --      2.8743                 1.3895                 1.8053
 Frc consts  --      0.9371                 0.5156                 0.7210
 IR Inten    --      9.8249                15.4705                11.2659

                     25                     26                     27
                      A                      A                      A
 Frequencies --    855.5930               865.2141               896.1677
 Red. masses --      1.7947                 2.4241                 1.6521
 Frc consts  --      0.7741                 1.0692                 0.7817
 IR Inten    --      3.6592                 9.6171                 4.9298

                     28                     29                     30
                      A                      A                      A
 Frequencies --    929.4047               963.4064              1002.0614
 Red. masses --      2.1161                 1.5737                 1.7141
 Frc consts  --      1.0770                 0.8606                 1.0141
 IR Inten    --      5.9039                 4.7681                 6.2310

                     31                     32                     33
                      A                      A                      A
 Frequencies --   1031.7617              1056.3029              1089.6270
 Red. masses --      2.0339                 2.3081                 2.7648
 Frc consts  --      1.2757                 1.5173                 1.9341
 IR Inten    --      5.2690                11.0419                46.9371

                     34                     35                     36
                      A                      A                      A
 Frequencies --   1108.9702              1133.2217              1175.8087
 Red. masses --      3.1162                 1.9728                 1.5886
 Frc consts  --      2.2580                 1.4927                 1.2940
 IR Inten    --      7.5510                32.4134                81.1817

                     37                     38                     39
                      A                      A                      A
 Frequencies --   1192.9012              1209.3866              1261.6747
 Red. masses --      1.1479                 1.6944                 1.6955
 Frc consts  --      0.9624                 1.4601                 1.5901
 IR Inten    --      1.2269                 5.6531               186.1169

                     40                     41                     42
                      A                      A                      A
 Frequencies --   1284.5596              1305.9379              1341.6776
 Red. masses --      1.2950                 1.2456                 1.1293
 Frc consts  --      1.2590                 1.2516                 1.1977
 IR Inten    --     18.7195                17.8882                13.7193

                     43                     44                     45
                      A                      A                      A
 Frequencies --   1346.1686              1378.0392              1400.5157
 Red. masses --      1.1554                 1.4620                 1.3776
 Frc consts  --      1.2336                 1.6357                 1.5920
 IR Inten    --      4.3474                21.7582                13.9756

                     46                     47                     48
                      A                      A                      A
 Frequencies --   1406.9701              1422.1188              1445.3902
 Red. masses --      1.3581                 1.3491                 1.3113
 Frc consts  --      1.5840                 1.6076                 1.6140
 IR Inten    --      9.2020                12.3717                 9.8295

                     49                     50                     51
                      A                      A                      A
 Frequencies --   1508.9495              1515.7794              1517.3708
 Red. masses --      1.0808                 1.0871                 1.0621
 Frc consts  --      1.4500                 1.4716                 1.4407
 IR Inten    --      1.6764                 9.9099                 7.7006

                     52                     53                     54
                      A                      A                      A
 Frequencies --   1519.6984              1525.8808              1538.5182
 Red. masses --      1.0703                 1.1040                 1.0585
 Frc consts  --      1.4563                 1.5145                 1.4762
 IR Inten    --      2.4449                16.2778                14.6410

                     55                     56                     57
                      A                      A                      A
 Frequencies --   1824.6982              2654.3499              2672.3229
 Red. masses --     10.7682                 1.0379                 1.0383
 Frc consts  --     21.1240                 4.3085                 4.3687
 IR Inten    --    198.1527                41.2577                12.8923

                     58                     59                     60
                      A                      A                      A
 Frequencies --   3056.9853              3062.1045              3064.4790
 Red. masses --      1.0598                 1.0363                 1.0625
 Frc consts  --      5.8355                 5.7248                 5.8790
 IR Inten    --      9.7309                12.9658                18.1970

                     61                     62                     63
                      A                      A                      A
 Frequencies --   3083.7824              3096.2226              3098.3147
 Red. masses --      1.0604                 1.1005                 1.0594
 Frc consts  --      5.9413                 6.2160                 5.9917
 IR Inten    --      6.8927                17.5582                23.5872

                     64                     65                     66
                      A                      A                      A
 Frequencies --   3107.6955              3130.6678              3132.4666
 Red. masses --      1.1029                 1.1008                 1.1015
 Frc consts  --      6.2755                 6.3565                 6.3678
 IR Inten    --     22.2111                27.5378                15.8804

                     67                     68                     69
                      A                      A                      A
 Frequencies --   3137.3871              3139.7400              3161.0735
 Red. masses --      1.0908                 1.1040                 1.1088
 Frc consts  --      6.3263                 6.4123                 6.5280
 IR Inten    --      4.1817                 6.8349                22.8234

 - Thermochemistry -
 -------------------
 Temperature   298.150 Kelvin.  Pressure   1.00000 Atm.
 Atom     1 has atomic number  6 and mass  12.00000

 Molecular mass:   194.04352 amu.
 Principal axes and moments of inertia in atomic units:
                           1         2         3
     Eigenvalues --  1686.970023402.277314391.78102
           X            0.99900   0.04370  -0.00972
           Y           -0.04370   0.99904   0.00048
           Z            0.00973  -0.00006   0.99995
 This molecule is an asymmetric top.
 Rotational symmetry number  1.
 Warning -- assumption of classical behavior for rotation
           may cause significant error
 Rotational temperatures (Kelvin)      0.05134     0.02546     0.01972
 Rotational constants (GHZ):           1.06981     0.53045     0.41094
 Zero-point vibrational energy     539559.5 (Joules/Mol)
                                  128.95781 (Kcal/Mol)
 Warning -- explicit consideration of  19 degrees of freedom as
           vibrations may cause significant error
 Vibrational temperatures:     42.59    77.20    82.51   125.17   156.08
          (Kelvin)            183.44   236.10   294.40   335.49   355.49
                              377.98   407.43   462.89   480.16   551.30
                              562.61   662.10   683.33   873.61   908.31
                             1055.21  1070.29  1141.85  1184.55  1231.01
                             1244.85  1289.39  1337.21  1386.13  1441.74
                             1484.47  1519.78  1567.73  1595.56  1630.45
                             1691.73  1716.32  1740.04  1815.27  1848.19
                             1878.95  1930.37  1936.84  1982.69  2015.03
                             2024.32  2046.11  2079.59  2171.04  2180.87
                             2183.16  2186.51  2195.40  2213.58  2625.33
                             3819.02  3844.88  4398.32  4405.69  4409.10
                             4436.88  4454.77  4457.78  4471.28  4504.33
                             4506.92  4514.00  4517.39  4548.08

 Zero-point correction=                           0.205507 (Hartree/Particle)
 Thermal correction to Energy=                    0.219287
 Thermal correction to Enthalpy=                  0.220231
 Thermal correction to Gibbs Free Energy=         0.163642
 Sum of electronic and zero-point Energies=          -1221.852167
 Sum of electronic and thermal Energies=             -1221.838388
 Sum of electronic and thermal Enthalpies=           -1221.837443
 Sum of electronic and thermal Free Energies=        -1221.894033

                     E (Thermal)             CV                S
                      KCal/Mol        Cal/Mol-Kelvin    Cal/Mol-Kelvin
 Total                  137.605             48.758            119.103
 Electronic               0.000              0.000              0.000
 Translational            0.889              2.981             41.694
 Rotational               0.889              2.981             31.600
 Vibrational            135.827             42.796             45.809
 Vibration     1          0.593              1.984              5.856
 Vibration     2          0.596              1.976              4.678
 Vibration     3          0.596              1.975              4.546
 Vibration     4          0.601              1.958              3.726
 Vibration     5          0.606              1.942              3.296
 Vibration     6          0.611              1.926              2.984
 Vibration     7          0.623              1.887              2.502
 Vibration     8          0.640              1.833              2.091
 Vibration     9          0.654              1.790              1.854
 Vibration    10          0.661              1.768              1.751
 Vibration    11          0.670              1.741              1.644
 Vibration    12          0.682              1.705              1.514
 Vibration    13          0.707              1.632              1.301
 Vibration    14          0.715              1.608              1.242
 Vibration    15          0.752              1.506              1.027
 Vibration    16          0.759              1.489              0.996
 Vibration    17          0.818              1.338              0.766
 Vibration    18          0.832              1.306              0.724
 Vibration    19          0.966              1.017              0.437

 Optimization completed.
    -- Stationary point found.
 Normal termination of Gaussian 16 at Tue Dec  8 21:51:29 2020.

 ----------------------------------------------------------------------
 # B3LYP/6-311++G(d,p) empiricaldispersion=gd3bj scf=xqc pop=npa geom=c
 heck
 ----------------------------------------------------------------------

 --------------------------------------
 CID_57191968_JID_1960_Energie_neutraal
 --------------------------------------
 Structure from the checkpoint file:  "JID_1960.chk"
 Charge =  0 Multiplicity = 1

 SCF Done:  E(RB3LYP) =  -1222.24480473     A.U. after   14 cycles
 Normal termination of Gaussian 16 at Tue Dec  8 21:54:16 2020.

 ----------------------------------------------------------------------
 # B3LYP/6-311++G(d,p) empiricaldispersion=gd3bj scf=xqc pop=npa geom=c
 heck
 ----------------------------------------------------------------------

 ------------------------------------
 CID_57191968_JID_1960_Energie_kation
 ------------------------------------
 Structure from the checkpoint file:  "JID_1960.chk"
 Charge =  1 Multiplicity = 2

 SCF Done:  E(UB3LYP) =  -1221.91576563     A.U. after   25 cycles
 Normal termination of Gaussian 16 at Tue Dec  8 22:01:06 2020.
 Gaussian 16:  ES64L-G16RevA.03 25-Dec-2016

 ----------------------------------------------------------------------
 # B3LYP/6-311++G(d,p) empiricaldispersion=gd3bj scf=xqc pop=npa geom=c
 heck
 ----------------------------------------------------------------------

 -----------------------------------
 CID_57191968_JID_1960_Energie_anion
 -----------------------------------
 Structure from the checkpoint file:  "JID_1960.chk"
 Charge = -1 Multiplicity = 2

                         Standard orientation:
 ---------------------------------------------------------------------
 Center     Atomic      Atomic             Coordinates (Angstroms)
 Number     Number       Type             X           Y           Z
 ---------------------------------------------------------------------
      1          6           0        2.344622    2.066565    0.315129
      2          6           0        2.738510    1.145009   -0.827751
      3          8           0        1.781471    0.066380   -0.980518
      4          6           0        1.922869   -0.988631   -0.144816
      5          8           0        2.816046   -1.097689    0.667373
      6          6           0        0.786387   -1.975104   -0.308391
      7          6           0       -0.182349   -1.878578    0.888428
      8          6           0       -0.746455   -0.471608    1.140018
      9          6           0       -1.402850    0.202742   -0.068536
     10         16           0       -2.899319   -0.674309   -0.711978
     11         16           0       -1.882798    1.936327    0.289351
     12          1           0        1.323810    2.439743    0.183977
     13          1           0        3.025065    2.924661    0.351738
     14          1           0        2.408600    1.538866    1.270587
     15          1           0        2.714935    1.660459   -1.790186
     16          1           0        3.728738    0.711969   -0.669014
     17          1           0        0.268568   -1.792270   -1.253909
     18          1           0        1.215651   -2.981072   -0.341252
     19          1           0       -0.997768   -2.595432    0.740076
     20          1           0        0.351786   -2.193760    1.791291
     21          1           0       -1.473604   -0.520798    1.958820
     22          1           0        0.063975    0.187344    1.474033
     23          1           0       -0.680971    0.305557   -0.880547
     24          1           0       -2.323344   -1.884978   -0.894121
     25          1           0       -2.656093    1.655541    1.361227
 ---------------------------------------------------------------------

 SCF Done:  E(UB3LYP) =  -1222.23199408     A.U. after   31 cycles

 The electronic state is 2-A.
 Alpha  occ. eigenvalues --  -88.75045 -88.74165 -19.07262 -19.01577 -10.20470
 Alpha  occ. eigenvalues --  -10.13836 -10.13221 -10.08388 -10.08157 -10.08061
 Alpha  occ. eigenvalues --  -10.06915  -7.83748  -7.82858  -5.80126  -5.79771
 Alpha  occ. eigenvalues --   -5.79236  -5.79121  -5.78889  -5.78219  -1.01113
 Alpha  occ. eigenvalues --   -0.92566  -0.74238  -0.70019  -0.67167  -0.62067
 Alpha  occ. eigenvalues --   -0.61615  -0.56598  -0.52763  -0.48103  -0.45533
 Alpha  occ. eigenvalues --   -0.41454  -0.39506  -0.39058  -0.36786  -0.35986
 Alpha  occ. eigenvalues --   -0.34430  -0.32919  -0.32649  -0.30971  -0.30395
 Alpha  occ. eigenvalues --   -0.28881  -0.28413  -0.26852  -0.25770  -0.24900
 Alpha  occ. eigenvalues --   -0.24608  -0.22978  -0.22604  -0.21304  -0.18369
 Alpha  occ. eigenvalues --   -0.15038  -0.14264   0.04488
 Alpha virt. eigenvalues --    0.06297   0.07162   0.08329   0.08497   0.09344
 Alpha virt. eigenvalues --    0.09555   0.09760   0.10152   0.10764   0.11624
 Alpha virt. eigenvalues --    0.11963   0.12738   0.12950   0.13911   0.14163

  Beta  occ. eigenvalues --  -88.75028 -88.74143 -19.07251 -19.01563 -10.20462
  Beta  occ. eigenvalues --  -10.13831 -10.13198 -10.08358 -10.08137 -10.08032
  Beta  occ. eigenvalues --  -10.06889  -7.83729  -7.82833  -5.80095  -5.79756
  Beta  occ. eigenvalues --   -5.79197  -5.79107  -5.78869  -5.78200  -1.01090
  Beta  occ. eigenvalues --   -0.92541  -0.74197  -0.69970  -0.67122  -0.61968
  Beta  occ. eigenvalues --   -0.61546  -0.56535  -0.52683  -0.48025  -0.45483
  Beta  occ. eigenvalues --   -0.41396  -0.39468  -0.39002  -0.36747  -0.35921
  Beta  occ. eigenvalues --   -0.34371  -0.32873  -0.32580  -0.30927  -0.30335
  Beta  occ. eigenvalues --   -0.28829  -0.28363  -0.26798  -0.25722  -0.24861
  Beta  occ. eigenvalues --   -0.24556  -0.22917  -0.22545  -0.21250  -0.18346
  Beta  occ. eigenvalues --   -0.14988  -0.14208
  Beta virt. eigenvalues --    0.06826   0.07413   0.07997   0.08767   0.08777
  Beta virt. eigenvalues --    0.09656   0.09905   0.10093   0.10604   0.11174
  Beta virt. eigenvalues --    0.11960   0.12185   0.13112   0.13268   0.14149

 Mulliken charges and spin densities:
               1          2
     1  C    0.359075  -0.714330
     2  C    0.054938  -0.298030
     3  O   -0.004165   0.048899
     4  C   -0.008266  -0.254804
     5  O   -0.277807   0.047910
     6  C    0.464867  -0.682918
     7  C   -0.055519  -0.485438
     8  C   -0.290081   0.009129
     9  C    0.227841  -0.010873
    10  S    0.300629  -0.562557
    11  S    0.565112  -0.632364
    12  H    0.133784  -0.001987
    13  H   -0.426334   0.577479
    14  H   -0.019689   0.185044
    15  H   -0.493440   0.659185
    16  H    0.086378   0.081885
    17  H   -0.113682   0.319194
    18  H   -0.545572   0.757429
    19  H   -0.444786   0.599972
    20  H    0.011824   0.174038
    21  H   -0.254843   0.451931
    22  H    0.161813  -0.009638
    23  H    0.216209   0.014046
    24  H   -0.310471   0.350159
    25  H   -0.337813   0.376640
 Sum of Mulliken charges =  -1.00000   1.00000

 Dipole moment (field-independent basis, Debye):
    X=             -0.0196    Y=              1.5122    Z=              0.7526  Tot=              1.6892
 Quadrupole moment (field-independent basis, Debye-Ang):
   XX=           -140.9292   YY=           -136.3166   ZZ=           -114.3438
   XY=             -5.1802   XZ=              0.1843   YZ=              2.2581

 Summary of Natural Population Analysis:

                                       Natural Population
                Natural  -----------------------------------------------
    Atom  No    Charge         Core      Valence    Rydberg      Total
 -----------------------------------------------------------------------
      C    1   -0.30245      0.99966     2.29727    0.00553     3.30245
      C    2   -0.01679      0.99957     2.00566    0.01156     3.01679
      O    3   -0.28517      0.99986     3.27536    0.00995     4.28517
      C    4    0.41081      0.99968     1.56282    0.02669     2.58919
      O    5   -0.30939      0.99987     3.30413    0.00538     4.30939
      C    6   -0.23770      0.99958     2.22847    0.00965     3.23770
      C    7   -0.18734      0.99962     2.17802    0.00970     3.18734
      C    8   -0.20570      0.99957     2.19394    0.01219     3.20570
      C    9   -0.23280      0.99956     2.22082    0.01242     3.23280
      S   10   -0.01558      4.99960     3.00040    0.01558     8.01558
      S   11   -0.00136      4.99961     2.98572    0.01603     8.00136
      H   12    0.10659      0.00000     0.39221    0.00120     0.39341
      H   13    0.10272      0.00000     0.39605    0.00123     0.39728
      H   14    0.10382      0.00000     0.39505    0.00113     0.39618
      H   15    0.09230      0.00000     0.40620    0.00150     0.40770
      H   16    0.09388      0.00000     0.40494    0.00118     0.40612
      H   17    0.10819      0.00000     0.38968    0.00213     0.39181
      H   18    0.11622      0.00000     0.38202    0.00176     0.38378
      H   19    0.10482      0.00000     0.39250    0.00268     0.39518
      H   20    0.10474      0.00000     0.39406    0.00120     0.39526
      H   21    0.10606      0.00000     0.39236    0.00158     0.39394
      H   22    0.10509      0.00000     0.39323    0.00169     0.39491
      H   23    0.11400      0.00000     0.38385    0.00215     0.38600
      H   24    0.06194      0.00000     0.43403    0.00403     0.43806
      H   25    0.06310      0.00000     0.43344    0.00345     0.43690
 =======================================================================
   * Total *   -0.00000     18.99618    32.84223    0.16159    52.00000

 Normal termination of Gaussian 16 at Tue Dec  8 22:09:08 2020.
