 Gaussian 16, Revision A.03,

 -----------------------------------------------------------
 # opt freq B3LYP/6-31G(d) empiricaldispersion=gd3bj scf=xqc
 -----------------------------------------------------------

 -------------------------------
 CID_130956772_JID_3322_neutraal
 -------------------------------
 Symbolic Z-matrix:
 Charge =  0 Multiplicity = 1

 SCF Done:  E(RB3LYP) =  -900.820183474     A.U. after   14 cycles
 SCF Done:  E(RB3LYP) =  -900.824764356     A.U. after   13 cycles
 SCF Done:  E(RB3LYP) =  -900.826749822     A.U. after   12 cycles
 SCF Done:  E(RB3LYP) =  -900.827753048     A.U. after   11 cycles
 SCF Done:  E(RB3LYP) =  -900.828234741     A.U. after   12 cycles
 SCF Done:  E(RB3LYP) =  -900.828324778     A.U. after   11 cycles
 SCF Done:  E(RB3LYP) =  -900.828427529     A.U. after   10 cycles
 SCF Done:  E(RB3LYP) =  -900.828485370     A.U. after   10 cycles
 SCF Done:  E(RB3LYP) =  -900.828485357     A.U. after   10 cycles
 SCF Done:  E(RB3LYP) =  -900.828512211     A.U. after    9 cycles
 SCF Done:  E(RB3LYP) =  -900.828527667     A.U. after    9 cycles
 SCF Done:  E(RB3LYP) =  -900.828533337     A.U. after    9 cycles
 SCF Done:  E(RB3LYP) =  -900.828537916     A.U. after    9 cycles
 SCF Done:  E(RB3LYP) =  -900.828540754     A.U. after    9 cycles
 SCF Done:  E(RB3LYP) =  -900.828541059     A.U. after    7 cycles
 SCF Done:  E(RB3LYP) =  -900.828541188     A.U. after    7 cycles
 Optimization completed.
    -- Stationary point found.
 Normal termination of Gaussian 16 at Wed Dec  9 23:00:41 2020.

 --------------------------------------------------------------------
 #N Geom=AllCheck Guess=TCheck SCRF=Check GenChk RB3LYP/6-31G(d) Freq
 --------------------------------------------------------------------

 Structure from the checkpoint file:  "JID_3322.chk"
 -------------------------------
 CID_130956772_JID_3322_neutraal
 -------------------------------
 Charge =  0 Multiplicity = 1

 SCF Done:  E(RB3LYP) =  -900.828541188     A.U. after    1 cycles

  Exact polarizability: 152.529   3.478 135.761  12.253   8.151 116.251
 Approx polarizability: 207.812  11.717 207.794  25.212  27.645 177.526

                      1                      2                      3
                      A                      A                      A
 Frequencies --     48.9456                69.9704                88.7898
 Red. masses --      4.4109                 2.8681                 1.5409
 Frc consts  --      0.0062                 0.0083                 0.0072
 IR Inten    --      2.2973                 0.0629                 3.4950

                      4                      5                      6
                      A                      A                      A
 Frequencies --     98.8128               121.0885               157.1253
 Red. masses --      3.5134                 2.2222                 2.5791
 Frc consts  --      0.0202                 0.0192                 0.0375
 IR Inten    --      1.0075                 0.2273                 5.2021

                      7                      8                      9
                      A                      A                      A
 Frequencies --    182.0050               196.9616               208.3227
 Red. masses --      3.0649                 2.1631                 1.7212
 Frc consts  --      0.0598                 0.0494                 0.0440
 IR Inten    --      0.7475                 5.1707                 2.1992

                     10                     11                     12
                      A                      A                      A
 Frequencies --    228.3421               238.5939               245.2123
 Red. masses --      1.5894                 1.3837                 1.6198
 Frc consts  --      0.0488                 0.0464                 0.0574
 IR Inten    --      0.1688                 1.8455                 0.2645

                     13                     14                     15
                      A                      A                      A
 Frequencies --    281.8364               284.3276               313.9352
 Red. masses --      1.6917                 2.4359                 1.1116
 Frc consts  --      0.0792                 0.1160                 0.0645
 IR Inten    --      0.3121                 0.3005                 0.4864

                     16                     17                     18
                      A                      A                      A
 Frequencies --    341.0418               366.8080               376.4298
 Red. masses --      2.5209                 2.6431                 2.6706
 Frc consts  --      0.1728                 0.2095                 0.2230
 IR Inten    --      1.3633                 0.5783                 2.0758

                     19                     20                     21
                      A                      A                      A
 Frequencies --    382.5018               413.3732               448.6196
 Red. masses --      2.4895                 2.8351                 3.6665
 Frc consts  --      0.2146                 0.2854                 0.4348
 IR Inten    --      2.2617                 1.3284                 7.8235

                     22                     23                     24
                      A                      A                      A
 Frequencies --    461.2119               533.1483               624.2791
 Red. masses --      2.4739                 4.1840                 2.7226
 Frc consts  --      0.3101                 0.7007                 0.6252
 IR Inten    --      1.0490                22.4894                 4.5381

                     25                     26                     27
                      A                      A                      A
 Frequencies --    648.6443               676.6540               692.7765
 Red. masses --      2.0289                 7.5184                 2.2594
 Frc consts  --      0.5030                 2.0282                 0.6389
 IR Inten    --     72.0948                 6.7343                14.8326

                     28                     29                     30
                      A                      A                      A
 Frequencies --    723.1847               773.3242               883.9035
 Red. masses --      2.3559                 2.3767                 2.0338
 Frc consts  --      0.7259                 0.8374                 0.9362
 IR Inten    --      8.2987                 3.6718                 6.7139

                     31                     32                     33
                      A                      A                      A
 Frequencies --    924.7404               929.2321               973.3457
 Red. masses --      1.4057                 1.5636                 1.9994
 Frc consts  --      0.7082                 0.7955                 1.1160
 IR Inten    --      0.9415                 0.6307                 0.7742

                     34                     35                     36
                      A                      A                      A
 Frequencies --    985.2435               988.4359              1046.0038
 Red. masses --      1.5037                 1.7548                 3.9705
 Frc consts  --      0.8600                 1.0101                 2.5595
 IR Inten    --      3.0469                 3.5524                 5.5851

                     37                     38                     39
                      A                      A                      A
 Frequencies --   1050.5340              1061.1439              1078.9549
 Red. masses --      1.7517                 1.3473                 1.6211
 Frc consts  --      1.1390                 0.8938                 1.1119
 IR Inten    --      4.5727                 3.4084                 6.7524

                     40                     41                     42
                      A                      A                      A
 Frequencies --   1097.3483              1110.8133              1114.1857
 Red. masses --      1.6215                 1.7661                 1.9751
 Frc consts  --      1.1504                 1.2840                 1.4446
 IR Inten    --     12.7966                22.0018                41.9090

                     43                     44                     45
                      A                      A                      A
 Frequencies --   1152.1054              1163.6856              1165.1613
 Red. masses --      1.3457                 1.2930                 1.5332
 Frc consts  --      1.0524                 1.0316                 1.2263
 IR Inten    --      9.8264                 1.8145                 7.5720

                     46                     47                     48
                      A                      A                      A
 Frequencies --   1168.1984              1188.1267              1221.9917
 Red. masses --      1.8007                 1.9330                 2.2631
 Frc consts  --      1.4479                 1.6077                 1.9911
 IR Inten    --     22.2417                10.3637                16.7040

                     49                     50                     51
                      A                      A                      A
 Frequencies --   1254.1763              1276.9280              1295.4386
 Red. masses --      2.5796                 2.5339                 2.2300
 Frc consts  --      2.3907                 2.4343                 2.2049
 IR Inten    --     72.0969               169.1659                 3.6564

                     52                     53                     54
                      A                      A                      A
 Frequencies --   1363.5168              1380.0854              1390.4561
 Red. masses --      1.8041                 1.6965                 1.7350
 Frc consts  --      1.9762                 1.9038                 1.9763
 IR Inten    --     11.2080               110.6713                72.0810

                     55                     56                     57
                      A                      A                      A
 Frequencies --   1423.9720              1436.8137              1448.3732
 Red. masses --      1.3398                 1.3241                 1.3695
 Frc consts  --      1.6006                 1.6105                 1.6927
 IR Inten    --      6.1885                12.3086                28.1406

                     58                     59                     60
                      A                      A                      A
 Frequencies --   1450.5588              1458.6271              1484.1912
 Red. masses --      1.2719                 1.2877                 1.1335
 Frc consts  --      1.5768                 1.6142                 1.4712
 IR Inten    --     22.2868                 9.3572                 1.7463

                     61                     62                     63
                      A                      A                      A
 Frequencies --   1505.4198              1510.6063              1515.4856
 Red. masses --      1.2575                 1.0463                 1.0986
 Frc consts  --      1.6791                 1.4067                 1.4867
 IR Inten    --     52.3340                 3.5919                 0.4838

                     64                     65                     66
                      A                      A                      A
 Frequencies --   1519.2300              1524.4581              1525.6874
 Red. masses --      1.1907                 1.1101                 1.1062
 Frc consts  --      1.6192                 1.5200                 1.5171
 IR Inten    --     27.5834                 0.8484                28.6774

                     67                     68                     69
                      A                      A                      A
 Frequencies --   1531.8686              1535.2806              1538.0741
 Red. masses --      1.0774                 1.1537                 1.0499
 Frc consts  --      1.4896                 1.6022                 1.4634
 IR Inten    --     18.4730                37.3379                15.3707

                     70                     71                     72
                      A                      A                      A
 Frequencies --   1545.6761              1549.6964              1554.7233
 Red. masses --      1.1710                 1.0929                 1.0640
 Frc consts  --      1.6483                 1.5464                 1.5153
 IR Inten    --     22.3402                22.5528                 2.9789

                     73                     74                     75
                      A                      A                      A
 Frequencies --   1576.3901              3018.8455              3036.0122
 Red. masses --      1.6236                 1.0824                 1.0355
 Frc consts  --      2.3771                 5.8117                 5.6236
 IR Inten    --    112.3823                19.0538                31.8137

                     76                     77                     78
                      A                      A                      A
 Frequencies --   3041.5400              3050.1332              3051.1910
 Red. masses --      1.0420                 1.0449                 1.0349
 Frc consts  --      5.6796                 5.7273                 5.6767
 IR Inten    --     35.6369                63.3110                72.4221

                     79                     80                     81
                      A                      A                      A
 Frequencies --   3061.0404              3099.5642              3101.5623
 Red. masses --      1.0412                 1.1014                 1.0991
 Frc consts  --      5.7483                 6.2342                 6.2296
 IR Inten    --     26.4491                31.8943                25.3382

                     82                     83                     84
                      A                      A                      A
 Frequencies --   3106.7005              3111.5038              3115.8272
 Red. masses --      1.1045                 1.1022                 1.0976
 Frc consts  --      6.2809                 6.2870                 6.2785
 IR Inten    --     28.6523                14.8025                69.2592

                     85                     86                     87
                      A                      A                      A
 Frequencies --   3119.4229              3127.6473              3134.5149
 Red. masses --      1.0926                 1.0559                 1.0870
 Frc consts  --      6.2642                 6.0857                 6.2922
 IR Inten    --      2.4741                20.0738                17.6997

                     88                     89                     90
                      A                      A                      A
 Frequencies --   3141.9801              3157.0486              3172.1708
 Red. masses --      1.1034                 1.0997                 1.0993
 Frc consts  --      6.4178                 6.4579                 6.5176
 IR Inten    --     18.1424                22.2700                 8.6841

                     91                     92                     93
                      A                      A                      A
 Frequencies --   3186.5217              3204.9219              3605.1302
 Red. masses --      1.0990                 1.1167                 1.0766
 Frc consts  --      6.5747                 6.7579                 8.2438
 IR Inten    --      3.7241                19.7614                34.1133

 - Thermochemistry -
 -------------------
 Temperature   298.150 Kelvin.  Pressure   1.00000 Atm.
 Atom     1 has atomic number  6 and mass  12.00000

 Molecular mass:   200.13472 amu.
 Principal axes and moments of inertia in atomic units:
                           1         2         3
     Eigenvalues --  1803.439153644.240744034.46931
           X            0.99968   0.01834   0.01745
           Y           -0.01629   0.99369  -0.11099
           Z           -0.01937   0.11067   0.99367
 This molecule is an asymmetric top.
 Rotational symmetry number  1.
 Warning -- assumption of classical behavior for rotation
           may cause significant error
 Rotational temperatures (Kelvin)      0.04803     0.02377     0.02147
 Rotational constants (GHZ):           1.00072     0.49523     0.44733
 Zero-point vibrational energy     776187.6 (Joules/Mol)
                                  185.51329 (Kcal/Mol)
 Warning -- explicit consideration of  23 degrees of freedom as
           vibrations may cause significant error
 Vibrational temperatures:     70.42   100.67   127.75   142.17   174.22
          (Kelvin)            226.07   261.86   283.38   299.73   328.53
                              343.28   352.81   405.50   409.08   451.68
                              490.68   527.75   541.60   550.33   594.75
                              645.46   663.58   767.08   898.20   933.25
                              973.55   996.75  1040.50  1112.64  1271.74
                             1330.50  1336.96  1400.43  1417.55  1422.14
                             1504.97  1511.48  1526.75  1552.38  1578.84
                             1598.21  1603.06  1657.62  1674.28  1676.41
                             1680.78  1709.45  1758.17  1804.48  1837.21
                             1863.85  1961.80  1985.64  2000.56  2048.78
                             2067.25  2083.89  2087.03  2098.64  2135.42
                             2165.96  2173.43  2180.45  2185.83  2193.36
                             2195.12  2204.02  2208.93  2212.95  2223.88
                             2229.67  2236.90  2268.07  4343.45  4368.14
                             4376.10  4388.46  4389.98  4404.15  4459.58
                             4462.46  4469.85  4476.76  4482.98  4488.15
                             4499.99  4509.87  4520.61  4542.29  4564.05
                             4584.69  4611.17  5186.98

 Zero-point correction=                           0.295634 (Hartree/Particle)
 Thermal correction to Energy=                    0.311249
 Thermal correction to Enthalpy=                  0.312193
 Thermal correction to Gibbs Free Energy=         0.253820
 Sum of electronic and zero-point Energies=           -900.532907
 Sum of electronic and thermal Energies=              -900.517293
 Sum of electronic and thermal Enthalpies=            -900.516348
 Sum of electronic and thermal Free Energies=         -900.574721

                     E (Thermal)             CV                S
                      KCal/Mol        Cal/Mol-Kelvin    Cal/Mol-Kelvin
 Total                  195.311             58.463            122.856
 Electronic               0.000              0.000              0.000
 Translational            0.889              2.981             41.786
 Rotational               0.889              2.981             31.650
 Vibrational            193.534             52.502             49.420
 Vibration     1          0.595              1.978              4.860
 Vibration     2          0.598              1.968              4.154
 Vibration     3          0.602              1.957              3.687
 Vibration     4          0.604              1.950              3.478
 Vibration     5          0.609              1.932              3.083
 Vibration     6          0.621              1.895              2.584
 Vibration     7          0.630              1.864              2.308
 Vibration     8          0.636              1.844              2.161
 Vibration     9          0.642              1.828              2.058
 Vibration    10          0.651              1.798              1.892
 Vibration    11          0.657              1.781              1.813
 Vibration    12          0.660              1.771              1.765
 Vibration    13          0.681              1.707              1.522
 Vibration    14          0.683              1.703              1.507
 Vibration    15          0.702              1.647              1.342
 Vibration    16          0.721              1.593              1.207
 Vibration    17          0.740              1.541              1.093
 Vibration    18          0.747              1.520              1.053
 Vibration    19          0.752              1.508              1.029
 Vibration    20          0.777              1.441              0.915
 Vibration    21          0.808              1.364              0.800
 Vibration    22          0.819              1.336              0.763
 Vibration    23          0.888              1.177              0.580

 Optimization completed.
    -- Stationary point found.
 Normal termination of Gaussian 16 at Wed Dec  9 23:10:28 2020.

 ----------------------------------------------------------------------
 # B3LYP/6-311++G(d,p) empiricaldispersion=gd3bj scf=xqc pop=npa geom=c
 heck
 ----------------------------------------------------------------------

 ---------------------------------------
 CID_130956772_JID_3322_Energie_neutraal
 ---------------------------------------
 Structure from the checkpoint file:  "JID_3322.chk"
 Charge =  0 Multiplicity = 1

 SCF Done:  E(RB3LYP) =  -900.995534829     A.U. after   15 cycles
 Normal termination of Gaussian 16 at Wed Dec  9 23:14:51 2020.

 ----------------------------------------------------------------------
 # B3LYP/6-311++G(d,p) empiricaldispersion=gd3bj scf=xqc pop=npa geom=c
 heck
 ----------------------------------------------------------------------

 -------------------------------------
 CID_130956772_JID_3322_Energie_kation
 -------------------------------------
 Structure from the checkpoint file:  "JID_3322.chk"
 Charge =  1 Multiplicity = 2

 SCF Done:  E(UB3LYP) =  -900.720012518     A.U. after   24 cycles
 Normal termination of Gaussian 16 at Wed Dec  9 23:24:11 2020.
 Gaussian 16:  ES64L-G16RevA.03 25-Dec-2016

 ----------------------------------------------------------------------
 # B3LYP/6-311++G(d,p) empiricaldispersion=gd3bj scf=xqc pop=npa geom=c
 heck
 ----------------------------------------------------------------------

 ------------------------------------
 CID_130956772_JID_3322_Energie_anion
 ------------------------------------
 Structure from the checkpoint file:  "JID_3322.chk"
 Charge = -1 Multiplicity = 2

                         Standard orientation:
 ---------------------------------------------------------------------
 Center     Atomic      Atomic             Coordinates (Angstroms)
 Number     Number       Type             X           Y           Z
 ---------------------------------------------------------------------
      1          6           0       -0.611685    1.841275   -1.358206
      2          6           0       -0.169633    1.374875    0.031276
      3          6           0       -1.115390    0.494435    0.843666
      4          6           0       -2.489864    0.967564    1.268463
      5          6           0       -2.346953   -0.297497    0.450587
      6          6           0       -2.926869   -0.320946   -0.951381
      7          6           0       -2.499557   -1.629044    1.165185
      8          7           0        1.202092    0.802527    0.000749
      9          6           0        2.267475    1.791965    0.159007
     10          6           0        1.488980   -0.469692   -0.392710
     11         16           0        0.490884   -1.467477   -1.312027
     12          7           0        2.727954   -0.937132   -0.002168
     13          6           0        3.266658   -0.727246    1.343151
     14          1           0       -0.717314    0.995667   -2.036881
     15          1           0        0.135501    2.528161   -1.771753
     16          1           0       -1.559751    2.384865   -1.298548
     17          1           0       -0.037485    2.276255    0.644817
     18          1           0       -0.556620    0.018693    1.648377
     19          1           0       -2.903171    1.834552    0.756841
     20          1           0       -2.759119    0.908238    2.320766
     21          1           0       -2.967033    0.668979   -1.409217
     22          1           0       -2.341278   -0.975941   -1.603156
     23          1           0       -3.954653   -0.703470   -0.909455
     24          1           0       -1.931748   -2.405502    0.639444
     25          1           0       -2.129443   -1.579222    2.195741
     26          1           0       -3.552497   -1.936144    1.201040
     27          1           0        2.450389    2.043385    1.211386
     28          1           0        3.188881    1.418770   -0.287953
     29          1           0        1.980744    2.708577   -0.366862
     30          1           0        2.887455   -1.859131   -0.386321
     31          1           0        2.465659   -0.471065    2.044955
     32          1           0        3.736930   -1.654588    1.679806
     33          1           0        4.021133    0.066664    1.375101
 ---------------------------------------------------------------------

 SCF Done:  E(UB3LYP) =  -900.985360313     A.U. after   30 cycles

 The electronic state is 2-A.
 Alpha  occ. eigenvalues --  -88.68019 -14.24818 -14.23360 -10.17458 -10.12059
 Alpha  occ. eigenvalues --  -10.09985 -10.09683 -10.08937 -10.07881 -10.07071
 Alpha  occ. eigenvalues --  -10.06392 -10.06284 -10.06247  -7.76840  -5.73248
 Alpha  occ. eigenvalues --   -5.72684  -5.72353  -0.88669  -0.81418  -0.77241
 Alpha  occ. eigenvalues --   -0.67302  -0.65735  -0.62894  -0.59495  -0.59079
 Alpha  occ. eigenvalues --   -0.56579  -0.55678  -0.49908  -0.46694  -0.43091
 Alpha  occ. eigenvalues --   -0.40753  -0.38650  -0.38095  -0.36889  -0.36418
 Alpha  occ. eigenvalues --   -0.35211  -0.34129  -0.33051  -0.32603  -0.31351
 Alpha  occ. eigenvalues --   -0.30224  -0.29079  -0.28963  -0.28111  -0.27837
 Alpha  occ. eigenvalues --   -0.26946  -0.26342  -0.25353  -0.24134  -0.23411
 Alpha  occ. eigenvalues --   -0.18904  -0.17350  -0.14647  -0.11766  -0.10175
 Alpha  occ. eigenvalues --    0.04258
 Alpha virt. eigenvalues --    0.06671   0.07027   0.07746   0.08050   0.08798
 Alpha virt. eigenvalues --    0.09108   0.09673   0.10115   0.10396   0.10975
 Alpha virt. eigenvalues --    0.11720   0.12160   0.12334   0.12684   0.13685

  Beta  occ. eigenvalues --  -88.68017 -14.24809 -14.23354 -10.17431 -10.12049
  Beta  occ. eigenvalues --  -10.09934 -10.09611 -10.08935 -10.07873 -10.07060
  Beta  occ. eigenvalues --  -10.06386 -10.06265 -10.06242  -7.76838  -5.73246
  Beta  occ. eigenvalues --   -5.72677  -5.72352  -0.88634  -0.81389  -0.77229
  Beta  occ. eigenvalues --   -0.67269  -0.65678  -0.62880  -0.59457  -0.59017
  Beta  occ. eigenvalues --   -0.56509  -0.55642  -0.49869  -0.46660  -0.43061
  Beta  occ. eigenvalues --   -0.40708  -0.38597  -0.38013  -0.36846  -0.36390
  Beta  occ. eigenvalues --   -0.35166  -0.34087  -0.33031  -0.32564  -0.31332
  Beta  occ. eigenvalues --   -0.30182  -0.29046  -0.28931  -0.28082  -0.27810
  Beta  occ. eigenvalues --   -0.26916  -0.26304  -0.25327  -0.24073  -0.23375
  Beta  occ. eigenvalues --   -0.18889  -0.17334  -0.14614  -0.11732  -0.10158
  Beta virt. eigenvalues --    0.06534   0.07373   0.07700   0.08090   0.08433
  Beta virt. eigenvalues --    0.09243   0.09482   0.10096   0.10455   0.10625
  Beta virt. eigenvalues --    0.11299   0.11932   0.12560   0.12750   0.13195

 Mulliken charges and spin densities:
               1          2
     1  C    0.457974  -0.944932
     2  C   -1.206715   0.313075
     3  C    0.407441  -0.025544
     4  C   -0.300171  -0.582493
     5  C    0.144376   0.694142
     6  C   -0.501181  -0.074003
     7  C   -0.240499  -0.423212
     8  N    0.352317   0.105238
     9  C    1.597287  -1.880920
    10  C   -0.885001   0.618720
    11  S   -0.362610  -0.203517
    12  N   -0.155072   0.187377
    13  C    1.572356  -1.944364
    14  H    0.106749   0.078020
    15  H   -0.046760   0.174350
    16  H    0.024038   0.095986
    17  H   -0.406032   0.604390
    18  H    0.344517  -0.084901
    19  H    0.057298   0.070407
    20  H   -0.141761   0.298556
    21  H    0.126090  -0.001905
    22  H    0.145024   0.001776
    23  H    0.095817   0.035636
    24  H    0.158132   0.005098
    25  H   -0.043513   0.173480
    26  H    0.079259   0.037620
    27  H   -0.535121   0.740680
    28  H   -0.213540   0.398733
    29  H   -0.188951   0.339090
    30  H    0.174415   0.090244
    31  H   -0.509933   0.680890
    32  H   -0.685090   0.836386
    33  H   -0.421142   0.585896
 Sum of Mulliken charges =  -1.00000   1.00000

 Dipole moment (field-independent basis, Debye):
    X=             -7.2898    Y=             -1.2637    Z=             -3.7372  Tot=              8.2888
 Quadrupole moment (field-independent basis, Debye-Ang):
   XX=           -152.7801   YY=           -135.1508   ZZ=           -135.3231
   XY=             -3.2571   XZ=            -12.4312   YZ=             -4.3711

 Summary of Natural Population Analysis:

                                       Natural Population
                Natural  -----------------------------------------------
    Atom  No    Charge         Core      Valence    Rydberg      Total
 -----------------------------------------------------------------------
      C    1   -0.29475      0.99963     2.28924    0.00588     3.29475
      C    2    0.00348      0.99955     1.98178    0.01519     2.99652
      C    3   -0.10953      0.99952     2.09663    0.01338     3.10953
      C    4   -0.19496      0.99957     2.18652    0.00887     3.19496
      C    5   -0.03806      0.99955     2.02793    0.01058     3.03806
      C    6   -0.28307      0.99962     2.27879    0.00467     3.28307
      C    7   -0.27859      0.99962     2.27427    0.00471     3.27859
      N    8   -0.25917      0.99961     2.74284    0.01672     3.75917
      C    9   -0.17695      0.99962     2.16865    0.00868     3.17695
      C   10    0.16832      0.99958     1.80947    0.02263     2.83168
      S   11   -0.15276      4.99956     3.14072    0.01248     8.15276
      N   12   -0.32408      0.99966     2.81175    0.01267     3.82408
      C   13   -0.18131      0.99963     2.17330    0.00837     3.18131
      H   14    0.11411      0.00000     0.38482    0.00107     0.38589
      H   15    0.10073      0.00000     0.39846    0.00082     0.39927
      H   16    0.09705      0.00000     0.40210    0.00085     0.40295
      H   17    0.09894      0.00000     0.39867    0.00239     0.40106
      H   18    0.10963      0.00000     0.38829    0.00208     0.39037
      H   19    0.09876      0.00000     0.40022    0.00102     0.40124
      H   20    0.10080      0.00000     0.39826    0.00094     0.39920
      H   21    0.09926      0.00000     0.39991    0.00084     0.40074
      H   22    0.10998      0.00000     0.38914    0.00088     0.39002
      H   23    0.09300      0.00000     0.40610    0.00090     0.40700
      H   24    0.10706      0.00000     0.39202    0.00092     0.39294
      H   25    0.09898      0.00000     0.40018    0.00084     0.40102
      H   26    0.09238      0.00000     0.40675    0.00087     0.40762
      H   27    0.10215      0.00000     0.39464    0.00321     0.39785
      H   28    0.10675      0.00000     0.39175    0.00150     0.39325
      H   29    0.09793      0.00000     0.40073    0.00134     0.40207
      H   30    0.19667      0.00000     0.30123    0.00210     0.30333
      H   31    0.09935      0.00000     0.39771    0.00294     0.40065
      H   32    0.10130      0.00000     0.39681    0.00189     0.39870
      H   33    0.09659      0.00000     0.40094    0.00246     0.40341
 =======================================================================
   * Total *   -0.00000     16.99472    37.83060    0.17468    55.00000

 Normal termination of Gaussian 16 at Wed Dec  9 23:35:46 2020.
