 Gaussian 16, Revision A.03,

 -----------------------------------------------------------
 # opt freq B3LYP/6-31G(d) empiricaldispersion=gd3bj scf=xqc
 -----------------------------------------------------------

 -------------------------------
 CID_64462806_JID_10941_neutraal
 -------------------------------
 Symbolic Z-matrix:
 Charge =  0 Multiplicity = 1

 SCF Done:  E(RB3LYP) =  -1167.60517157     A.U. after   15 cycles
 SCF Done:  E(RB3LYP) =  -1167.61151940     A.U. after   12 cycles
 SCF Done:  E(RB3LYP) =  -1167.61246209     A.U. after   12 cycles
 SCF Done:  E(RB3LYP) =  -1167.61319321     A.U. after   12 cycles
 SCF Done:  E(RB3LYP) =  -1167.61424318     A.U. after   12 cycles
 SCF Done:  E(RB3LYP) =  -1167.61373091     A.U. after   15 cycles
 SCF Done:  E(RB3LYP) =  -1167.61506578     A.U. after   12 cycles
 SCF Done:  E(RB3LYP) =  -1167.61564747     A.U. after   11 cycles
 SCF Done:  E(RB3LYP) =  -1167.61593831     A.U. after   11 cycles
 SCF Done:  E(RB3LYP) =  -1167.61625471     A.U. after   12 cycles
 SCF Done:  E(RB3LYP) =  -1167.61710809     A.U. after    9 cycles
 SCF Done:  E(RB3LYP) =  -1167.61710843     A.U. after    8 cycles
 SCF Done:  E(RB3LYP) =  -1167.61710865     A.U. after    8 cycles
 SCF Done:  E(RB3LYP) =  -1167.61710870     A.U. after    7 cycles
 SCF Done:  E(RB3LYP) =  -1167.61710872     A.U. after    6 cycles
 Optimization completed.
    -- Stationary point found.
 Normal termination of Gaussian 16 at Sun Dec 13 14:05:49 2020.

 --------------------------------------------------------------------
 #N Geom=AllCheck Guess=TCheck SCRF=Check GenChk RB3LYP/6-31G(d) Freq
 --------------------------------------------------------------------

 Structure from the checkpoint file:  "JID_10941.chk"
 -------------------------------
 CID_64462806_JID_10941_neutraal
 -------------------------------
 Charge =  0 Multiplicity = 1

 SCF Done:  E(RB3LYP) =  -1167.61710872     A.U. after    1 cycles

  Exact polarizability: 229.663   1.462 188.561  10.821 -15.576 172.703
 Approx polarizability: 354.858   3.663 280.029  32.126 -30.728 303.721

                      1                      2                      3
                      A                      A                      A
 Frequencies --     13.2611                27.3080                29.3539
 Red. masses --      5.2698                 4.1656                 4.5488
 Frc consts  --      0.0005                 0.0018                 0.0023
 IR Inten    --      0.1407                 0.0725                 0.0676

                      4                      5                      6
                      A                      A                      A
 Frequencies --     41.8059                55.4874                62.0053
 Red. masses --      4.4521                 3.6701                 3.3398
 Frc consts  --      0.0046                 0.0067                 0.0076
 IR Inten    --      0.0488                 0.1779                 0.0910

                      7                      8                      9
                      A                      A                      A
 Frequencies --    110.8523               149.3186               181.6658
 Red. masses --      3.4907                 4.0905                 6.0651
 Frc consts  --      0.0253                 0.0537                 0.1179
 IR Inten    --      1.0368                 0.0621                 1.3783

                     10                     11                     12
                      A                      A                      A
 Frequencies --    187.7167               234.0488               237.2300
 Red. masses --      5.1614                 1.3617                 2.0431
 Frc consts  --      0.1072                 0.0439                 0.0677
 IR Inten    --      1.0683                 0.8687                 0.9225

                     13                     14                     15
                      A                      A                      A
 Frequencies --    258.9063               261.1669               277.2267
 Red. masses --      2.2486                 1.7100                 1.7011
 Frc consts  --      0.0888                 0.0687                 0.0770
 IR Inten    --      0.3355                 2.5374                 1.4773

                     16                     17                     18
                      A                      A                      A
 Frequencies --    291.3280               323.2634               366.7926
 Red. masses --      3.7064                 2.3101                 2.3425
 Frc consts  --      0.1853                 0.1422                 0.1857
 IR Inten    --      0.1108                 2.9107                 1.6767

                     19                     20                     21
                      A                      A                      A
 Frequencies --    393.8739               436.2373               439.1485
 Red. masses --      3.3337                 2.9664                 2.2870
 Frc consts  --      0.3047                 0.3326                 0.2599
 IR Inten    --      2.1416                 4.3036                 4.7162

                     22                     23                     24
                      A                      A                      A
 Frequencies --    456.2632               520.1010               525.3940
 Red. masses --      4.7316                 2.7379                 4.0817
 Frc consts  --      0.5803                 0.4364                 0.6638
 IR Inten    --      0.1251                 0.9797                 0.8437

                     25                     26                     27
                      A                      A                      A
 Frequencies --    549.7648               571.1628               581.9130
 Red. masses --      4.9714                 6.0896                 4.3235
 Frc consts  --      0.8853                 1.1705                 0.8626
 IR Inten    --      0.8644                 2.0300                 2.1199

                     28                     29                     30
                      A                      A                      A
 Frequencies --    602.2520               607.9468               640.8890
 Red. masses --      3.3518                 4.6207                 4.1297
 Frc consts  --      0.7163                 1.0062                 0.9994
 IR Inten    --      7.4776                 1.4619                 4.8214

                     31                     32                     33
                      A                      A                      A
 Frequencies --    680.0630               688.0692               690.9487
 Red. masses --      3.2450                 1.2459                 3.7188
 Frc consts  --      0.8842                 0.3475                 1.0460
 IR Inten    --     24.1340                 8.9614                27.6681

                     34                     35                     36
                      A                      A                      A
 Frequencies --    745.0258               755.1357               778.0035
 Red. masses --      2.0571                 1.5468                 2.4176
 Frc consts  --      0.6727                 0.5197                 0.8622
 IR Inten    --     56.1348                70.1199                10.3861

                     37                     38                     39
                      A                      A                      A
 Frequencies --    780.9759               785.8905               801.2479
 Red. masses --      2.5821                 1.7126                 2.1366
 Frc consts  --      0.9279                 0.6232                 0.8082
 IR Inten    --      2.4996                38.7949                 7.6241

                     40                     41                     42
                      A                      A                      A
 Frequencies --    811.6852               838.5843               840.2672
 Red. masses --      2.9539                 1.9063                 4.2407
 Frc consts  --      1.1466                 0.7898                 1.7641
 IR Inten    --     16.7999                30.5222                17.1725

                     43                     44                     45
                      A                      A                      A
 Frequencies --    857.7744               879.7234               886.2555
 Red. masses --      1.6201                 4.2998                 1.2724
 Frc consts  --      0.7023                 1.9606                 0.5889
 IR Inten    --      5.6042                 8.8446                 0.1760

                     46                     47                     48
                      A                      A                      A
 Frequencies --    919.2872               930.6544               937.5923
 Red. masses --      1.3550                 1.2829                 1.9301
 Frc consts  --      0.6747                 0.6547                 0.9997
 IR Inten    --      1.2860                 0.8178                 0.7846

                     49                     50                     51
                      A                      A                      A
 Frequencies --    951.8381               964.2481               967.1951
 Red. masses --      1.4743                 1.2352                 3.4148
 Frc consts  --      0.7870                 0.6767                 1.8821
 IR Inten    --      0.4548                 0.0301                 5.2806

                     52                     53                     54
                      A                      A                      A
 Frequencies --    992.1887              1005.1008              1047.5570
 Red. masses --      2.0063                 1.7076                 2.1337
 Frc consts  --      1.1637                 1.0164                 1.3796
 IR Inten    --      1.7995                 3.8934                 4.8517

                     55                     56                     57
                      A                      A                      A
 Frequencies --   1051.5609              1114.0984              1118.2777
 Red. masses --      4.5356                 4.2431                 1.1115
 Frc consts  --      2.9549                 3.1030                 0.8190
 IR Inten    --     13.4127                43.1603                 6.1226

                     58                     59                     60
                      A                      A                      A
 Frequencies --   1141.8050              1152.7074              1155.1180
 Red. masses --      2.9531                 2.0453                 1.4990
 Frc consts  --      2.2684                 1.6012                 1.1785
 IR Inten    --      5.1477                18.2769                 4.1591

                     61                     62                     63
                      A                      A                      A
 Frequencies --   1172.1841              1186.3476              1194.2796
 Red. masses --      1.4393                 1.7071                 1.1929
 Frc consts  --      1.1652                 1.4156                 1.0025
 IR Inten    --     48.4897                 1.7654                 5.4293

                     64                     65                     66
                      A                      A                      A
 Frequencies --   1209.8453              1217.7610              1240.2465
 Red. masses --      1.9619                 1.5230                 1.8076
 Frc consts  --      1.6920                 1.3307                 1.6382
 IR Inten    --     33.9714                17.3433                 3.1475

                     67                     68                     69
                      A                      A                      A
 Frequencies --   1246.4563              1287.8259              1308.3822
 Red. masses --      1.4409                 1.6266                 1.3675
 Frc consts  --      1.3190                 1.5895                 1.3793
 IR Inten    --      7.8102                 3.4922                 7.7210

                     70                     71                     72
                      A                      A                      A
 Frequencies --   1355.1954              1372.8940              1381.5755
 Red. masses --      1.3797                 1.5973                 2.0384
 Frc consts  --      1.4929                 1.7738                 2.2924
 IR Inten    --      8.3867                36.1463                54.3211

                     73                     74                     75
                      A                      A                      A
 Frequencies --   1385.7320              1393.7193              1405.6565
 Red. masses --      1.5128                 3.3265                 1.6269
 Frc consts  --      1.7116                 3.8070                 1.8940
 IR Inten    --      7.5985                12.1412                19.3463

                     76                     77                     78
                      A                      A                      A
 Frequencies --   1419.1936              1423.1039              1433.5974
 Red. masses --      2.2677                 1.2736                 2.8695
 Frc consts  --      2.6910                 1.5196                 3.4746
 IR Inten    --     16.2232                 1.8552                 2.9454

                     79                     80                     81
                      A                      A                      A
 Frequencies --   1442.5543              1444.1326              1480.2373
 Red. masses --      1.2519                 2.5599                 5.4427
 Frc consts  --      1.5349                 3.1454                 7.0263
 IR Inten    --      9.9969                25.7072                 9.2976

                     82                     83                     84
                      A                      A                      A
 Frequencies --   1494.2706              1504.4495              1511.4726
 Red. masses --      1.1373                 1.7683                 1.1022
 Frc consts  --      1.4962                 2.3581                 1.4836
 IR Inten    --      8.4569                35.5354                14.8260

                     85                     86                     87
                      A                      A                      A
 Frequencies --   1514.9084              1516.6446              1518.2229
 Red. masses --      1.3729                 1.1433                 1.0607
 Frc consts  --      1.8563                 1.5495                 1.4405
 IR Inten    --     18.7872                 6.4062                 1.4534

                     88                     89                     90
                      A                      A                      A
 Frequencies --   1533.4471              1537.3287              1539.4526
 Red. masses --      2.6100                 1.1238                 1.0507
 Frc consts  --      3.6159                 1.5649                 1.4671
 IR Inten    --      7.3716                 8.5546                 9.0237

                     91                     92                     93
                      A                      A                      A
 Frequencies --   1607.5507              1611.7136              1630.9775
 Red. masses --      5.5224                 5.3799                 6.2091
 Frc consts  --      8.4082                 8.2339                 9.7314
 IR Inten    --     26.9238                 0.6248                 0.7136

                     94                     95                     96
                      A                      A                      A
 Frequencies --   1673.7303              3034.2769              3036.9059
 Red. masses --      6.5049                 1.0617                 1.0497
 Frc consts  --     10.7364                 5.7593                 5.7038
 IR Inten    --      8.5918                27.4583                 5.9615

                     97                     98                     99
                      A                      A                      A
 Frequencies --   3040.9596              3044.0018              3047.3582
 Red. masses --      1.0659                 1.0423                 1.0595
 Frc consts  --      5.8073                 5.6903                 5.7969
 IR Inten    --     43.1494                51.4644                36.4022

                    100                    101                    102
                      A                      A                      A
 Frequencies --   3077.7286              3081.9633              3093.5644
 Red. masses --      1.1050                 1.1043                 1.1005
 Frc consts  --      6.1668                 6.1800                 6.2053
 IR Inten    --     19.6293                10.0633                11.2646

                    103                    104                    105
                      A                      A                      A
 Frequencies --   3107.0521              3130.0893              3143.3096
 Red. masses --      1.1014                 1.1014                 1.0978
 Frc consts  --      6.2646                 6.3576                 6.3904
 IR Inten    --     63.0947                28.9463                28.0007

                    106                    107                    108
                      A                      A                      A
 Frequencies --   3179.7289              3190.1360              3201.5870
 Red. masses --      1.0859                 1.0882                 1.0927
 Frc consts  --      6.4685                 6.5247                 6.5990
 IR Inten    --      5.2355                 8.3629                34.6455

                    109                    110                    111
                      A                      A                      A
 Frequencies --   3211.6999              3212.1124              3254.0408
 Red. masses --      1.0910                 1.0966                 1.0962
 Frc consts  --      6.6307                 6.6664                 6.8390
 IR Inten    --      7.4260                22.0537                 1.2742

                    112                    113                    114
                      A                      A                      A
 Frequencies --   3271.9804              3290.5462              3496.1969
 Red. masses --      1.0964                 1.0933                 1.0739
 Frc consts  --      6.9160                 6.9750                 7.7341
 IR Inten    --      1.0866                 6.2788                 0.4484

 - Thermochemistry -
 -------------------
 Temperature   298.150 Kelvin.  Pressure   1.00000 Atm.
 Atom     1 has atomic number  6 and mass  12.00000

 Molecular mass:   284.13472 amu.
 Principal axes and moments of inertia in atomic units:
                           1         2         3
     Eigenvalues --  4648.531757683.671449942.43521
           X            0.99861   0.05101   0.01306
           Y           -0.05093   0.99868  -0.00633
           Z           -0.01337   0.00566   0.99989
 This molecule is an asymmetric top.
 Rotational symmetry number  1.
 Warning -- assumption of classical behavior for rotation
           may cause significant error
 Rotational temperatures (Kelvin)      0.01863     0.01127     0.00871
 Rotational constants (GHZ):           0.38824     0.23488     0.18152
 Zero-point vibrational energy     885493.1 (Joules/Mol)
                                  211.63794 (Kcal/Mol)
 Warning -- explicit consideration of  29 degrees of freedom as
           vibrations may cause significant error
 Vibrational temperatures:     19.08    39.29    42.23    60.15    79.83
          (Kelvin)             89.21   159.49   214.84   261.38   270.08
                              336.74   341.32   372.51   375.76   398.87
                              419.16   465.10   527.73   566.70   627.65
                              631.84   656.46   748.31   755.92   790.99
                              821.78   837.24   866.51   874.70   922.10
                              978.46   989.98   994.12  1071.93  1086.47
                             1119.37  1123.65  1130.72  1152.82  1167.83
                             1206.54  1208.96  1234.15  1265.73  1275.12
                             1322.65  1339.00  1348.99  1369.48  1387.34
                             1391.58  1427.54  1446.12  1507.20  1512.96
                             1602.94  1608.95  1642.80  1658.49  1661.96
                             1686.51  1706.89  1718.30  1740.70  1752.09
                             1784.44  1793.37  1852.89  1882.47  1949.82
                             1975.29  1987.78  1993.76  2005.25  2022.43
                             2041.90  2047.53  2062.63  2075.51  2077.78
                             2129.73  2149.92  2164.57  2174.67  2179.62
                             2182.11  2184.38  2206.29  2211.87  2214.93
                             2312.91  2318.90  2346.61  2408.12  4365.65
                             4369.43  4375.26  4379.64  4384.47  4428.16
                             4434.26  4450.95  4470.36  4503.50  4522.52
                             4574.92  4589.89  4606.37  4620.92  4621.51
                             4681.84  4707.65  4734.36  5030.25

 Zero-point correction=                           0.337267 (Hartree/Particle)
 Thermal correction to Energy=                    0.355945
 Thermal correction to Enthalpy=                  0.356890
 Thermal correction to Gibbs Free Energy=         0.287404
 Sum of electronic and zero-point Energies=          -1167.279842
 Sum of electronic and thermal Energies=             -1167.261163
 Sum of electronic and thermal Enthalpies=           -1167.260219
 Sum of electronic and thermal Free Energies=        -1167.329704

                     E (Thermal)             CV                S
                      KCal/Mol        Cal/Mol-Kelvin    Cal/Mol-Kelvin
 Total                  223.359             72.552            146.244
 Electronic               0.000              0.000              0.000
 Translational            0.889              2.981             42.831
 Rotational               0.889              2.981             34.228
 Vibrational            221.582             66.591             69.184
 Vibration     1          0.593              1.987              7.450
 Vibration     2          0.593              1.984              6.016
 Vibration     3          0.593              1.984              5.873
 Vibration     4          0.594              1.980              5.172
 Vibration     5          0.596              1.975              4.612
 Vibration     6          0.597              1.972              4.392
 Vibration     7          0.607              1.940              3.254
 Vibration     8          0.618              1.903              2.681
 Vibration     9          0.630              1.865              2.311
 Vibration    10          0.632              1.857              2.250
 Vibration    11          0.654              1.789              1.848
 Vibration    12          0.656              1.784              1.824
 Vibration    13          0.668              1.748              1.669
 Vibration    14          0.669              1.744              1.654
 Vibration    15          0.678              1.716              1.551
 Vibration    16          0.687              1.690              1.466
 Vibration    17          0.708              1.629              1.294
 Vibration    18          0.740              1.541              1.093
 Vibration    19          0.761              1.483              0.985
 Vibration    20          0.797              1.391              0.839
 Vibration    21          0.799              1.385              0.829
 Vibration    22          0.814              1.347              0.777
 Vibration    23          0.875              1.205              0.610
 Vibration    24          0.880              1.194              0.598
 Vibration    25          0.905              1.140              0.545
 Vibration    26          0.927              1.094              0.502
 Vibration    27          0.939              1.070              0.482
 Vibration    28          0.961              1.027              0.446
 Vibration    29          0.967              1.015              0.436

 Optimization completed.
    -- Stationary point found.
 Normal termination of Gaussian 16 at Sun Dec 13 14:28:01 2020.

 ----------------------------------------------------------------------
 # B3LYP/6-311++G(d,p) empiricaldispersion=gd3bj scf=xqc pop=npa geom=c
 heck
 ----------------------------------------------------------------------

 ---------------------------------------
 CID_64462806_JID_10941_Energie_neutraal
 ---------------------------------------
 Structure from the checkpoint file:  "JID_10941.chk"
 Charge =  0 Multiplicity = 1

 SCF Done:  E(RB3LYP) =  -1167.84546838     A.U. after   16 cycles
 Normal termination of Gaussian 16 at Sun Dec 13 14:39:00 2020.

 ----------------------------------------------------------------------
 # B3LYP/6-311++G(d,p) empiricaldispersion=gd3bj scf=xqc pop=npa geom=c
 heck
 ----------------------------------------------------------------------

 -------------------------------------
 CID_64462806_JID_10941_Energie_kation
 -------------------------------------
 Structure from the checkpoint file:  "JID_10941.chk"
 Charge =  1 Multiplicity = 2

 SCF Done:  E(UB3LYP) =  -1167.58023750     A.U. after   29 cycles
 Normal termination of Gaussian 16 at Sun Dec 13 15:07:00 2020.
 Gaussian 16:  ES64L-G16RevA.03 25-Dec-2016

 ----------------------------------------------------------------------
 # B3LYP/6-311++G(d,p) empiricaldispersion=gd3bj scf=xqc pop=npa geom=c
 heck
 ----------------------------------------------------------------------

 ------------------------------------
 CID_64462806_JID_10941_Energie_anion
 ------------------------------------
 Structure from the checkpoint file:  "JID_10941.chk"
 Charge = -1 Multiplicity = 2

                         Standard orientation:
 ---------------------------------------------------------------------
 Center     Atomic      Atomic             Coordinates (Angstroms)
 Number     Number       Type             X           Y           Z
 ---------------------------------------------------------------------
      1          6           0       -3.379845   -3.440219   -0.402294
      2          6           0       -2.585823   -2.159033   -0.126470
      3          6           0       -1.709908   -1.784691   -1.331068
      4          7           0       -3.514883   -1.085392    0.270079
      5          6           0       -3.053032   -0.212131    1.358572
      6          6           0       -1.722235    0.462181    1.163836
      7          6           0       -0.547861    0.168073    1.808780
      8          7           0        0.486768    0.958318    1.327475
      9          6           0       -0.013592    1.760662    0.315135
     10          6           0        0.637178    2.683546   -0.508346
     11          6           0       -0.133305    3.356950   -1.450055
     12          6           0       -1.516231    3.114799   -1.573070
     13          6           0       -2.155778    2.186745   -0.760507
     14          6           0       -1.405231    1.488070    0.198746
     15          6           0        1.886378    0.805139    1.662208
     16          6           0        2.641376   -0.096150    0.711742
     17          6           0        2.058313   -0.826530   -0.287485
     18         16           0        3.222615   -1.757071   -1.173385
     19          6           0        4.517659   -1.157359   -0.184854
     20          6           0        4.061165   -0.289382    0.766394
     21          1           0       -4.068664   -3.288778   -1.242540
     22          1           0       -3.976777   -3.714688    0.472601
     23          1           0       -2.715270   -4.275557   -0.655294
     24          1           0       -1.925561   -2.340363    0.732185
     25          1           0       -2.334242   -1.629632   -2.221435
     26          1           0       -1.157996   -0.859219   -1.147944
     27          1           0       -0.995434   -2.582579   -1.567352
     28          1           0       -3.742636   -0.520121   -0.545260
     29          1           0       -3.838120    0.538670    1.514176
     30          1           0       -3.016927   -0.814865    2.274589
     31          1           0       -0.354325   -0.549743    2.595014
     32          1           0        1.705729    2.858577   -0.429579
     33          1           0        0.341971    4.079044   -2.107605
     34          1           0       -2.086506    3.659543   -2.319932
     35          1           0       -3.222135    2.004646   -0.866520
     36          1           0        2.348620    1.799613    1.688180
     37          1           0        1.942547    0.413613    2.684877
     38          1           0        1.012383   -0.864052   -0.554500
     39          1           0        5.534673   -1.477167   -0.366145
     40          1           0        4.708260    0.201693    1.486158
 ---------------------------------------------------------------------

 SCF Done:  E(UB3LYP) =  -1167.83448699     A.U. after   33 cycles
 SCF Done:  E(UB3LYP) =  -1167.83448699     a.u. after    1 cycles

 The electronic state is 2-A.
 Alpha  occ. eigenvalues --  -88.78827 -14.26274 -14.20620 -10.12737 -10.11298
 Alpha  occ. eigenvalues --  -10.11047 -10.10781 -10.10724 -10.10558 -10.10230
 Alpha  occ. eigenvalues --  -10.09615 -10.08659 -10.07661 -10.07654 -10.07498
 Alpha  occ. eigenvalues --  -10.07444 -10.07415 -10.07359 -10.07287 -10.06720
 Alpha  occ. eigenvalues --   -7.87438  -5.83720  -5.83355  -5.83049  -0.89468
 Alpha  occ. eigenvalues --   -0.81809  -0.79447  -0.75341  -0.71674  -0.68589
 Alpha  occ. eigenvalues --   -0.66621  -0.64498  -0.63751  -0.62978  -0.60184
 Alpha  occ. eigenvalues --   -0.59873  -0.55935  -0.52517  -0.50372  -0.49070
 Alpha  occ. eigenvalues --   -0.47968  -0.47044  -0.45535  -0.43059  -0.40446
 Alpha  occ. eigenvalues --   -0.39823  -0.39038  -0.38369  -0.37589  -0.35569
 Alpha  occ. eigenvalues --   -0.35175  -0.34152  -0.33820  -0.33201  -0.32624
 Alpha  occ. eigenvalues --   -0.31544  -0.31145  -0.30555  -0.30259  -0.29941
 Alpha  occ. eigenvalues --   -0.29546  -0.28811  -0.28117  -0.27360  -0.26194
 Alpha  occ. eigenvalues --   -0.26031  -0.25448  -0.25004  -0.24237  -0.23746
 Alpha  occ. eigenvalues --   -0.18399  -0.16223  -0.15073  -0.13926  -0.13226
 Alpha  occ. eigenvalues --   -0.11298   0.04120
 Alpha virt. eigenvalues --    0.05926   0.06231   0.06641   0.06814   0.07043
 Alpha virt. eigenvalues --    0.07473   0.07928   0.08359   0.08909   0.09329
 Alpha virt. eigenvalues --    0.09853   0.10116   0.10437   0.10577   0.10929

  Beta  occ. eigenvalues --  -88.78826 -14.26266 -14.20619 -10.12701 -10.11296
  Beta  occ. eigenvalues --  -10.11036 -10.10791 -10.10716 -10.10552 -10.10147
  Beta  occ. eigenvalues --  -10.09617 -10.08635 -10.07609 -10.07591 -10.07482
  Beta  occ. eigenvalues --  -10.07429 -10.07398 -10.07350 -10.07282 -10.06713
  Beta  occ. eigenvalues --   -7.87437  -5.83719  -5.83354  -5.83048  -0.89425
  Beta  occ. eigenvalues --   -0.81803  -0.79430  -0.75275  -0.71608  -0.68574
  Beta  occ. eigenvalues --   -0.66565  -0.64451  -0.63714  -0.62881  -0.60171
  Beta  occ. eigenvalues --   -0.59829  -0.55889  -0.52388  -0.50353  -0.49028
  Beta  occ. eigenvalues --   -0.47938  -0.46989  -0.45490  -0.43017  -0.40370
  Beta  occ. eigenvalues --   -0.39769  -0.38998  -0.38317  -0.37565  -0.35523
  Beta  occ. eigenvalues --   -0.35126  -0.34105  -0.33802  -0.33167  -0.32592
  Beta  occ. eigenvalues --   -0.31501  -0.31116  -0.30534  -0.30221  -0.29906
  Beta  occ. eigenvalues --   -0.29494  -0.28771  -0.28096  -0.27342  -0.26170
  Beta  occ. eigenvalues --   -0.26003  -0.25419  -0.24992  -0.24199  -0.23555
  Beta  occ. eigenvalues --   -0.18177  -0.16210  -0.15040  -0.13893  -0.13049
  Beta  occ. eigenvalues --   -0.11055
  Beta virt. eigenvalues --    0.05907   0.06684   0.06764   0.06852   0.06932
  Beta virt. eigenvalues --    0.07596   0.07755   0.08273   0.08572   0.09100
  Beta virt. eigenvalues --    0.09614   0.10122   0.10142   0.10645   0.10755

 Mulliken charges and spin densities:
               1          2
     1  C    0.029442  -0.443660
     2  C   -0.770286   0.472044
     3  C   -0.187021  -0.255800
     4  N    0.119497   0.023542
     5  C   -0.193461  -0.613262
     6  C    0.240976   0.399608
     7  C    0.164521  -0.362746
     8  N    0.212756   0.106691
     9  C    0.099997  -0.008159
    10  C   -0.470116   0.155182
    11  C    0.143840  -0.533733
    12  C   -0.344994  -0.140100
    13  C   -0.459418   0.258352
    14  C    0.446971  -0.111344
    15  C    1.702006  -2.734922
    16  C    0.134765   0.007187
    17  C   -0.489045   1.064258
    18  S   -0.183119  -0.136684
    19  C    0.805263  -1.232611
    20  C   -0.555604   0.557064
    21  H    0.065896   0.060875
    22  H    0.040020   0.108092
    23  H    0.051025   0.064754
    24  H    0.094137   0.040640
    25  H    0.126413   0.010134
    26  H    0.119414  -0.023561
    27  H    0.050674   0.070780
    28  H    0.202534  -0.007305
    29  H    0.051478   0.122405
    30  H   -0.026462   0.188850
    31  H   -0.300331   0.460425
    32  H   -0.002939   0.148077
    33  H    0.030751   0.123111
    34  H    0.097359   0.044446
    35  H   -0.038475   0.158117
    36  H   -0.256151   0.446313
    37  H   -0.432446   0.636828
    38  H    0.268536  -0.165535
    39  H   -0.426773   0.679739
    40  H   -1.161630   1.361907
 Sum of Mulliken charges =  -1.00000   1.00000

 Dipole moment (field-independent basis, Debye):
    X=             -5.8294    Y=             -1.6172    Z=             -5.4247  Tot=              8.1256
 Quadrupole moment (field-independent basis, Debye-Ang):
   XX=           -218.8835   YY=           -172.5907   ZZ=           -172.8666
   XY=             -5.4368   XZ=            -11.2311   YZ=             -1.4444

 Summary of Natural Population Analysis:

                                       Natural Population
                Natural  -----------------------------------------------
    Atom  No    Charge         Core      Valence    Rydberg      Total
 -----------------------------------------------------------------------
      C    1   -0.28255      0.99965     2.27761    0.00529     3.28255
      C    2   -0.01836      0.99962     2.00734    0.01140     3.01836
      C    3   -0.29288      0.99964     2.28829    0.00495     3.29288
      N    4   -0.34221      0.99975     2.83075    0.01171     3.84221
      C    5   -0.09215      0.99958     2.08048    0.01209     3.09215
      C    6   -0.06925      0.99948     2.05945    0.01032     3.06925
      C    7    0.02619      0.99947     1.96237    0.01197     2.97381
      N    8   -0.21165      0.99963     2.69949    0.01253     3.71165
      C    9    0.08408      0.99947     1.90495    0.01150     2.91592
      C   10   -0.10906      0.99952     2.10056    0.00899     3.10906
      C   11   -0.10127      0.99958     2.09232    0.00937     3.10127
      C   12   -0.12024      0.99958     2.11087    0.00979     3.12024
      C   13   -0.08830      0.99953     2.08083    0.00794     3.08830
      C   14   -0.04561      0.99946     2.03572    0.01043     3.04561
      C   15   -0.08518      0.99956     2.07223    0.01338     3.08518
      C   16   -0.04948      0.99946     2.03732    0.01269     3.04948
      C   17   -0.19353      0.99945     2.18286    0.01122     3.19353
      S   18    0.19944      4.99945     2.78016    0.02095     7.80056
      C   19   -0.19044      0.99954     2.17864    0.01225     3.19044
      C   20   -0.12034      0.99948     2.10915    0.01170     3.12034
      H   21    0.09438      0.00000     0.40461    0.00101     0.40562
      H   22    0.10133      0.00000     0.39743    0.00124     0.39867
      H   23    0.09425      0.00000     0.40491    0.00084     0.40575
      H   24    0.09119      0.00000     0.40688    0.00194     0.40881
      H   25    0.09304      0.00000     0.40607    0.00089     0.40696
      H   26    0.10700      0.00000     0.39175    0.00125     0.39300
      H   27    0.09802      0.00000     0.40107    0.00091     0.40198
      H   28    0.16970      0.00000     0.32762    0.00268     0.33030
      H   29    0.09750      0.00000     0.40143    0.00107     0.40250
      H   30    0.09533      0.00000     0.40346    0.00121     0.40467
      H   31    0.10232      0.00000     0.39633    0.00136     0.39768
      H   32    0.10569      0.00000     0.39319    0.00112     0.39431
      H   33    0.09746      0.00000     0.40180    0.00074     0.40254
      H   34    0.09665      0.00000     0.40258    0.00077     0.40335
      H   35    0.09558      0.00000     0.40304    0.00139     0.40442
      H   36    0.10907      0.00000     0.38901    0.00192     0.39093
      H   37    0.11255      0.00000     0.38477    0.00268     0.38745
      H   38    0.11719      0.00000     0.38157    0.00124     0.38281
      H   39    0.11118      0.00000     0.38759    0.00123     0.38882
      H   40    0.11337      0.00000     0.38226    0.00437     0.38663
 =======================================================================
   * Total *   -0.00000     23.99090    51.75876    0.25034    76.00000

 Normal termination of Gaussian 16 at Sun Dec 13 15:39:36 2020.
