 Gaussian 16, Revision A.03,

 -----------------------------------------------------------
 # opt freq B3LYP/6-31G(d) empiricaldispersion=gd3bj scf=xqc
 -----------------------------------------------------------

 ------------------------------
 CID_81940128_JID_9894_neutraal
 ------------------------------
 Symbolic Z-matrix:
 Charge =  0 Multiplicity = 1

 SCF Done:  E(RB3LYP) =  -844.901018312     A.U. after   15 cycles
 SCF Done:  E(RB3LYP) =  -844.905982334     A.U. after   12 cycles
 SCF Done:  E(RB3LYP) =  -844.906432002     A.U. after   11 cycles
 SCF Done:  E(RB3LYP) =  -844.906468096     A.U. after   12 cycles
 SCF Done:  E(RB3LYP) =  -844.906738813     A.U. after   11 cycles
 SCF Done:  E(RB3LYP) =  -844.906829692     A.U. after   11 cycles
 SCF Done:  E(RB3LYP) =  -844.906912747     A.U. after   11 cycles
 SCF Done:  E(RB3LYP) =  -844.906965334     A.U. after   11 cycles
 SCF Done:  E(RB3LYP) =  -844.907031079     A.U. after   11 cycles
 SCF Done:  E(RB3LYP) =  -844.907104293     A.U. after   12 cycles
 SCF Done:  E(RB3LYP) =  -844.907126833     A.U. after   11 cycles
 SCF Done:  E(RB3LYP) =  -844.907137380     A.U. after    9 cycles
 SCF Done:  E(RB3LYP) =  -844.907138765     A.U. after    8 cycles
 SCF Done:  E(RB3LYP) =  -844.907139084     A.U. after    8 cycles
 SCF Done:  E(RB3LYP) =  -844.907139191     A.U. after    7 cycles
 SCF Done:  E(RB3LYP) =  -844.907139276     A.U. after    7 cycles
 Optimization completed.
    -- Stationary point found.
 Normal termination of Gaussian 16 at Mon Dec 14 13:34:30 2020.

 --------------------------------------------------------------------
 #N Geom=AllCheck Guess=TCheck SCRF=Check GenChk RB3LYP/6-31G(d) Freq
 --------------------------------------------------------------------

 Structure from the checkpoint file:  "JID_9894.chk"
 ------------------------------
 CID_81940128_JID_9894_neutraal
 ------------------------------
 Charge =  0 Multiplicity = 1

 SCF Done:  E(RB3LYP) =  -844.907139276     A.U. after    1 cycles

  Exact polarizability: 219.441  -0.528 158.440   0.657  -0.922 128.318
 Approx polarizability: 262.412  -4.780 248.846   2.839  -1.122 206.318

                      1                      2                      3
                      A                      A                      A
 Frequencies --     28.6767                34.6483                58.7591
 Red. masses --     11.2160                 4.0401                 3.0471
 Frc consts  --      0.0054                 0.0029                 0.0062
 IR Inten    --      1.1562                 0.1515                 0.7262

                      4                      5                      6
                      A                      A                      A
 Frequencies --     73.9202                82.5033                94.1247
 Red. masses --      2.1885                 2.2878                 4.6788
 Frc consts  --      0.0070                 0.0092                 0.0244
 IR Inten    --      0.0039                 0.0496                 0.1133

                      7                      8                      9
                      A                      A                      A
 Frequencies --    118.5500               145.3758               163.5136
 Red. masses --      1.1484                 2.5255                 3.5234
 Frc consts  --      0.0095                 0.0314                 0.0555
 IR Inten    --      0.0592                 1.0490                 0.6466

                     10                     11                     12
                      A                      A                      A
 Frequencies --    173.8113               196.1621               222.9111
 Red. masses --      3.3323                 2.4308                 2.3595
 Frc consts  --      0.0593                 0.0551                 0.0691
 IR Inten    --      0.9430                 0.9158                 0.5011

                     13                     14                     15
                      A                      A                      A
 Frequencies --    233.6778               258.8580               270.1450
 Red. masses --      1.3904                 2.8182                 3.8273
 Frc consts  --      0.0447                 0.1113                 0.1646
 IR Inten    --      0.7060                 1.4187                 1.0573

                     16                     17                     18
                      A                      A                      A
 Frequencies --    272.6436               283.4374               321.5869
 Red. masses --      2.8538                 2.8727                 2.6499
 Frc consts  --      0.1250                 0.1360                 0.1615
 IR Inten    --      0.8926                 0.8254                 2.9280

                     19                     20                     21
                      A                      A                      A
 Frequencies --    361.3949               374.3891               387.0897
 Red. masses --      3.0230                 3.6632                 2.6372
 Frc consts  --      0.2326                 0.3025                 0.2328
 IR Inten    --      0.3260                 1.4335                 0.6149

                     22                     23                     24
                      A                      A                      A
 Frequencies --    444.9498               482.3838               533.8207
 Red. masses --      3.1843                 3.6784                 3.6305
 Frc consts  --      0.3714                 0.5043                 0.6095
 IR Inten    --      1.7442                 2.3757                 3.7645

                     25                     26                     27
                      A                      A                      A
 Frequencies --    574.5508               609.5868               625.9751
 Red. masses --      3.3591                 4.0841                 1.3205
 Frc consts  --      0.6533                 0.8942                 0.3049
 IR Inten    --      7.7897                32.4728                79.5911

                     28                     29                     30
                      A                      A                      A
 Frequencies --    641.9296               667.1273               668.7530
 Red. masses --      2.6094                 3.2778                 4.4532
 Frc consts  --      0.6335                 0.8595                 1.1734
 IR Inten    --      0.7045                 9.2105                21.1644

                     31                     32                     33
                      A                      A                      A
 Frequencies --    697.8015               736.1182               742.2661
 Red. masses --      2.3217                 3.2758                 8.0625
 Frc consts  --      0.6661                 1.0458                 2.6172
 IR Inten    --      8.5984                 4.7068                 1.4204

                     34                     35                     36
                      A                      A                      A
 Frequencies --    770.4255               801.2588               818.3949
 Red. masses --      4.1747                 2.5828                 2.0648
 Frc consts  --      1.4600                 0.9770                 0.8148
 IR Inten    --     13.9078                14.3404                 3.6706

                     37                     38                     39
                      A                      A                      A
 Frequencies --    828.2569               835.4074               901.9994
 Red. masses --      1.6594                 2.0114                 2.8328
 Frc consts  --      0.6707                 0.8271                 1.3579
 IR Inten    --      0.2763                 3.2077                 0.2956

                     40                     41                     42
                      A                      A                      A
 Frequencies --    904.2413               906.5585               935.3601
 Red. masses --      2.5309                 2.3289                 1.9654
 Frc consts  --      1.2192                 1.1277                 1.0131
 IR Inten    --      4.1308                 1.5088                 2.8878

                     43                     44                     45
                      A                      A                      A
 Frequencies --    940.3636               953.8570               962.1999
 Red. masses --      1.9177                 1.9737                 2.1039
 Frc consts  --      0.9991                 1.0581                 1.1476
 IR Inten    --     12.5873                 2.6739                 5.8887

                     46                     47                     48
                      A                      A                      A
 Frequencies --    996.7672              1008.9779              1038.1021
 Red. masses --      1.6771                 2.4039                 1.7256
 Frc consts  --      0.9818                 1.4419                 1.0956
 IR Inten    --      2.0109                 2.4079                 0.3916

                     49                     50                     51
                      A                      A                      A
 Frequencies --   1062.9249              1069.1975              1079.0820
 Red. masses --      2.1356                 1.8011                 2.6320
 Frc consts  --      1.4216                 1.2131                 1.8057
 IR Inten    --      1.7723                 3.4286                20.1469

                     52                     53                     54
                      A                      A                      A
 Frequencies --   1094.4588              1107.9549              1126.1575
 Red. masses --      2.8793                 2.0860                 2.0574
 Frc consts  --      2.0320                 1.5087                 1.5373
 IR Inten    --      4.4900                 5.8869                18.4297

                     55                     56                     57
                      A                      A                      A
 Frequencies --   1155.0684              1173.2629              1184.9939
 Red. masses --      1.3181                 1.2019                 1.9650
 Frc consts  --      1.0362                 0.9748                 1.6257
 IR Inten    --      4.4069                 6.7499                38.2386

                     58                     59                     60
                      A                      A                      A
 Frequencies --   1193.6368              1203.2783              1225.3960
 Red. masses --      2.0435                 1.9826                 1.9926
 Frc consts  --      1.7154                 1.6913                 1.7629
 IR Inten    --    111.4246                28.9733                 1.9110

                     61                     62                     63
                      A                      A                      A
 Frequencies --   1248.0745              1252.3808              1268.1070
 Red. masses --      1.3942                 1.4469                 1.4670
 Frc consts  --      1.2795                 1.3371                 1.3899
 IR Inten    --     27.1679                 2.0068                 5.5697

                     64                     65                     66
                      A                      A                      A
 Frequencies --   1273.9756              1277.4231              1283.4625
 Red. masses --      1.7131                 1.6222                 1.4456
 Frc consts  --      1.6382                 1.5596                 1.4030
 IR Inten    --     31.5204                 1.3250                 0.8087

                     67                     68                     69
                      A                      A                      A
 Frequencies --   1288.3394              1327.1676              1329.9423
 Red. masses --      1.5154                 1.3104                 1.3312
 Frc consts  --      1.4820                 1.3599                 1.3873
 IR Inten    --      7.7701                 0.3873                 0.7156

                     70                     71                     72
                      A                      A                      A
 Frequencies --   1348.8349              1355.7569              1364.0322
 Red. masses --      1.2969                 1.3956                 1.6215
 Frc consts  --      1.3902                 1.5114                 1.7776
 IR Inten    --      4.8462                 0.8391                 0.6514

                     73                     74                     75
                      A                      A                      A
 Frequencies --   1370.2023              1376.9006              1377.1833
 Red. masses --      1.8637                 1.8020                 2.3508
 Frc consts  --      2.0616                 2.0129                 2.6269
 IR Inten    --      7.1785                20.9391                44.7116

                     76                     77                     78
                      A                      A                      A
 Frequencies --   1389.7509              1411.6491              1416.4519
 Red. masses --      1.5156                 3.6631                 2.1576
 Frc consts  --      1.7247                 4.3009                 2.5505
 IR Inten    --      3.5280                46.2345                 3.9494

                     79                     80                     81
                      A                      A                      A
 Frequencies --   1436.1514              1463.9895              1499.1938
 Red. masses --      1.2681                 2.8152                 1.4054
 Frc consts  --      1.5410                 3.5550                 1.8610
 IR Inten    --      4.8202                18.8999                11.1811

                     82                     83                     84
                      A                      A                      A
 Frequencies --   1512.6906              1513.0919              1516.5442
 Red. masses --      1.1058                 1.0952                 1.1146
 Frc consts  --      1.4908                 1.4773                 1.5103
 IR Inten    --      3.6695                 3.4117                 3.3042

                     85                     86                     87
                      A                      A                      A
 Frequencies --   1518.9401              1520.4849              1524.3099
 Red. masses --      1.1473                 1.1733                 1.0881
 Frc consts  --      1.5595                 1.5982                 1.4896
 IR Inten    --      7.4880                 1.5398                 6.1653

                     88                     89                     90
                      A                      A                      A
 Frequencies --   1528.1164              1530.6358              1534.9057
 Red. masses --      1.3363                 1.1270                 1.0801
 Frc consts  --      1.8385                 1.5556                 1.4993
 IR Inten    --     11.1442                 5.9610                 0.9790

                     91                     92                     93
                      A                      A                      A
 Frequencies --   1540.4873              1551.3592              1554.5810
 Red. masses --      1.0960                 1.5219                 1.3498
 Frc consts  --      1.5324                 2.1580                 1.9220
 IR Inten    --      0.6160                 4.3213                 8.1198

                     94                     95                     96
                      A                      A                      A
 Frequencies --   1652.0814              1847.0847              3003.8773
 Red. masses --      7.6768                 9.4949                 1.0672
 Frc consts  --     12.3450                19.0860                 5.6738
 IR Inten    --      9.9008               327.1226                42.3691

                     97                     98                     99
                      A                      A                      A
 Frequencies --   3044.2821              3047.8401              3052.5827
 Red. masses --      1.0913                 1.0617                 1.0567
 Frc consts  --      5.9588                 5.8110                 5.8013
 IR Inten    --     17.3695                24.5698                31.4662

                    100                    101                    102
                      A                      A                      A
 Frequencies --   3054.7362              3059.9522              3064.1611
 Red. masses --      1.0418                 1.0640                 1.0499
 Frc consts  --      5.7277                 5.8700                 5.8078
 IR Inten    --     12.3833                28.7366                27.6754

                    103                    104                    105
                      A                      A                      A
 Frequencies --   3065.3560              3071.8425              3078.5142
 Red. masses --      1.0563                 1.0634                 1.0906
 Frc consts  --      5.8477                 5.9124                 6.0897
 IR Inten    --     52.5810                59.1245                 3.5287

                    106                    107                    108
                      A                      A                      A
 Frequencies --   3084.0757              3091.8453              3091.9240
 Red. masses --      1.0715                 1.0973                 1.0932
 Frc consts  --      6.0046                 6.1802                 6.1573
 IR Inten    --      3.1446                12.6548                30.9403

                    109                    110                    111
                      A                      A                      A
 Frequencies --   3105.7222              3110.8501              3115.6953
 Red. masses --      1.0977                 1.1027                 1.1038
 Frc consts  --      6.2382                 6.2875                 6.3131
 IR Inten    --     10.5846                32.8176                64.5237

                    112                    113                    114
                      A                      A                      A
 Frequencies --   3117.8760              3129.7289              3131.9447
 Red. masses --      1.1017                 1.1034                 1.1046
 Frc consts  --      6.3102                 6.3677                 6.3841
 IR Inten    --     31.7973                30.4056                42.4204

                    115                    116                    117
                      A                      A                      A
 Frequencies --   3137.6946              3171.3046              3686.7337
 Red. masses --      1.0954                 1.1030                 1.0640
 Frc consts  --      6.3538                 6.5358                 8.5209
 IR Inten    --     19.1800                14.6876                51.9938

 - Thermochemistry -
 -------------------
 Temperature   298.150 Kelvin.  Pressure   1.00000 Atm.
 Atom     1 has atomic number  6 and mass  12.00000

 Molecular mass:   262.16813 amu.
 Principal axes and moments of inertia in atomic units:
                           1         2         3
     Eigenvalues --  1851.71751********************
           X            0.99998   0.00632  -0.00315
           Y           -0.00631   0.99998   0.00208
           Z            0.00317  -0.00206   0.99999
 This molecule is an asymmetric top.
 Rotational symmetry number  1.
 Warning -- assumption of classical behavior for rotation
           may cause significant error
 Rotational temperatures (Kelvin)      0.04677     0.00816     0.00751
 Rotational constants (GHZ):           0.97463     0.16993     0.15639
 Zero-point vibrational energy     942548.8 (Joules/Mol)
                                  225.27456 (Kcal/Mol)
 Warning -- explicit consideration of  26 degrees of freedom as
           vibrations may cause significant error
 Vibrational temperatures:     41.26    49.85    84.54   106.35   118.70
          (Kelvin)            135.42   170.57   209.16   235.26   250.08
                              282.23   320.72   336.21   372.44   388.68
                              392.27   407.80   462.69   519.97   538.66
                              556.94   640.18   694.04   768.05   826.65
                              877.06   900.64   923.59   959.85   962.19
                             1003.98  1059.11  1067.96  1108.47  1152.83
                             1177.49  1191.68  1201.96  1297.78  1301.00
                             1304.34  1345.77  1352.97  1372.39  1384.39
                             1434.13  1451.69  1493.60  1529.31  1538.34
                             1552.56  1574.68  1594.10  1620.29  1661.89
                             1688.06  1704.94  1717.38  1731.25  1763.07
                             1795.70  1801.90  1824.52  1832.97  1837.93
                             1846.62  1853.63  1909.50  1913.49  1940.67
                             1950.63  1962.54  1971.42  1981.05  1981.46
                             1999.54  2031.05  2037.96  2066.30  2106.35
                             2157.01  2176.42  2177.00  2181.97  2185.42
                             2187.64  2193.14  2198.62  2202.24  2208.39
                             2216.42  2232.06  2236.70  2376.98  2657.54
                             4321.91  4380.04  4385.16  4391.99  4395.08
                             4402.59  4408.64  4410.36  4419.70  4429.30
                             4437.30  4448.48  4448.59  4468.44  4475.82
                             4482.79  4485.93  4502.98  4506.17  4514.44
                             4562.80  5304.39

 Zero-point correction=                           0.358998 (Hartree/Particle)
 Thermal correction to Energy=                    0.377322
 Thermal correction to Enthalpy=                  0.378266
 Thermal correction to Gibbs Free Energy=         0.311704
 Sum of electronic and zero-point Energies=           -844.548141
 Sum of electronic and thermal Energies=              -844.529818
 Sum of electronic and thermal Enthalpies=            -844.528873
 Sum of electronic and thermal Free Energies=         -844.595435

                     E (Thermal)             CV                S
                      KCal/Mol        Cal/Mol-Kelvin    Cal/Mol-Kelvin
 Total                  236.773             69.996            140.092
 Electronic               0.000              0.000              0.000
 Translational            0.889              2.981             42.591
 Rotational               0.889              2.981             33.784
 Vibrational            234.995             64.034             63.717
 Vibration     1          0.593              1.984              5.919
 Vibration     2          0.594              1.983              5.544
 Vibration     3          0.596              1.974              4.498
 Vibration     4          0.599              1.966              4.046
 Vibration     5          0.600              1.961              3.830
 Vibration     6          0.603              1.953              3.572
 Vibration     7          0.609              1.934              3.124
 Vibration     8          0.617              1.908              2.732
 Vibration     9          0.623              1.887              2.509
 Vibration    10          0.627              1.875              2.394
 Vibration    11          0.636              1.845              2.169
 Vibration    12          0.649              1.806              1.935
 Vibration    13          0.654              1.789              1.851
 Vibration    14          0.668              1.748              1.669
 Vibration    15          0.674              1.728              1.595
 Vibration    16          0.676              1.724              1.579
 Vibration    17          0.682              1.704              1.513
 Vibration    18          0.707              1.632              1.302
 Vibration    19          0.736              1.552              1.116
 Vibration    20          0.746              1.525              1.062
 Vibration    21          0.756              1.498              1.011
 Vibration    22          0.804              1.372              0.811
 Vibration    23          0.839              1.289              0.704
 Vibration    24          0.889              1.175              0.579
 Vibration    25          0.931              1.086              0.496
 Vibration    26          0.969              1.012              0.433

                           ! Non-Optimized Parameters !
 Normal termination of Gaussian 16 at Mon Dec 14 13:57:51 2020.

 ----------------------------------------------------------------------
 # B3LYP/6-311++G(d,p) empiricaldispersion=gd3bj scf=xqc pop=npa geom=c
 heck
 ----------------------------------------------------------------------

 --------------------------------------
 CID_81940128_JID_9894_Energie_neutraal
 --------------------------------------
 Structure from the checkpoint file:  "JID_9894.chk"
 Charge =  0 Multiplicity = 1

 SCF Done:  E(RB3LYP) =  -845.141745318     A.U. after   14 cycles
 Normal termination of Gaussian 16 at Mon Dec 14 14:08:15 2020.

 ----------------------------------------------------------------------
 # B3LYP/6-311++G(d,p) empiricaldispersion=gd3bj scf=xqc pop=npa geom=c
 heck
 ----------------------------------------------------------------------

 ------------------------------------
 CID_81940128_JID_9894_Energie_kation
 ------------------------------------
 Structure from the checkpoint file:  "JID_9894.chk"
 Charge =  1 Multiplicity = 2

 SCF Done:  E(UB3LYP) =  -844.866178056     A.U. after   22 cycles
 Normal termination of Gaussian 16 at Mon Dec 14 14:31:24 2020.
 Gaussian 16:  ES64L-G16RevA.03 25-Dec-2016

 ----------------------------------------------------------------------
 # B3LYP/6-311++G(d,p) empiricaldispersion=gd3bj scf=xqc pop=npa geom=c
 heck
 ----------------------------------------------------------------------

 -----------------------------------
 CID_81940128_JID_9894_Energie_anion
 -----------------------------------
 Structure from the checkpoint file:  "JID_9894.chk"
 Charge = -1 Multiplicity = 2

                         Standard orientation:
 ---------------------------------------------------------------------
 Center     Atomic      Atomic             Coordinates (Angstroms)
 Number     Number       Type             X           Y           Z
 ---------------------------------------------------------------------
      1          6           0       -3.240847    0.176971    1.719281
      2          6           0       -2.785020   -0.207463    0.293539
      3          6           0       -3.631474    0.530001   -0.780210
      4          6           0       -4.962219   -0.254912   -0.868300
      5          6           0       -4.662363   -1.669995   -0.297930
      6          6           0       -3.152248   -1.683541    0.005076
      7          6           0       -1.297621   -0.002474    0.155268
      8          7           0       -0.414295   -0.987893    0.153326
      9          6           0        0.823094   -0.392870    0.048055
     10          6           0        0.697621    0.969702   -0.013946
     11          7           0       -0.664972    1.226483    0.069019
     12          6           0       -1.254980    2.551086   -0.013633
     13          6           0        1.810458    1.958173   -0.129094
     14          6           0        3.100637    1.197763   -0.498358
     15          6           0        3.263515   -0.094375    0.337669
     16          6           0        2.136822   -1.108348    0.017417
     17          6           0        4.632003   -0.702496    0.129695
     18          8           0        5.472790   -0.869821    0.985374
     19          8           0        4.844377   -1.053215   -1.167485
     20          1           0       -3.051467    1.232867    1.941050
     21          1           0       -4.313937    0.001790    1.850938
     22          1           0       -2.703094   -0.422505    2.460624
     23          1           0       -3.795033    1.586692   -0.547932
     24          1           0       -3.100081    0.485716   -1.738571
     25          1           0       -5.324916   -0.294728   -1.900155
     26          1           0       -5.743862    0.241196   -0.283342
     27          1           0       -4.936212   -2.465163   -0.998204
     28          1           0       -5.243505   -1.844888    0.613996
     29          1           0       -2.584111   -2.018729   -0.867766
     30          1           0       -2.877268   -2.345066    0.830948
     31          1           0       -0.509551    3.289844    0.287870
     32          1           0       -1.587302    2.782483   -1.031624
     33          1           0       -2.108095    2.633390    0.660408
     34          1           0        1.956853    2.504616    0.815666
     35          1           0        1.609530    2.718659   -0.895946
     36          1           0        3.966908    1.852221   -0.350757
     37          1           0        3.075699    0.926487   -1.559402
     38          1           0        3.214206    0.163831    1.400653
     39          1           0        2.318348   -1.560078   -0.966279
     40          1           0        2.147004   -1.926399    0.747059
     41          1           0        5.743157   -1.431402   -1.195938
 ---------------------------------------------------------------------

 SCF Done:  E(UB3LYP) =  -845.133816084     A.U. after   32 cycles

 The electronic state is 2-A.
 Alpha  occ. eigenvalues --  -19.08650 -19.03322 -14.26972 -14.18996 -10.22127
 Alpha  occ. eigenvalues --  -10.12644 -10.11427 -10.10509 -10.10070 -10.09748
 Alpha  occ. eigenvalues --  -10.09203 -10.09118 -10.08681 -10.08405 -10.07856
 Alpha  occ. eigenvalues --  -10.07815 -10.07627 -10.07263 -10.07062  -1.02668
 Alpha  occ. eigenvalues --   -0.93735  -0.91681  -0.78906  -0.76301  -0.74784
 Alpha  occ. eigenvalues --   -0.67952  -0.66535  -0.63806  -0.62344  -0.62218
 Alpha  occ. eigenvalues --   -0.58452  -0.56534  -0.53845  -0.51000  -0.49200
 Alpha  occ. eigenvalues --   -0.48333  -0.45380  -0.44529  -0.41840  -0.40660
 Alpha  occ. eigenvalues --   -0.40310  -0.39204  -0.38874  -0.37431  -0.37053
 Alpha  occ. eigenvalues --   -0.35478  -0.34952  -0.34560  -0.33601  -0.32744
 Alpha  occ. eigenvalues --   -0.32429  -0.31519  -0.31089  -0.30821  -0.29987
 Alpha  occ. eigenvalues --   -0.29754  -0.27579  -0.27043  -0.25619  -0.25306
 Alpha  occ. eigenvalues --   -0.25182  -0.25077  -0.24796  -0.24267  -0.23697
 Alpha  occ. eigenvalues --   -0.23462  -0.22632  -0.19621  -0.17190  -0.16890
 Alpha  occ. eigenvalues --   -0.11632   0.03687
 Alpha virt. eigenvalues --    0.05137   0.06118   0.07005   0.07510   0.07912
 Alpha virt. eigenvalues --    0.08218   0.08450   0.08829   0.09480   0.09873
 Alpha virt. eigenvalues --    0.10036   0.10547   0.10963   0.11359   0.11733

  Beta  occ. eigenvalues --  -19.08615 -19.03314 -14.26968 -14.18993 -10.22124
  Beta  occ. eigenvalues --  -10.12644 -10.11370 -10.10502 -10.10070 -10.09747
  Beta  occ. eigenvalues --  -10.09174 -10.09104 -10.08676 -10.08404 -10.07843
  Beta  occ. eigenvalues --  -10.07807 -10.07608 -10.07239 -10.07058  -1.02623
  Beta  occ. eigenvalues --   -0.93699  -0.91670  -0.78892  -0.76288  -0.74765
  Beta  occ. eigenvalues --   -0.67927  -0.66509  -0.63784  -0.62276  -0.62192
  Beta  occ. eigenvalues --   -0.58415  -0.56495  -0.53798  -0.50949  -0.49171
  Beta  occ. eigenvalues --   -0.48292  -0.45358  -0.44494  -0.41790  -0.40641
  Beta  occ. eigenvalues --   -0.40286  -0.39179  -0.38848  -0.37397  -0.37028
  Beta  occ. eigenvalues --   -0.35456  -0.34927  -0.34540  -0.33566  -0.32714
  Beta  occ. eigenvalues --   -0.32401  -0.31489  -0.31061  -0.30793  -0.29958
  Beta  occ. eigenvalues --   -0.29733  -0.27550  -0.27021  -0.25597  -0.25289
  Beta  occ. eigenvalues --   -0.25153  -0.25055  -0.24778  -0.24245  -0.23680
  Beta  occ. eigenvalues --   -0.23440  -0.22615  -0.19593  -0.17168  -0.16874
  Beta  occ. eigenvalues --   -0.11622
  Beta virt. eigenvalues --    0.05744   0.06042   0.06960   0.07324   0.07937
  Beta virt. eigenvalues --    0.07971   0.08363   0.08756   0.09264   0.09695
  Beta virt. eigenvalues --    0.10050   0.10237   0.10655   0.11135   0.11382

 Mulliken charges and spin densities:
               1          2
     1  C    0.357437  -0.974580
     2  C    0.044642   0.502895
     3  C   -0.038722  -0.223319
     4  C    0.235007  -0.802967
     5  C   -0.381425  -0.063678
     6  C   -0.468238  -0.082139
     7  C   -0.679448   0.254102
     8  N    0.046147   0.017272
     9  C   -0.196356  -0.067667
    10  C    0.615133  -0.112860
    11  N   -0.083632   0.179372
    12  C    1.162392  -1.558173
    13  C   -0.415669   0.052505
    14  C    0.244059  -0.962735
    15  C    0.340971  -0.011035
    16  C   -0.280819  -0.060018
    17  C   -0.194401   0.048699
    18  O   -0.264613   0.012870
    19  O   -0.183365   0.043634
    20  H   -0.099865   0.223381
    21  H    0.049357   0.109057
    22  H    0.056299   0.115803
    23  H   -0.166693   0.300328
    24  H    0.060223   0.133907
    25  H   -0.032970   0.173504
    26  H   -0.017579   0.176463
    27  H    0.115527   0.027201
    28  H    0.055487   0.082840
    29  H    0.114491   0.070091
    30  H    0.153768   0.023238
    31  H   -0.643743   0.822393
    32  H   -0.380157   0.594831
    33  H   -0.251716   0.417283
    34  H   -0.059789   0.256577
    35  H   -0.162845   0.344348
    36  H   -0.088785   0.280670
    37  H    0.126511   0.083718
    38  H    0.153028   0.079475
    39  H    0.128590   0.072042
    40  H    0.159423   0.007949
    41  H   -0.127661   0.412725
 Sum of Mulliken charges =  -1.00000   1.00000

 Dipole moment (field-independent basis, Debye):
    X=             -1.7710    Y=             -4.1494    Z=              0.2424  Tot=              4.5180
 Quadrupole moment (field-independent basis, Debye-Ang):
   XX=           -215.8081   YY=           -169.7247   ZZ=           -149.3736
   XY=             12.9819   XZ=             -1.4061   YZ=              0.6564

 Summary of Natural Population Analysis:

                                       Natural Population
                Natural  -----------------------------------------------
    Atom  No    Charge         Core      Valence    Rydberg      Total
 -----------------------------------------------------------------------
      C    1   -0.28107      0.99962     2.27429    0.00715     3.28107
      C    2   -0.06118      0.99953     2.04961    0.01203     3.06118
      C    3   -0.18790      0.99961     2.17886    0.00943     3.18790
      C    4   -0.19449      0.99965     2.18720    0.00764     3.19449
      C    5   -0.19492      0.99964     2.18844    0.00683     3.19492
      C    6   -0.18328      0.99961     2.17519    0.00848     3.18328
      C    7    0.20670      0.99954     1.77463    0.01914     2.79330
      N    8   -0.26086      0.99967     2.75324    0.00795     3.76086
      C    9    0.05027      0.99943     1.93726    0.01303     2.94973
      C   10    0.06090      0.99942     1.92826    0.01142     2.93910
      N   11   -0.20464      0.99958     2.69511    0.00995     3.70464
      C   12   -0.17487      0.99963     2.16697    0.00826     3.17487
      C   13   -0.20231      0.99960     2.19416    0.00854     3.20231
      C   14   -0.17997      0.99962     2.17148    0.00887     3.17997
      C   15   -0.15172      0.99955     2.14110    0.01107     3.15172
      C   16   -0.19239      0.99958     2.18490    0.00790     3.19239
      C   17    0.41378      0.99967     1.56012    0.02643     2.58622
      O   18   -0.30666      0.99987     3.30079    0.00601     4.30666
      O   19   -0.34815      0.99988     3.34155    0.00672     4.34815
      H   20    0.10063      0.00000     0.39842    0.00095     0.39937
      H   21    0.09841      0.00000     0.40067    0.00092     0.40159
      H   22    0.10299      0.00000     0.39622    0.00079     0.39701
      H   23    0.10387      0.00000     0.39471    0.00142     0.39613
      H   24    0.10071      0.00000     0.39798    0.00131     0.39929
      H   25    0.09870      0.00000     0.40041    0.00089     0.40130
      H   26    0.09683      0.00000     0.40210    0.00108     0.40317
      H   27    0.09763      0.00000     0.40138    0.00099     0.40237
      H   28    0.09413      0.00000     0.40466    0.00121     0.40587
      H   29    0.10628      0.00000     0.39251    0.00121     0.39372
      H   30    0.10457      0.00000     0.39448    0.00095     0.39543
      H   31    0.10500      0.00000     0.39320    0.00181     0.39500
      H   32    0.10099      0.00000     0.39702    0.00199     0.39901
      H   33    0.10312      0.00000     0.39495    0.00192     0.39688
      H   34    0.10249      0.00000     0.39604    0.00147     0.39751
      H   35    0.10893      0.00000     0.38955    0.00152     0.39107
      H   36    0.10196      0.00000     0.39696    0.00107     0.39804
      H   37    0.10310      0.00000     0.39542    0.00148     0.39690
      H   38    0.10879      0.00000     0.38947    0.00174     0.39121
      H   39    0.10669      0.00000     0.39172    0.00159     0.39331
      H   40    0.10595      0.00000     0.39285    0.00120     0.39405
      H   41    0.24097      0.00000     0.25199    0.00703     0.25903
 =======================================================================
   * Total *    0.00000     18.99271    51.77590    0.23139    71.00000

 Normal termination of Gaussian 16 at Mon Dec 14 15:05:14 2020.
