 Gaussian 16, Revision A.03,

 -----------------------------------------------------------
 # opt freq B3LYP/6-31G(d) empiricaldispersion=gd3bj scf=xqc
 -----------------------------------------------------------

 -------------------------------
 CID_114180831_JID_8319_neutraal
 -------------------------------
 Symbolic Z-matrix:
 Charge =  0 Multiplicity = 1

 SCF Done:  E(RB3LYP) =  -926.841629888     A.U. after   15 cycles
 SCF Done:  E(RB3LYP) =  -926.848976294     A.U. after   13 cycles
 SCF Done:  E(RB3LYP) =  -926.850077646     A.U. after   12 cycles
 SCF Done:  E(RB3LYP) =  -926.850535635     A.U. after   12 cycles
 SCF Done:  E(RB3LYP) =  -926.851031996     A.U. after   13 cycles
 SCF Done:  E(RB3LYP) =  -926.851468417     A.U. after   14 cycles
 SCF Done:  E(RB3LYP) =  -926.851757711     A.U. after   12 cycles
 SCF Done:  E(RB3LYP) =  -926.851803075     A.U. after   11 cycles
 SCF Done:  E(RB3LYP) =  -926.851904688     A.U. after   11 cycles
 SCF Done:  E(RB3LYP) =  -926.851917592     A.U. after   11 cycles
 SCF Done:  E(RB3LYP) =  -926.851948370     A.U. after    8 cycles
 SCF Done:  E(RB3LYP) =  -926.851948404     A.U. after    8 cycles
 SCF Done:  E(RB3LYP) =  -926.851948436     A.U. after    8 cycles
 SCF Done:  E(RB3LYP) =  -926.851948460     A.U. after    8 cycles
 SCF Done:  E(RB3LYP) =  -926.851948472     A.U. after    7 cycles
 Optimization completed.
    -- Stationary point found.
 Normal termination of Gaussian 16 at Fri Dec 11 20:09:47 2020.

 --------------------------------------------------------------------
 #N Geom=AllCheck Guess=TCheck SCRF=Check GenChk RB3LYP/6-31G(d) Freq
 --------------------------------------------------------------------

 Structure from the checkpoint file:  "JID_8319.chk"
 -------------------------------
 CID_114180831_JID_8319_neutraal
 -------------------------------
 Charge =  0 Multiplicity = 1

 SCF Done:  E(RB3LYP) =  -926.851948472     A.U. after    1 cycles

  Exact polarizability: 153.989 -12.989 123.567  -4.824 -14.818 112.259
 Approx polarizability: 213.820 -30.820 200.887  -2.760 -35.552 198.346

                      1                      2                      3
                      A                      A                      A
 Frequencies --     11.5863                25.9572                33.9189
 Red. masses --      5.3362                 5.4804                 8.6511
 Frc consts  --      0.0004                 0.0022                 0.0059
 IR Inten    --      1.2243                 0.2874                 4.3432

                      4                      5                      6
                      A                      A                      A
 Frequencies --     45.6502                62.6615                85.9526
 Red. masses --      7.3213                 9.3400                 6.1621
 Frc consts  --      0.0090                 0.0216                 0.0268
 IR Inten    --      1.1906                 0.4155                 0.3190

                      7                      8                      9
                      A                      A                      A
 Frequencies --    121.3777               132.4533               150.0209
 Red. masses --      7.8750                 1.2054                 3.5908
 Frc consts  --      0.0684                 0.0125                 0.0476
 IR Inten    --      2.4287                 0.2377                 0.8356

                     10                     11                     12
                      A                      A                      A
 Frequencies --    168.1823               231.0411               246.4565
 Red. masses --      6.0275                 5.0766                 5.3485
 Frc consts  --      0.1004                 0.1597                 0.1914
 IR Inten    --      1.0928                 2.4376                 4.0951

                     13                     14                     15
                      A                      A                      A
 Frequencies --    253.2764               300.4006               343.4319
 Red. masses --      4.7597                 3.9796                 5.4797
 Frc consts  --      0.1799                 0.2116                 0.3808
 IR Inten    --      3.2453                 0.2317                 1.6379

                     16                     17                     18
                      A                      A                      A
 Frequencies --    382.5128               419.0312               465.0689
 Red. masses --      2.8574                 4.9224                 7.5915
 Frc consts  --      0.2463                 0.5092                 0.9674
 IR Inten    --      2.6157                 6.1338                 7.9027

                     19                     20                     21
                      A                      A                      A
 Frequencies --    508.3685               527.6577               567.2335
 Red. masses --      4.4790                 4.6930                 1.9091
 Frc consts  --      0.6820                 0.7698                 0.3619
 IR Inten    --      8.9928                10.5619                44.7457

                     22                     23                     24
                      A                      A                      A
 Frequencies --    632.5017               642.1173               647.0006
 Red. masses --      4.1178                 2.9975                 3.4193
 Frc consts  --      0.9706                 0.7282                 0.8433
 IR Inten    --      2.7356                36.0677                35.8765

                     25                     26                     27
                      A                      A                      A
 Frequencies --    648.7836               657.0532               707.7212
 Red. masses --      3.0274                 3.5750                 4.1932
 Frc consts  --      0.7508                 0.9093                 1.2374
 IR Inten    --     53.6383                 0.7511                46.6961

                     28                     29                     30
                      A                      A                      A
 Frequencies --    715.0511               751.8669               771.6478
 Red. masses --      4.7620                 2.1841                 5.7337
 Frc consts  --      1.4346                 0.7275                 2.0115
 IR Inten    --     25.9319                64.5620                39.0208

                     31                     32                     33
                      A                      A                      A
 Frequencies --    782.5885               797.0307               841.9002
 Red. masses --      5.8872                 5.6070                 1.3112
 Frc consts  --      2.1243                 2.0986                 0.5476
 IR Inten    --      3.0734                65.2231                14.5010

                     34                     35                     36
                      A                      A                      A
 Frequencies --    860.5737               928.8880               969.4645
 Red. masses --      1.4898                 2.4624                11.7992
 Frc consts  --      0.6501                 1.2518                 6.5338
 IR Inten    --     17.3073                 5.2956                22.9948

                     37                     38                     39
                      A                      A                      A
 Frequencies --    983.4919              1000.2269              1014.4032
 Red. masses --      3.3332                 5.3751                 6.7872
 Frc consts  --      1.8996                 3.1683                 4.1149
 IR Inten    --      9.5314                42.3786                 8.3731

                     40                     41                     42
                      A                      A                      A
 Frequencies --   1024.1389              1046.0706              1083.0788
 Red. masses --      3.7654                 2.5555                 1.4694
 Frc consts  --      2.3269                 1.6476                 1.0156
 IR Inten    --      5.0003                17.7987                 2.6055

                     43                     44                     45
                      A                      A                      A
 Frequencies --   1092.8958              1117.6817              1152.2780
 Red. masses --      2.4649                 2.1498                 2.7534
 Frc consts  --      1.7346                 1.5823                 2.1540
 IR Inten    --     13.2012                39.0232                24.6512

                     46                     47                     48
                      A                      A                      A
 Frequencies --   1172.8142              1239.1652              1249.3906
 Red. masses --      2.4357                 4.5326                 2.3573
 Frc consts  --      1.9739                 4.1007                 2.1680
 IR Inten    --    294.2593                 9.8075                94.6616

                     49                     50                     51
                      A                      A                      A
 Frequencies --   1269.6956              1292.0422              1339.2960
 Red. masses --      2.7687                 1.7526                 2.1904
 Frc consts  --      2.6298                 1.7238                 2.3149
 IR Inten    --     69.5824                10.3074                78.1230

                     52                     53                     54
                      A                      A                      A
 Frequencies --   1380.6756              1390.1044              1399.1015
 Red. masses --      2.2736                 3.8032                 1.7020
 Frc consts  --      2.5535                 4.3300                 1.9630
 IR Inten    --     68.2446                85.7515                 7.1300

                     55                     56                     57
                      A                      A                      A
 Frequencies --   1446.7004              1449.1379              1485.8654
 Red. masses --      2.3626                 2.0272                 1.3879
 Frc consts  --      2.9134                 2.5082                 1.8054
 IR Inten    --     16.8616                19.6992                21.8350

                     58                     59                     60
                      A                      A                      A
 Frequencies --   1494.7311              1500.8947              1512.7487
 Red. masses --      1.4054                 1.0417                 3.6135
 Frc consts  --      1.8501                 1.3826                 4.8720
 IR Inten    --      0.6932                 8.9504                73.2183

                     61                     62                     63
                      A                      A                      A
 Frequencies --   1517.3598              1620.6314              1627.5480
 Red. masses --      1.0983                 7.9288                 8.1640
 Frc consts  --      1.4898                12.2695                12.7415
 IR Inten    --      6.2332                34.0317                21.9367

                     64                     65                     66
                      A                      A                      A
 Frequencies --   1659.6478              1800.8029              1850.7716
 Red. masses --      6.6465                 9.3769                10.4562
 Frc consts  --     10.7863                17.9161                21.1024
 IR Inten    --     17.9413               312.2141               321.8403

                     67                     68                     69
                      A                      A                      A
 Frequencies --   3054.7125              3107.5119              3109.7617
 Red. masses --      1.0372                 1.0603                 1.1015
 Frc consts  --      5.7024                 6.0327                 6.2763
 IR Inten    --     15.0587                11.9708                 9.0925

                     70                     71                     72
                      A                      A                      A
 Frequencies --   3147.1854              3159.6494              3280.3913
 Red. masses --      1.1010                 1.1057                 1.0982
 Frc consts  --      6.4249                 6.5039                 6.9627
 IR Inten    --      9.7222                 5.5297                 6.0979

                     73                     74                     75
                      A                      A                      A
 Frequencies --   3307.0405              3563.8924              3696.3277
 Red. masses --      1.0990                 1.0754                 1.0642
 Frc consts  --      7.0818                 8.0477                 8.5668
 IR Inten    --      2.8528                29.4522                97.1419

 - Thermochemistry -
 -------------------
 Temperature   298.150 Kelvin.  Pressure   1.00000 Atm.
 Atom     1 has atomic number  6 and mass  12.00000

 Molecular mass:   251.05422 amu.
 Principal axes and moments of inertia in atomic units:
                           1         2         3
     Eigenvalues --  2727.210667449.557558221.70897
           X            0.99980   0.01724  -0.01058
           Y           -0.01798   0.99709  -0.07414
           Z            0.00927   0.07431   0.99719
 This molecule is an asymmetric top.
 Rotational symmetry number  1.
 Warning -- assumption of classical behavior for rotation
           may cause significant error
 Rotational temperatures (Kelvin)      0.03176     0.01163     0.01053
 Rotational constants (GHZ):           0.66175     0.24226     0.21951
 Zero-point vibrational energy     514850.6 (Joules/Mol)
                                  123.05224 (Kcal/Mol)
 Warning -- explicit consideration of  21 degrees of freedom as
           vibrations may cause significant error
 Vibrational temperatures:     16.67    37.35    48.80    65.68    90.16
          (Kelvin)            123.67   174.64   190.57   215.85   241.98
                              332.42   354.60   364.41   432.21   494.12
                              550.35   602.89   669.13   731.43   759.18
                              816.12   910.03   923.86   930.89   933.45
                              945.35  1018.25  1028.80  1081.77  1110.23
                             1125.97  1146.75  1211.31  1238.17  1336.46
                             1394.84  1415.03  1439.10  1459.50  1473.51
                             1505.06  1558.31  1572.43  1608.09  1657.87
                             1687.42  1782.88  1797.59  1826.81  1858.96
                             1926.95  1986.48  2000.05  2012.99  2081.48
                             2084.99  2137.83  2150.58  2159.45  2176.51
                             2183.14  2331.73  2341.68  2387.86  2590.95
                             2662.85  4395.05  4471.02  4474.25  4528.10
                             4546.03  4719.75  4758.09  5127.65  5318.19

 Zero-point correction=                           0.196096 (Hartree/Particle)
 Thermal correction to Energy=                    0.212272
 Thermal correction to Enthalpy=                  0.213216
 Thermal correction to Gibbs Free Energy=         0.148139
 Sum of electronic and zero-point Energies=           -926.655852
 Sum of electronic and thermal Energies=              -926.639677
 Sum of electronic and thermal Enthalpies=            -926.638733
 Sum of electronic and thermal Free Energies=         -926.703810

                     E (Thermal)             CV                S
                      KCal/Mol        Cal/Mol-Kelvin    Cal/Mol-Kelvin
 Total                  133.203             57.901            136.967
 Electronic               0.000              0.000              0.000
 Translational            0.889              2.981             42.462
 Rotational               0.889              2.981             33.479
 Vibrational            131.425             51.940             61.026
 Vibration     1          0.593              1.987              7.719
 Vibration     2          0.593              1.985              6.117
 Vibration     3          0.594              1.983              5.586
 Vibration     4          0.595              1.979              4.997
 Vibration     5          0.597              1.972              4.372
 Vibration     6          0.601              1.959              3.750
 Vibration     7          0.609              1.931              3.078
 Vibration     8          0.613              1.921              2.910
 Vibration     9          0.618              1.903              2.672
 Vibration    10          0.625              1.882              2.456
 Vibration    11          0.653              1.794              1.871
 Vibration    12          0.661              1.769              1.756
 Vibration    13          0.664              1.757              1.708
 Vibration    14          0.693              1.673              1.415
 Vibration    15          0.722              1.589              1.196
 Vibration    16          0.752              1.507              1.029
 Vibration    17          0.782              1.429              0.895
 Vibration    18          0.823              1.328              0.751
 Vibration    19          0.864              1.231              0.638
 Vibration    20          0.883              1.189              0.592
 Vibration    21          0.923              1.102              0.510

 Optimization completed.
    -- Stationary point found.
 Normal termination of Gaussian 16 at Fri Dec 11 20:18:55 2020.

 ----------------------------------------------------------------------
 # B3LYP/6-311++G(d,p) empiricaldispersion=gd3bj scf=xqc pop=npa geom=c
 heck
 ----------------------------------------------------------------------

 ---------------------------------------
 CID_114180831_JID_8319_Energie_neutraal
 ---------------------------------------
 Structure from the checkpoint file:  "JID_8319.chk"
 Charge =  0 Multiplicity = 1

 SCF Done:  E(RB3LYP) =  -927.122705728     A.U. after   16 cycles
 Normal termination of Gaussian 16 at Fri Dec 11 20:22:25 2020.

 ----------------------------------------------------------------------
 # B3LYP/6-311++G(d,p) empiricaldispersion=gd3bj scf=xqc pop=npa geom=c
 heck
 ----------------------------------------------------------------------

 -------------------------------------
 CID_114180831_JID_8319_Energie_kation
 -------------------------------------
 Structure from the checkpoint file:  "JID_8319.chk"
 Charge =  1 Multiplicity = 2

 SCF Done:  E(UB3LYP) =  -926.796055862     A.U. after   33 cycles
 SCF Done:  E(UB3LYP) =  -926.796055862     a.u. after    1 cycles
 Normal termination of Gaussian 16 at Fri Dec 11 20:31:59 2020.
 Gaussian 16:  ES64L-G16RevA.03 25-Dec-2016

 ----------------------------------------------------------------------
 # B3LYP/6-311++G(d,p) empiricaldispersion=gd3bj scf=xqc pop=npa geom=c
 heck
 ----------------------------------------------------------------------

 ------------------------------------
 CID_114180831_JID_8319_Energie_anion
 ------------------------------------
 Structure from the checkpoint file:  "JID_8319.chk"
 Charge = -1 Multiplicity = 2

                         Standard orientation:
 ---------------------------------------------------------------------
 Center     Atomic      Atomic             Coordinates (Angstroms)
 Number     Number       Type             X           Y           Z
 ---------------------------------------------------------------------
      1          6           0       -2.956084   -2.589456    1.083571
      2          6           0       -3.057190   -1.478566    0.105290
      3          6           0       -4.024866   -0.987167   -0.714161
      4          7           0       -3.535004    0.110151   -1.419637
      5          6           0       -2.309656    0.232700   -1.013193
      6          8           0       -1.939588   -0.695119   -0.084965
      7          6           0       -1.302618    1.276823   -1.369145
      8          7           0       -1.034575    2.212013   -0.270960
      9          6           0       -0.306125    1.914209    0.859807
     10          8           0       -0.482504    2.480768    1.923748
     11          6           0        0.796682    0.907335    0.682928
     12          7           0        0.915228   -0.085441    1.543209
     13          8           0        2.040975   -0.789875    1.156970
     14          6           0        2.585983   -0.196951    0.073295
     15          6           0        1.839949    0.887851   -0.284907
     16          6           0        3.810040   -0.805014   -0.481722
     17          8           0        4.357233   -1.791316   -0.048717
     18          8           0        4.240096   -0.101701   -1.556737
     19          1           0       -2.190713   -3.315491    0.785269
     20          1           0       -2.686674   -2.215876    2.078020
     21          1           0       -3.915721   -3.108160    1.154390
     22          1           0       -5.037641   -1.339650   -0.845887
     23          1           0       -0.362817    0.808483   -1.669965
     24          1           0       -1.685981    1.842808   -2.219912
     25          1           0       -1.793175    2.852805   -0.057932
     26          1           0        2.019771    1.576861   -1.095064
     27          1           0        5.047028   -0.551475   -1.870159
 ---------------------------------------------------------------------

 SCF Done:  E(UB3LYP) =  -927.150515857     A.U. after   31 cycles

 The electronic state is 2-A.
 Alpha  occ. eigenvalues --  -19.10791 -19.03215 -19.02137 -18.98053 -18.94314
 Alpha  occ. eigenvalues --  -14.23836 -14.22848 -14.18864 -10.17330 -10.16438
 Alpha  occ. eigenvalues --  -10.15390 -10.13256 -10.12891 -10.11419 -10.10390
 Alpha  occ. eigenvalues --  -10.06625 -10.05998 -10.02657  -1.04533  -0.98477
 Alpha  occ. eigenvalues --   -0.95549  -0.93210  -0.86360  -0.83981  -0.82659
 Alpha  occ. eigenvalues --   -0.71961  -0.71405  -0.65572  -0.64782  -0.59899
 Alpha  occ. eigenvalues --   -0.54375  -0.53014  -0.52146  -0.49271  -0.46351
 Alpha  occ. eigenvalues --   -0.44073  -0.41729  -0.40501  -0.38410  -0.38302
 Alpha  occ. eigenvalues --   -0.35866  -0.35665  -0.34572  -0.33533  -0.33363
 Alpha  occ. eigenvalues --   -0.32951  -0.32716  -0.31733  -0.30754  -0.30311
 Alpha  occ. eigenvalues --   -0.29373  -0.29147  -0.27949  -0.25730  -0.23923
 Alpha  occ. eigenvalues --   -0.22951  -0.21341  -0.18342  -0.17462  -0.16021
 Alpha  occ. eigenvalues --   -0.15511  -0.15139  -0.14224  -0.12862  -0.12221
 Alpha  occ. eigenvalues --    0.03945
 Alpha virt. eigenvalues --    0.06140   0.07013   0.07824   0.08736   0.09303
 Alpha virt. eigenvalues --    0.09975   0.10295   0.10830   0.11658   0.12098
 Alpha virt. eigenvalues --    0.12973   0.13404   0.14182   0.15004   0.15116

  Beta  occ. eigenvalues --  -19.10788 -19.02720 -19.02042 -18.98039 -18.93926
  Beta  occ. eigenvalues --  -14.23828 -14.22845 -14.18248 -10.17322 -10.16416
  Beta  occ. eigenvalues --  -10.15385 -10.13242 -10.12584 -10.11420 -10.10389
  Beta  occ. eigenvalues --  -10.06382 -10.06083 -10.02559  -1.04525  -0.97638
  Beta  occ. eigenvalues --   -0.95162  -0.93176  -0.85771  -0.83971  -0.82637
  Beta  occ. eigenvalues --   -0.71936  -0.70746  -0.65528  -0.64144  -0.59884
  Beta  occ. eigenvalues --   -0.54283  -0.52710  -0.51537  -0.49257  -0.46108
  Beta  occ. eigenvalues --   -0.44045  -0.41527  -0.40419  -0.38283  -0.38080
  Beta  occ. eigenvalues --   -0.35836  -0.35634  -0.34420  -0.33410  -0.33038
  Beta  occ. eigenvalues --   -0.32794  -0.31709  -0.30975  -0.30492  -0.30238
  Beta  occ. eigenvalues --   -0.29258  -0.28291  -0.26928  -0.25387  -0.23901
  Beta  occ. eigenvalues --   -0.22521  -0.21331  -0.17402  -0.16722  -0.15436
  Beta  occ. eigenvalues --   -0.15374  -0.14337  -0.13282  -0.12469  -0.09689
  Beta virt. eigenvalues --    0.06118   0.07089   0.07802   0.08707   0.09297
  Beta virt. eigenvalues --    0.09947   0.10649   0.10793   0.11353   0.11801
  Beta virt. eigenvalues --    0.12230   0.13016   0.13421   0.14190   0.15024

 Mulliken charges and spin densities:
               1          2
     1  C   -0.477890  -0.031896
     2  C    0.413569   0.024812
     3  C   -0.310006  -0.001797
     4  N   -0.021292   0.001784
     5  C   -0.266347   0.084533
     6  O    0.098323   0.001370
     7  C   -0.448612  -0.128762
     8  N   -0.056457   0.013650
     9  C    0.132423  -0.002189
    10  O   -0.304947   0.001891
    11  C   -0.005595  -0.066956
    12  N   -0.388303   0.296881
    13  O    0.186647   0.108235
    14  C   -0.641604   0.122499
    15  C    0.002971   0.124416
    16  C    0.055149   0.224592
    17  O   -0.421458   0.134304
    18  O   -0.230523   0.017987
    19  H    0.175004  -0.003437
    20  H    0.181154   0.005162
    21  H    0.139114   0.005995
    22  H    0.144018   0.004591
    23  H    0.157576   0.036319
    24  H    0.157631   0.028622
    25  H    0.283775   0.006697
    26  H    0.182861  -0.008370
    27  H    0.262820  -0.000934
 Sum of Mulliken charges =  -1.00000   1.00000

 Dipole moment (field-independent basis, Debye):
    X=             -8.7838    Y=             -0.1891    Z=             -4.8343  Tot=             10.0281
 Quadrupole moment (field-independent basis, Debye-Ang):
   XX=           -146.5814   YY=           -119.0922   ZZ=           -122.1973
   XY=             19.1264   XZ=            -11.5223   YZ=             -7.0922

 Summary of Natural Population Analysis:

                                       Natural Population
                Natural  -----------------------------------------------
    Atom  No    Charge         Core      Valence    Rydberg      Total
 -----------------------------------------------------------------------
      C    1   -0.30790      0.99963     2.30380    0.00447     3.30790
      C    2    0.13959      0.99949     1.84897    0.01196     2.86041
      C    3   -0.05691      0.99950     2.04441    0.01300     3.05691
      N    4   -0.25403      0.99969     2.74441    0.00994     3.75403
      C    5    0.26150      0.99960     1.72045    0.01845     2.73850
      O    6   -0.23068      0.99985     3.22027    0.01056     4.23068
      C    7   -0.12025      0.99956     2.11090    0.00979     3.12025
      N    8   -0.32154      0.99968     2.81047    0.01139     3.82154
      C    9    0.34215      0.99962     1.63613    0.02209     2.65785
      O   10   -0.30649      0.99988     3.30000    0.00661     4.30649
      C   11   -0.01689      0.99954     2.00237    0.01498     3.01689
      N   12    0.01868      0.99967     2.46564    0.01601     3.48132
      O   13   -0.10710      0.99985     3.09776    0.00948     4.10710
      C   14    0.15080      0.99944     1.83534    0.01442     2.84920
      C   15   -0.15044      0.99948     2.14289    0.00807     3.15044
      C   16    0.41284      0.99968     1.56423    0.02325     2.58716
      O   17   -0.28066      0.99987     3.27400    0.00679     4.28066
      O   18   -0.35226      0.99988     3.34472    0.00766     4.35226
      H   19    0.11185      0.00000     0.38711    0.00104     0.38815
      H   20    0.11522      0.00000     0.38373    0.00105     0.38478
      H   21    0.10318      0.00000     0.39608    0.00074     0.39682
      H   22    0.09806      0.00000     0.40104    0.00090     0.40194
      H   23    0.12287      0.00000     0.37585    0.00128     0.37713
      H   24    0.10697      0.00000     0.39203    0.00099     0.39303
      H   25    0.18726      0.00000     0.31070    0.00205     0.31274
      H   26    0.10762      0.00000     0.39146    0.00092     0.39238
      H   27    0.22657      0.00000     0.26800    0.00544     0.27343
 =======================================================================
   * Total *    0.00000     17.99392    46.77276    0.23332    65.00000

 Normal termination of Gaussian 16 at Fri Dec 11 20:40:56 2020.
