 Gaussian 16, Revision A.03,

 -----------------------------------------------------------
 # opt freq B3LYP/6-31G(d) empiricaldispersion=gd3bj scf=xqc
 -----------------------------------------------------------

 -------------------------------
 CID_141560917_JID_9464_neutraal
 -------------------------------
 Symbolic Z-matrix:
 Charge =  0 Multiplicity = 1

 SCF Done:  E(RB3LYP) =  -881.970890175     A.U. after   15 cycles
 SCF Done:  E(RB3LYP) =  -881.976785132     A.U. after   12 cycles
 SCF Done:  E(RB3LYP) =  -881.975068354     A.U. after   13 cycles
 SCF Done:  E(RB3LYP) =  -881.977939725     A.U. after   12 cycles
 SCF Done:  E(RB3LYP) =  -881.979325639     A.U. after   12 cycles
 SCF Done:  E(RB3LYP) =  -881.979590094     A.U. after   13 cycles
 SCF Done:  E(RB3LYP) =  -881.979974965     A.U. after   12 cycles
 SCF Done:  E(RB3LYP) =  -881.980121476     A.U. after   11 cycles
 SCF Done:  E(RB3LYP) =  -881.980164149     A.U. after   11 cycles
 SCF Done:  E(RB3LYP) =  -881.980191796     A.U. after   10 cycles
 SCF Done:  E(RB3LYP) =  -881.980279453     A.U. after    9 cycles
 SCF Done:  E(RB3LYP) =  -881.980281320     A.U. after    9 cycles
 SCF Done:  E(RB3LYP) =  -881.980282108     A.U. after    9 cycles
 SCF Done:  E(RB3LYP) =  -881.980282417     A.U. after    8 cycles
 SCF Done:  E(RB3LYP) =  -881.980282467     A.U. after    6 cycles
 Optimization completed.
    -- Stationary point found.
 Normal termination of Gaussian 16 at Mon Dec 14 13:35:48 2020.

 --------------------------------------------------------------------
 #N Geom=AllCheck Guess=TCheck SCRF=Check GenChk RB3LYP/6-31G(d) Freq
 --------------------------------------------------------------------

 Structure from the checkpoint file:  "JID_9464.chk"
 -------------------------------
 CID_141560917_JID_9464_neutraal
 -------------------------------
 Charge =  0 Multiplicity = 1

 SCF Done:  E(RB3LYP) =  -881.980282467     A.U. after    1 cycles

  Exact polarizability: 207.597   3.626 159.064  -6.529  15.432 139.655
 Approx polarizability: 295.431   5.579 234.862 -19.511  38.581 220.886

                      1                      2                      3
                      A                      A                      A
 Frequencies --     29.1702                35.0399                40.9186
 Red. masses --      3.1270                 4.3616                 4.1360
 Frc consts  --      0.0016                 0.0032                 0.0041
 IR Inten    --      0.3308                 0.4776                 1.7086

                      4                      5                      6
                      A                      A                      A
 Frequencies --     49.3330                55.5549                81.4286
 Red. masses --      4.1946                 6.5411                 4.3442
 Frc consts  --      0.0060                 0.0119                 0.0170
 IR Inten    --      0.7320                 1.9465                 0.9040

                      7                      8                      9
                      A                      A                      A
 Frequencies --    103.5494               122.3717               134.7540
 Red. masses --      2.5090                 1.4171                 3.6361
 Frc consts  --      0.0159                 0.0125                 0.0389
 IR Inten    --      2.2140                 1.1885                 1.8312

                     10                     11                     12
                      A                      A                      A
 Frequencies --    142.1044               153.7346               169.6079
 Red. masses --      1.6737                 1.6686                 3.3926
 Frc consts  --      0.0199                 0.0232                 0.0575
 IR Inten    --      0.5971                 0.2361                 1.8913

                     13                     14                     15
                      A                      A                      A
 Frequencies --    190.1478               198.6136               226.0919
 Red. masses --      2.8729                 2.5381                 2.9274
 Frc consts  --      0.0612                 0.0590                 0.0882
 IR Inten    --      2.0404                 0.2523                 3.7431

                     16                     17                     18
                      A                      A                      A
 Frequencies --    238.7512               295.6437               300.4189
 Red. masses --      1.1758                 3.2483                 2.3475
 Frc consts  --      0.0395                 0.1673                 0.1248
 IR Inten    --      7.3208                 0.5712                 3.8049

                     19                     20                     21
                      A                      A                      A
 Frequencies --    325.1421               334.8796               356.2037
 Red. masses --      3.2336                 2.7254                 4.2086
 Frc consts  --      0.2014                 0.1801                 0.3146
 IR Inten    --      8.2460                 1.8180                 6.1374

                     22                     23                     24
                      A                      A                      A
 Frequencies --    387.7756               393.7879               418.3054
 Red. masses --      1.3647                 2.6465                 2.8818
 Frc consts  --      0.1209                 0.2418                 0.2971
 IR Inten    --     69.1475                11.1706                18.2541

                     25                     26                     27
                      A                      A                      A
 Frequencies --    428.2306               475.9861               482.5226
 Red. masses --      4.0320                 3.0991                 2.5948
 Frc consts  --      0.4356                 0.4137                 0.3560
 IR Inten    --      4.4751                13.8627                 6.5067

                     28                     29                     30
                      A                      A                      A
 Frequencies --    507.0008               513.7664               536.5794
 Red. masses --      1.6488                 2.3160                 3.0777
 Frc consts  --      0.2497                 0.3602                 0.5221
 IR Inten    --     49.2008                 3.9099                 2.2489

                     31                     32                     33
                      A                      A                      A
 Frequencies --    547.3238               561.9593               576.1077
 Red. masses --      2.8471                 1.2122                 2.7283
 Frc consts  --      0.5025                 0.2255                 0.5335
 IR Inten    --      2.6521                81.3758                13.6988

                     34                     35                     36
                      A                      A                      A
 Frequencies --    601.8492               633.9193               660.7790
 Red. masses --      3.6378                 2.1263                 3.9565
 Frc consts  --      0.7764                 0.5034                 1.0178
 IR Inten    --      9.7554                64.2053                 1.8246

                     37                     38                     39
                      A                      A                      A
 Frequencies --    708.5794               734.5572               774.7458
 Red. masses --      3.8427                 4.1250                 3.8325
 Frc consts  --      1.1368                 1.3114                 1.3553
 IR Inten    --      3.7313                 3.5667                 3.9087

                     40                     41                     42
                      A                      A                      A
 Frequencies --    824.8254               843.1972               869.2520
 Red. masses --      3.0786                 1.5495                 2.1849
 Frc consts  --      1.2340                 0.6491                 0.9727
 IR Inten    --      5.0508                 4.7075                 3.3525

                     43                     44                     45
                      A                      A                      A
 Frequencies --    892.1005               904.3831               944.1866
 Red. masses --      2.4378                 2.3258                 2.8235
 Frc consts  --      1.1431                 1.1208                 1.4830
 IR Inten    --      9.7900                11.3630                 1.7930

                     46                     47                     48
                      A                      A                      A
 Frequencies --    958.4359               969.4683               977.1314
 Red. masses --      1.4736                 1.7475                 1.9501
 Frc consts  --      0.7975                 0.9677                 1.0970
 IR Inten    --      0.4861                 1.6928                 6.9778

                     49                     50                     51
                      A                      A                      A
 Frequencies --   1036.3203              1048.6760              1062.9872
 Red. masses --      1.5568                 2.1818                 1.7443
 Frc consts  --      0.9851                 1.4137                 1.1612
 IR Inten    --     18.1635                10.7964                 5.4424

                     52                     53                     54
                      A                      A                      A
 Frequencies --   1066.9098              1073.4582              1081.1252
 Red. masses --      1.7213                 1.5471                 2.0631
 Frc consts  --      1.1544                 1.0504                 1.4208
 IR Inten    --      5.5281                 2.6416                71.9783

                     55                     56                     57
                      A                      A                      A
 Frequencies --   1086.5192              1098.8715              1103.8761
 Red. masses --      1.9359                 2.6391                 2.4388
 Frc consts  --      1.3465                 1.8776                 1.7509
 IR Inten    --     28.2599                22.6613                33.4669

                     58                     59                     60
                      A                      A                      A
 Frequencies --   1117.6809              1146.3284              1179.4684
 Red. masses --      2.5398                 2.7219                 2.3135
 Frc consts  --      1.8693                 2.1074                 1.8963
 IR Inten    --    100.7978                12.8463                19.7699

                     61                     62                     63
                      A                      A                      A
 Frequencies --   1206.1233              1226.0965              1241.1986
 Red. masses --      1.4715                 1.1339                 2.3047
 Frc consts  --      1.2613                 1.0043                 2.0920
 IR Inten    --     11.2497                30.1764                 0.1645

                     64                     65                     66
                      A                      A                      A
 Frequencies --   1249.4319              1271.9393              1284.8106
 Red. masses --      1.6090                 1.8563                 1.2074
 Frc consts  --      1.4799                 1.7694                 1.1743
 IR Inten    --     18.7698                 7.1733                 1.8009

                     67                     68                     69
                      A                      A                      A
 Frequencies --   1295.0193              1325.8060              1339.6001
 Red. masses --      2.8306                 4.1182                 2.2069
 Frc consts  --      2.7969                 4.2650                 2.3334
 IR Inten    --      9.3888                19.5213               132.2653

                     70                     71                     72
                      A                      A                      A
 Frequencies --   1344.3388              1385.0186              1388.0401
 Red. masses --      2.0680                 1.2245                 1.3186
 Frc consts  --      2.2020                 1.3840                 1.4969
 IR Inten    --    122.1683                22.3119                 4.2398

                     73                     74                     75
                      A                      A                      A
 Frequencies --   1411.9431              1425.1398              1430.6315
 Red. masses --      1.2286                 1.4029                 1.2939
 Frc consts  --      1.4431                 1.6787                 1.5604
 IR Inten    --     11.3344                72.3438                10.6734

                     76                     77                     78
                      A                      A                      A
 Frequencies --   1441.0200              1445.1793              1448.7147
 Red. masses --      1.3158                 1.5448                 1.3104
 Frc consts  --      1.6098                 1.9009                 1.6204
 IR Inten    --      2.8903                11.5749                 1.6325

                     79                     80                     81
                      A                      A                      A
 Frequencies --   1450.8338              1463.3386              1465.9217
 Red. masses --      1.3020                 1.6777                 2.3813
 Frc consts  --      1.6147                 2.1167                 3.0150
 IR Inten    --     46.1116                16.1984                65.5734

                     82                     83                     84
                      A                      A                      A
 Frequencies --   1500.7165              1509.2173              1510.6599
 Red. masses --      1.0624                 1.0938                 1.0829
 Frc consts  --      1.4098                 1.4679                 1.4561
 IR Inten    --     18.5451                 5.2224                 4.6062

                     85                     86                     87
                      A                      A                      A
 Frequencies --   1513.0313              1517.0666              1520.3975
 Red. masses --      1.0765                 1.3693                 1.2095
 Frc consts  --      1.4520                 1.8567                 1.6472
 IR Inten    --     14.2066                 5.0434                18.2724

                     88                     89                     90
                      A                      A                      A
 Frequencies --   1524.5239              1526.0727              1532.3559
 Red. masses --      1.1468                 1.1111                 1.2611
 Frc consts  --      1.5704                 1.5246                 1.7446
 IR Inten    --      6.0176                 5.4108                14.6837

                     91                     92                     93
                      A                      A                      A
 Frequencies --   1545.0673              1551.3817              1628.6276
 Red. masses --      1.1067                 1.2033                 5.9616
 Frc consts  --      1.5565                 1.7063                 9.3166
 IR Inten    --      8.1331                27.4726                 7.1030

                     94                     95                     96
                      A                      A                      A
 Frequencies --   1651.4089              1802.3247              2983.4811
 Red. masses --      6.0316                 8.3633                 1.0695
 Frc consts  --      9.6914                16.0063                 5.6091
 IR Inten    --      8.3338               425.7633                21.2276

                     97                     98                     99
                      A                      A                      A
 Frequencies --   2993.4611              3002.3039              3007.6912
 Red. masses --      1.0703                 1.0717                 1.0690
 Frc consts  --      5.6508                 5.6914                 5.6977
 IR Inten    --     49.7971                47.0310                74.0585

                    100                    101                    102
                      A                      A                      A
 Frequencies --   3044.2209              3068.3211              3074.2314
 Red. masses --      1.0421                 1.0405                 1.0369
 Frc consts  --      5.6902                 5.7714                 5.7735
 IR Inten    --     24.9730                 8.4061                 3.1135

                    103                    104                    105
                      A                      A                      A
 Frequencies --   3076.8737              3092.5187              3099.7270
 Red. masses --      1.0935                 1.0906                 1.0949
 Frc consts  --      6.0992                 6.1453                 6.1984
 IR Inten    --     21.1568                25.6337                13.7840

                    106                    107                    108
                      A                      A                      A
 Frequencies --   3100.6133              3101.8938              3127.8905
 Red. masses --      1.0943                 1.0931                 1.0963
 Frc consts  --      6.1984                 6.1969                 6.3195
 IR Inten    --     38.5648                96.4079                12.1625

                    109                    110                    111
                      A                      A                      A
 Frequencies --   3137.9446              3138.3765              3163.1020
 Red. masses --      1.1018                 1.1002                 1.1014
 Frc consts  --      6.3919                 6.3845                 6.4924
 IR Inten    --     14.9412                 7.1465                 7.0751

                    112                    113                    114
                      A                      A                      A
 Frequencies --   3177.4748              3189.4786              3208.1203
 Red. masses --      1.1026                 1.0877                 1.0941
 Frc consts  --      6.5592                 6.5194                 6.6342
 IR Inten    --     10.3083                11.7657                11.4301

                    115                    116                    117
                      A                      A                      A
 Frequencies --   3566.1202              3676.1472              3751.2804
 Red. masses --      1.0750                 1.0648                 1.0654
 Frc consts  --      8.0545                 8.4783                 8.8337
 IR Inten    --     19.0183                53.1449                65.9717

 - Thermochemistry -
 -------------------
 Temperature   298.150 Kelvin.  Pressure   1.00000 Atm.
 Atom     1 has atomic number  6 and mass  12.00000

 Molecular mass:   266.16304 amu.
 Principal axes and moments of inertia in atomic units:
                           1         2         3
     Eigenvalues --  3590.327136522.704127882.65902
           X            0.99988   0.01126   0.01032
           Y           -0.01133   0.99991   0.00647
           Z           -0.01025  -0.00659   0.99993
 This molecule is an asymmetric top.
 Rotational symmetry number  1.
 Warning -- assumption of classical behavior for rotation
           may cause significant error
 Rotational temperatures (Kelvin)      0.02412     0.01328     0.01099
 Rotational constants (GHZ):           0.50267     0.27669     0.22895
 Zero-point vibrational energy     926906.7 (Joules/Mol)
                                  221.53603 (Kcal/Mol)
 Warning -- explicit consideration of  34 degrees of freedom as
           vibrations may cause significant error
 Vibrational temperatures:     41.97    50.41    58.87    70.98    79.93
          (Kelvin)            117.16   148.98   176.07   193.88   204.46
                              221.19   244.03   273.58   285.76   325.30
                              343.51   425.37   432.24   467.81   481.82
                              512.50   557.92   566.57   601.85   616.13
                              684.84   694.24   729.46   739.20   772.02
                              787.48   808.53   828.89   865.93   912.07
                              950.71  1019.49  1056.86  1114.69  1186.74
                             1213.17  1250.66  1283.53  1301.21  1358.47
                             1378.98  1394.85  1405.87  1491.03  1508.81
                             1529.40  1535.05  1544.47  1555.50  1563.26
                             1581.03  1588.23  1608.09  1649.31  1696.99
                             1735.34  1764.08  1785.81  1797.65  1830.04
                             1848.56  1863.24  1907.54  1927.39  1934.20
                             1992.73  1997.08  2031.47  2050.46  2058.36
                             2073.31  2079.29  2084.38  2087.43  2105.42
                             2109.13  2159.20  2171.43  2173.50  2176.91
                             2182.72  2187.51  2193.45  2195.68  2204.72
                             2223.01  2232.09  2343.23  2376.01  2593.14
                             4292.56  4306.92  4319.65  4327.40  4379.95
                             4414.63  4423.13  4426.94  4449.44  4459.82
                             4461.09  4462.93  4500.34  4514.80  4515.42
                             4551.00  4571.68  4588.95  4615.77  5130.85
                             5289.16  5397.26

 Zero-point correction=                           0.353040 (Hartree/Particle)
 Thermal correction to Energy=                    0.373667
 Thermal correction to Enthalpy=                  0.374611
 Thermal correction to Gibbs Free Energy=         0.302807
 Sum of electronic and zero-point Energies=           -881.627242
 Sum of electronic and thermal Energies=              -881.606616
 Sum of electronic and thermal Enthalpies=            -881.605672
 Sum of electronic and thermal Free Energies=         -881.677476

                     E (Thermal)             CV                S
                      KCal/Mol        Cal/Mol-Kelvin    Cal/Mol-Kelvin
 Total                  234.479             76.697            151.124
 Electronic               0.000              0.000              0.000
 Translational            0.889              2.981             42.636
 Rotational               0.889              2.981             33.578
 Vibrational            232.702             70.735             74.910
 Vibration     1          0.593              1.984              5.885
 Vibration     2          0.594              1.982              5.521
 Vibration     3          0.594              1.981              5.214
 Vibration     4          0.595              1.978              4.844
 Vibration     5          0.596              1.975              4.609
 Vibration     6          0.600              1.962              3.856
 Vibration     7          0.605              1.946              3.386
 Vibration     8          0.610              1.930              3.063
 Vibration     9          0.613              1.919              2.877
 Vibration    10          0.616              1.911              2.775
 Vibration    11          0.619              1.899              2.625
 Vibration    12          0.625              1.880              2.440
 Vibration    13          0.633              1.853              2.226
 Vibration    14          0.637              1.842              2.146
 Vibration    15          0.650              1.801              1.910
 Vibration    16          0.657              1.781              1.812
 Vibration    17          0.690              1.682              1.441
 Vibration    18          0.693              1.673              1.415
 Vibration    19          0.709              1.625              1.284
 Vibration    20          0.716              1.606              1.236
 Vibration    21          0.732              1.563              1.139
 Vibration    22          0.756              1.496              1.009
 Vibration    23          0.761              1.483              0.986
 Vibration    24          0.781              1.430              0.898
 Vibration    25          0.790              1.409              0.864
 Vibration    26          0.833              1.303              0.721
 Vibration    27          0.839              1.289              0.703
 Vibration    28          0.862              1.234              0.641
 Vibration    29          0.869              1.219              0.625
 Vibration    30          0.892              1.169              0.573
 Vibration    31          0.903              1.146              0.550
 Vibration    32          0.918              1.114              0.520
 Vibration    33          0.933              1.083              0.493
 Vibration    34          0.960              1.028              0.446

                           ! Non-Optimized Parameters !
 Normal termination of Gaussian 16 at Mon Dec 14 13:57:41 2020.

 ----------------------------------------------------------------------
 # B3LYP/6-311++G(d,p) empiricaldispersion=gd3bj scf=xqc pop=npa geom=c
 heck
 ----------------------------------------------------------------------

 ---------------------------------------
 CID_141560917_JID_9464_Energie_neutraal
 ---------------------------------------
 Structure from the checkpoint file:  "JID_9464.chk"
 Charge =  0 Multiplicity = 1

 SCF Done:  E(RB3LYP) =  -882.247824732     A.U. after   15 cycles
 Normal termination of Gaussian 16 at Mon Dec 14 14:06:18 2020.

 ----------------------------------------------------------------------
 # B3LYP/6-311++G(d,p) empiricaldispersion=gd3bj scf=xqc pop=npa geom=c
 heck
 ----------------------------------------------------------------------

 -------------------------------------
 CID_141560917_JID_9464_Energie_kation
 -------------------------------------
 Structure from the checkpoint file:  "JID_9464.chk"
 Charge =  1 Multiplicity = 2

 SCF Done:  E(UB3LYP) =  -881.941215307     A.U. after   31 cycles
 Normal termination of Gaussian 16 at Mon Dec 14 14:29:54 2020.
 Gaussian 16:  ES64L-G16RevA.03 25-Dec-2016

 ----------------------------------------------------------------------
 # B3LYP/6-311++G(d,p) empiricaldispersion=gd3bj scf=xqc pop=npa geom=c
 heck
 ----------------------------------------------------------------------

 ------------------------------------
 CID_141560917_JID_9464_Energie_anion
 ------------------------------------
 Structure from the checkpoint file:  "JID_9464.chk"
 Charge = -1 Multiplicity = 2

                         Standard orientation:
 ---------------------------------------------------------------------
 Center     Atomic      Atomic             Coordinates (Angstroms)
 Number     Number       Type             X           Y           Z
 ---------------------------------------------------------------------
      1          6           0       -2.846620   -2.259543   -1.189751
      2          6           0       -1.518770   -1.609569   -0.897202
      3          6           0       -1.414339   -0.603824    0.081691
      4          6           0       -0.183783    0.016169    0.385427
      5          6           0        0.952229   -0.361539   -0.358555
      6          6           0        0.848154   -1.355167   -1.336837
      7          6           0       -0.366575   -1.979825   -1.593173
      8          7           0        2.224296    0.282847   -0.107996
      9          6           0        2.646944    1.120455   -1.247552
     10          6           0        1.804481    2.391248   -1.290388
     11          8           0        1.923719    3.102189   -0.068559
     12          6           0        3.280944   -0.633787    0.351825
     13          6           0        2.958454   -1.319234    1.680489
     14          8           0        2.028396   -2.385909    1.586413
     15          6           0       -0.087533    1.037627    1.489982
     16          7           0       -2.594852   -0.223311    0.783324
     17          6           0       -3.366765    0.907043    0.569958
     18          8           0       -4.444619    1.033499    1.129386
     19          6           0       -2.795294    1.955292   -0.365675
     20          1           0       -3.209554   -2.847576   -0.336615
     21          1           0       -3.618066   -1.512819   -1.407594
     22          1           0       -2.768259   -2.935642   -2.045472
     23          1           0        1.732536   -1.647973   -1.894205
     24          1           0       -0.427458   -2.754736   -2.352181
     25          1           0        3.691210    1.402805   -1.077713
     26          1           0        2.594944    0.583989   -2.209278
     27          1           0        2.154508    3.046718   -2.094760
     28          1           0        0.753140    2.136534   -1.501004
     29          1           0        1.994054    2.404433    0.607466
     30          1           0        3.520709   -1.411136   -0.393682
     31          1           0        4.183330   -0.027215    0.492092
     32          1           0        3.879644   -1.769487    2.064422
     33          1           0        2.634787   -0.557622    2.407544
     34          1           0        1.184073   -2.014617    1.288258
     35          1           0       -0.042738    2.057902    1.093846
     36          1           0       -0.950703    0.969151    2.153965
     37          1           0        0.822515    0.884960    2.075422
     38          1           0       -3.092241   -0.937748    1.303829
     39          1           0       -2.069844    2.580495    0.165360
     40          1           0       -2.285659    1.511942   -1.225833
     41          1           0       -3.616162    2.590583   -0.700524
 ---------------------------------------------------------------------

 SCF Done:  E(UB3LYP) =  -882.240425781     A.U. after   33 cycles
 SCF Done:  E(UB3LYP) =  -882.240425781     a.u. after    1 cycles

 The electronic state is 2-A.
 Alpha  occ. eigenvalues --  -19.02624 -19.02468 -18.99816 -14.24373 -14.22450
 Alpha  occ. eigenvalues --  -10.18423 -10.12518 -10.12325 -10.10741 -10.10552
 Alpha  occ. eigenvalues --  -10.10473 -10.10162 -10.09222 -10.08336 -10.08301
 Alpha  occ. eigenvalues --  -10.07499 -10.07471 -10.07321 -10.06759  -0.94966
 Alpha  occ. eigenvalues --   -0.93252  -0.92857  -0.84436  -0.83600  -0.74954
 Alpha  occ. eigenvalues --   -0.69254  -0.66622  -0.66171  -0.64996  -0.62292
 Alpha  occ. eigenvalues --   -0.60163  -0.58212  -0.53282  -0.52856  -0.51637
 Alpha  occ. eigenvalues --   -0.47794  -0.47644  -0.42809  -0.42442  -0.41215
 Alpha  occ. eigenvalues --   -0.40052  -0.38907  -0.38522  -0.38036  -0.36586
 Alpha  occ. eigenvalues --   -0.35979  -0.35431  -0.34580  -0.33258  -0.32531
 Alpha  occ. eigenvalues --   -0.32396  -0.31633  -0.31475  -0.31107  -0.30860
 Alpha  occ. eigenvalues --   -0.30645  -0.30243  -0.28712  -0.28204  -0.27899
 Alpha  occ. eigenvalues --   -0.25944  -0.25699  -0.25448  -0.24707  -0.23422
 Alpha  occ. eigenvalues --   -0.18952  -0.18602  -0.18057  -0.17159  -0.14951
 Alpha  occ. eigenvalues --   -0.14542  -0.14071   0.04172
 Alpha virt. eigenvalues --    0.06083   0.06648   0.06891   0.07342   0.07889
 Alpha virt. eigenvalues --    0.08526   0.08644   0.08858   0.09204   0.10086
 Alpha virt. eigenvalues --    0.10476   0.10915   0.11175   0.11440   0.11530

  Beta  occ. eigenvalues --  -19.02622 -19.02457 -18.99804 -14.24386 -14.22449
  Beta  occ. eigenvalues --  -10.18398 -10.12504 -10.12321 -10.10593 -10.10534
  Beta  occ. eigenvalues --  -10.10441 -10.10089 -10.09250 -10.08322 -10.08209
  Beta  occ. eigenvalues --  -10.07481 -10.07465 -10.07333 -10.06612  -0.94936
  Beta  occ. eigenvalues --   -0.93243  -0.92829  -0.84347  -0.83521  -0.74824
  Beta  occ. eigenvalues --   -0.69159  -0.66573  -0.66018  -0.64946  -0.62229
  Beta  occ. eigenvalues --   -0.60041  -0.58136  -0.53237  -0.52668  -0.51562
  Beta  occ. eigenvalues --   -0.47677  -0.47571  -0.42751  -0.42397  -0.41139
  Beta  occ. eigenvalues --   -0.39999  -0.38834  -0.38455  -0.37968  -0.36535
  Beta  occ. eigenvalues --   -0.35883  -0.35378  -0.34550  -0.33165  -0.32469
  Beta  occ. eigenvalues --   -0.32316  -0.31582  -0.31434  -0.31061  -0.30831
  Beta  occ. eigenvalues --   -0.30606  -0.30182  -0.28663  -0.28152  -0.27855
  Beta  occ. eigenvalues --   -0.25880  -0.25502  -0.25309  -0.24650  -0.23324
  Beta  occ. eigenvalues --   -0.18904  -0.18480  -0.17942  -0.17140  -0.14677
  Beta  occ. eigenvalues --   -0.14307  -0.13597
  Beta virt. eigenvalues --    0.06356   0.06798   0.07303   0.07590   0.07809
  Beta virt. eigenvalues --    0.08137   0.08730   0.08912   0.09138   0.09425
  Beta virt. eigenvalues --    0.10232   0.10753   0.11056   0.11273   0.11576

 Mulliken charges and spin densities:
               1          2
     1  C    1.917541  -2.327831
     2  C   -0.472602   0.968685
     3  C   -0.220231   0.183415
     4  C   -0.352185   0.206868
     5  C   -0.010247   0.021150
     6  C   -0.251923   0.064415
     7  C   -0.477857  -0.414450
     8  N    0.228727  -0.053551
     9  C    0.491630  -0.628964
    10  C   -0.549061   0.068961
    11  O   -0.207340  -0.000352
    12  C    0.371919  -0.320242
    13  C   -0.040841  -0.487193
    14  O   -0.240609  -0.011185
    15  C   -0.511917   0.033633
    16  N   -0.182172   0.004539
    17  C   -0.268638   0.221843
    18  O   -0.340303   0.012471
    19  C   -0.010318  -0.371296
    20  H    0.111766   0.046132
    21  H   -0.005626   0.194149
    22  H   -0.320740   0.481644
    23  H   -0.393399   0.528558
    24  H   -0.477006   0.634600
    25  H    0.020759   0.158364
    26  H   -0.186957   0.325966
    27  H   -0.043842   0.213291
    28  H    0.160419  -0.019364
    29  H    0.285344  -0.020478
    30  H    0.136708   0.037753
    31  H   -0.329957   0.445922
    32  H   -0.202777   0.383754
    33  H    0.142275  -0.003001
    34  H    0.356120  -0.010559
    35  H    0.094832   0.069552
    36  H    0.208365  -0.014857
    37  H    0.110977   0.010477
    38  H    0.096497   0.216912
    39  H    0.151186   0.022354
    40  H    0.091985   0.050338
    41  H    0.119499   0.077577
 Sum of Mulliken charges =  -1.00000   1.00000

 Dipole moment (field-independent basis, Debye):
    X=              0.1846    Y=              2.1783    Z=              1.9018  Tot=              2.8976
 Quadrupole moment (field-independent basis, Debye-Ang):
   XX=           -197.8724   YY=           -166.1767   ZZ=           -154.3772
   XY=              3.1240   XZ=              3.8529   YZ=             -6.4353

 Summary of Natural Population Analysis:

                                       Natural Population
                Natural  -----------------------------------------------
    Atom  No    Charge         Core      Valence    Rydberg      Total
 -----------------------------------------------------------------------
      C    1   -0.29482      0.99964     2.28939    0.00579     3.29482
      C    2    0.00055      0.99947     1.99111    0.00886     2.99945
      C    3    0.08240      0.99937     1.90612    0.01211     2.91760
      C    4   -0.02881      0.99941     2.01899    0.01041     3.02881
      C    5    0.07225      0.99942     1.91256    0.01577     2.92775
      C    6   -0.07549      0.99949     2.06629    0.00972     3.07549
      C    7   -0.10009      0.99951     2.09046    0.01012     3.10009
      N    8   -0.30194      0.99969     2.78747    0.01478     3.80194
      C    9   -0.09172      0.99960     2.08147    0.01065     3.09172
      C   10   -0.01629      0.99960     2.00405    0.01264     3.01629
      O   11   -0.37578      0.99990     3.36963    0.00625     4.37578
      C   12   -0.09126      0.99959     2.08101    0.01065     3.09126
      C   13   -0.01444      0.99959     2.00213    0.01272     3.01444
      O   14   -0.36880      0.99990     3.36276    0.00614     4.36880
      C   15   -0.30267      0.99962     2.29742    0.00562     3.30267
      N   16   -0.32621      0.99965     2.81648    0.01008     3.82621
      C   17    0.34906      0.99969     1.62986    0.02139     2.65094
      O   18   -0.32327      0.99987     3.31731    0.00609     4.32327
      C   19   -0.33552      0.99962     2.33175    0.00415     3.33552
      H   20    0.10144      0.00000     0.39761    0.00095     0.39856
      H   21    0.10703      0.00000     0.39166    0.00131     0.39297
      H   22    0.10471      0.00000     0.39420    0.00108     0.39529
      H   23    0.10242      0.00000     0.39555    0.00203     0.39758
      H   24    0.10080      0.00000     0.39798    0.00122     0.39920
      H   25    0.09546      0.00000     0.40325    0.00129     0.40454
      H   26    0.09324      0.00000     0.40509    0.00167     0.40676
      H   27    0.08566      0.00000     0.41331    0.00103     0.41434
      H   28    0.07924      0.00000     0.41925    0.00150     0.42076
      H   29    0.23418      0.00000     0.26225    0.00357     0.26582
      H   30    0.08719      0.00000     0.41138    0.00143     0.41281
      H   31    0.09850      0.00000     0.39974    0.00177     0.40150
      H   32    0.08768      0.00000     0.41126    0.00106     0.41232
      H   33    0.07545      0.00000     0.42323    0.00133     0.42455
      H   34    0.23650      0.00000     0.26033    0.00317     0.26350
      H   35    0.10780      0.00000     0.39086    0.00134     0.39220
      H   36    0.10798      0.00000     0.39117    0.00084     0.39202
      H   37    0.10531      0.00000     0.39336    0.00133     0.39469
      H   38    0.19726      0.00000     0.30021    0.00252     0.30274
      H   39    0.11230      0.00000     0.38668    0.00102     0.38770
      H   40    0.11229      0.00000     0.38664    0.00107     0.38771
      H   41    0.11041      0.00000     0.38867    0.00092     0.38959
 =======================================================================
   * Total *    0.00000     18.99265    52.77995    0.22739    72.00000

 Normal termination of Gaussian 16 at Mon Dec 14 14:55:19 2020.
