 Gaussian 16, Revision A.03,

 -----------------------------------------------------------
 # opt freq B3LYP/6-31G(d) empiricaldispersion=gd3bj scf=xqc
 -----------------------------------------------------------

 ------------------------------
 CID_65330233_JID_3784_neutraal
 ------------------------------
 Symbolic Z-matrix:
 Charge =  0 Multiplicity = 1

 SCF Done:  E(RB3LYP) =  -561.822876917     A.U. after   12 cycles
 SCF Done:  E(RB3LYP) =  -561.826829674     A.U. after   11 cycles
 SCF Done:  E(RB3LYP) =  -561.825936113     A.U. after   11 cycles
 SCF Done:  E(RB3LYP) =  -561.827515900     A.U. after   10 cycles
 SCF Done:  E(RB3LYP) =  -561.827881259     A.U. after   10 cycles
 SCF Done:  E(RB3LYP) =  -561.828350270     A.U. after   12 cycles
 SCF Done:  E(RB3LYP) =  -561.828686380     A.U. after   10 cycles
 SCF Done:  E(RB3LYP) =  -561.828762603     A.U. after    9 cycles
 SCF Done:  E(RB3LYP) =  -561.828783741     A.U. after    9 cycles
 SCF Done:  E(RB3LYP) =  -561.828793410     A.U. after    8 cycles
 SCF Done:  E(RB3LYP) =  -561.828806880     A.U. after    8 cycles
 SCF Done:  E(RB3LYP) =  -561.828807559     A.U. after    8 cycles
 SCF Done:  E(RB3LYP) =  -561.828808460     A.U. after    8 cycles
 SCF Done:  E(RB3LYP) =  -561.828809159     A.U. after    8 cycles
 SCF Done:  E(RB3LYP) =  -561.828809344     A.U. after    7 cycles
 SCF Done:  E(RB3LYP) =  -561.828809393     A.U. after    6 cycles
 Optimization completed.
    -- Stationary point found.
 Normal termination of Gaussian 16 at Mon Dec 14 13:23:27 2020.

 --------------------------------------------------------------------
 #N Geom=AllCheck Guess=TCheck SCRF=Check GenChk RB3LYP/6-31G(d) Freq
 --------------------------------------------------------------------

 Structure from the checkpoint file:  "JID_3784.chk"
 ------------------------------
 CID_65330233_JID_3784_neutraal
 ------------------------------
 Charge =  0 Multiplicity = 1

 SCF Done:  E(RB3LYP) =  -561.828809393     A.U. after    1 cycles

  Exact polarizability: 134.978  -1.312 117.929  -0.768   2.188 105.853
 Approx polarizability: 162.535  -0.894 167.566  -0.655   1.415 164.012

                      1                      2                      3
                      A                      A                      A
 Frequencies --     20.9883                31.7838                68.5300
 Red. masses --      1.6780                 3.9448                 3.2680
 Frc consts  --      0.0004                 0.0023                 0.0090
 IR Inten    --      0.0082                 0.4403                 0.6801

                      4                      5                      6
                      A                      A                      A
 Frequencies --     79.5598               102.7060               118.0030
 Red. masses --      2.3269                 2.6359                 2.8686
 Frc consts  --      0.0087                 0.0164                 0.0235
 IR Inten    --      0.0562                 0.7481                 2.7369

                      7                      8                      9
                      A                      A                      A
 Frequencies --    147.5710               179.0146               279.6056
 Red. masses --      4.8471                 2.7177                 2.5812
 Frc consts  --      0.0622                 0.0513                 0.1189
 IR Inten    --      4.4102                 0.0529                 0.0289

                     10                     11                     12
                      A                      A                      A
 Frequencies --    286.5401               343.6611               395.9197
 Red. masses --      2.7801                 1.7598                 2.0113
 Frc consts  --      0.1345                 0.1225                 0.1858
 IR Inten    --      1.4691                 9.7500                 3.9797

                     13                     14                     15
                      A                      A                      A
 Frequencies --    401.4944               420.9330               485.0862
 Red. masses --      2.7857                 1.4319                 1.9726
 Frc consts  --      0.2646                 0.1495                 0.2735
 IR Inten    --      0.5595                32.3381                 7.0839

                     16                     17                     18
                      A                      A                      A
 Frequencies --    495.5895               607.7440               630.7708
 Red. masses --      2.5914                 2.5576                 2.6214
 Frc consts  --      0.3750                 0.5566                 0.6145
 IR Inten    --      9.8077                 1.9391                 1.4442

                     19                     20                     21
                      A                      A                      A
 Frequencies --    696.1969               736.1049               775.2225
 Red. masses --      3.2979                 3.4191                 1.2885
 Frc consts  --      0.9418                 1.0915                 0.4562
 IR Inten    --      5.2075                 6.7267                 0.7601

                     22                     23                     24
                      A                      A                      A
 Frequencies --    814.9261               829.6899               844.4829
 Red. masses --      1.9642                 1.8839                 1.4766
 Frc consts  --      0.7685                 0.7641                 0.6204
 IR Inten    --      1.1890                 0.3668                 0.6860

                     25                     26                     27
                      A                      A                      A
 Frequencies --    878.2502               898.8064               906.3279
 Red. masses --      2.9404                 2.2537                 1.8776
 Frc consts  --      1.3363                 1.0727                 0.9087
 IR Inten    --      4.5278                27.1361               112.3875

                     28                     29                     30
                      A                      A                      A
 Frequencies --    920.6988               929.7016               937.7281
 Red. masses --      2.2519                 3.3961                 2.0127
 Frc consts  --      1.1247                 1.7295                 1.0428
 IR Inten    --     12.4709                20.3222                35.9056

                     31                     32                     33
                      A                      A                      A
 Frequencies --    959.9409               970.9721               990.8308
 Red. masses --      2.3016                 2.1088                 1.3030
 Frc consts  --      1.2496                 1.1714                 0.7537
 IR Inten    --     24.6922                 6.9172                 1.2163

                     34                     35                     36
                      A                      A                      A
 Frequencies --    999.8939              1006.2939              1042.3963
 Red. masses --      1.7462                 1.7999                 1.8440
 Frc consts  --      1.0286                 1.0738                 1.1805
 IR Inten    --      2.9367                 4.9963                23.1596

                     37                     38                     39
                      A                      A                      A
 Frequencies --   1058.7640              1069.5736              1084.7669
 Red. masses --      2.3623                 1.7178                 2.0913
 Frc consts  --      1.5602                 1.1578                 1.4499
 IR Inten    --      0.8897                 3.6890                19.1000

                     40                     41                     42
                      A                      A                      A
 Frequencies --   1102.5949              1114.6892              1134.7247
 Red. masses --      3.2223                 2.4289                 1.6562
 Frc consts  --      2.3081                 1.7782                 1.2564
 IR Inten    --     45.3314                 1.9745                 8.4229

                     43                     44                     45
                      A                      A                      A
 Frequencies --   1153.7016              1193.0601              1210.4904
 Red. masses --      2.1172                 1.5819                 1.3586
 Frc consts  --      1.6603                 1.3267                 1.1729
 IR Inten    --     24.7755                 5.3950                11.6530

                     46                     47                     48
                      A                      A                      A
 Frequencies --   1216.8981              1226.8297              1229.3206
 Red. masses --      1.4585                 1.4678                 1.2934
 Frc consts  --      1.2725                 1.3016                 1.1517
 IR Inten    --      2.1429                 4.8585                 1.1104

                     49                     50                     51
                      A                      A                      A
 Frequencies --   1242.8501              1259.1596              1272.6588
 Red. masses --      1.2918                 1.2310                 1.2640
 Frc consts  --      1.1756                 1.1500                 1.2062
 IR Inten    --      1.1612                 0.7395                 4.2140

                     52                     53                     54
                      A                      A                      A
 Frequencies --   1280.5223              1294.9807              1315.1081
 Red. masses --      1.2856                 1.3762                 1.2837
 Frc consts  --      1.2420                 1.3598                 1.3081
 IR Inten    --      3.3500                 0.9754                 0.0452

                     55                     56                     57
                      A                      A                      A
 Frequencies --   1328.8813              1334.5198              1346.0445
 Red. masses --      1.4195                 1.3307                 1.2678
 Frc consts  --      1.4769                 1.3963                 1.3534
 IR Inten    --      1.6063                 2.0024                 1.3575

                     58                     59                     60
                      A                      A                      A
 Frequencies --   1347.9547              1356.5734              1366.3083
 Red. masses --      1.2898                 1.3263                 1.3137
 Frc consts  --      1.3807                 1.4381                 1.4449
 IR Inten    --      1.4314                 0.7478                 4.9205

                     61                     62                     63
                      A                      A                      A
 Frequencies --   1371.3252              1394.7131              1406.4920
 Red. masses --      1.3160                 1.4310                 1.3838
 Frc consts  --      1.4581                 1.6400                 1.6129
 IR Inten    --      0.8261                 5.5200                 5.8953

                     64                     65                     66
                      A                      A                      A
 Frequencies --   1416.4448              1419.4872              1446.6805
 Red. masses --      1.3978                 1.4944                 1.3456
 Frc consts  --      1.6523                 1.7742                 1.6593
 IR Inten    --      3.6587                 2.3509                 5.6073

                     67                     68                     69
                      A                      A                      A
 Frequencies --   1514.0935              1517.4618              1524.0312
 Red. masses --      1.0802                 1.0876                 1.0894
 Frc consts  --      1.4590                 1.4756                 1.4908
 IR Inten    --      0.2361                 1.4779                 1.3129

                     70                     71                     72
                      A                      A                      A
 Frequencies --   1526.2481              1529.2974              1547.4787
 Red. masses --      1.0875                 1.0886                 1.0860
 Frc consts  --      1.4926                 1.5000                 1.5322
 IR Inten    --      5.4048                 1.8986                 2.2187

                     73                     74                     75
                      A                      A                      A
 Frequencies --   1549.9339              1562.8891              1695.5206
 Red. masses --      1.1048                 1.0972                 1.0904
 Frc consts  --      1.5637                 1.5790                 1.8469
 IR Inten    --      0.5310                 1.4784                16.6972

                     76                     77                     78
                      A                      A                      A
 Frequencies --   2989.5343              3003.5269              3013.5096
 Red. masses --      1.0741                 1.0698                 1.0801
 Frc consts  --      5.6556                 5.6860                 5.7790
 IR Inten    --     82.9695                25.3955                10.8061

                     79                     80                     81
                      A                      A                      A
 Frequencies --   3034.4261              3038.0375              3041.9520
 Red. masses --      1.0675                 1.0615                 1.0704
 Frc consts  --      5.7915                 5.7723                 5.8358
 IR Inten    --     18.7173                64.7559                20.8838

                     82                     83                     84
                      A                      A                      A
 Frequencies --   3043.2808              3053.4608              3058.0720
 Red. masses --      1.0798                 1.0649                 1.0821
 Frc consts  --      5.8924                 5.8500                 5.9622
 IR Inten    --     43.0835                21.5427                31.0958

                     85                     86                     87
                      A                      A                      A
 Frequencies --   3067.6056              3071.4008              3076.6657
 Red. masses --      1.0656                 1.0895                 1.0934
 Frc consts  --      5.9081                 6.0555                 6.0982
 IR Inten    --     53.8310                11.4088                23.1388

                     88                     89                     90
                      A                      A                      A
 Frequencies --   3082.2423              3086.2383              3096.0519
 Red. masses --      1.0862                 1.0962                 1.0947
 Frc consts  --      6.0798                 6.1520                 6.1826
 IR Inten    --     68.9458                49.9677                17.1841

                     91                     92                     93
                      A                      A                      A
 Frequencies --   3098.1927              3115.1305              3122.8843
 Red. masses --      1.1026                 1.1052                 1.0898
 Frc consts  --      6.2356                 6.3191                 6.2618
 IR Inten    --     25.2780                99.8823                33.6802

                     94                     95                     96
                      A                      A                      A
 Frequencies --   3134.6579              3454.3670              3548.9606
 Red. masses --      1.0991                 1.0495                 1.0922
 Frc consts  --      6.3632                 7.3783                 8.1048
 IR Inten    --     25.3799                 2.2279                 0.1380

 - Thermochemistry -
 -------------------
 Temperature   298.150 Kelvin.  Pressure   1.00000 Atm.
 Atom     1 has atomic number  6 and mass  12.00000

 Molecular mass:   183.16231 amu.
 Principal axes and moments of inertia in atomic units:
                           1         2         3
     Eigenvalues --  1175.825364398.269174941.84431
           X            0.99999  -0.00346  -0.00249
           Y            0.00351   0.99983   0.01805
           Z            0.00243  -0.01806   0.99983
 This molecule is an asymmetric top.
 Rotational symmetry number  1.
 Warning -- assumption of classical behavior for rotation
           may cause significant error
 Rotational temperatures (Kelvin)      0.07366     0.01969     0.01753
 Rotational constants (GHZ):           1.53487     0.41033     0.36520
 Zero-point vibrational energy     827978.7 (Joules/Mol)
                                  197.89167 (Kcal/Mol)
 Warning -- explicit consideration of  17 degrees of freedom as
           vibrations may cause significant error
 Vibrational temperatures:     30.20    45.73    98.60   114.47   147.77
          (Kelvin)            169.78   212.32   257.56   402.29   412.27
                              494.45   569.64   577.66   605.63   697.93
                              713.04   874.41   907.54  1001.67  1059.09
                             1115.37  1172.50  1193.74  1215.02  1263.61
                             1293.18  1304.00  1324.68  1337.63  1349.18
                             1381.14  1397.01  1425.58  1438.62  1447.83
                             1499.78  1523.33  1538.88  1560.74  1586.39
                             1603.79  1632.62  1659.92  1716.55  1741.63
                             1750.84  1765.13  1768.72  1788.18  1811.65
                             1831.07  1842.39  1863.19  1892.15  1911.96
                             1920.08  1936.66  1939.41  1951.81  1965.81
                             1973.03  2006.68  2023.63  2037.95  2042.33
                             2081.45  2178.44  2183.29  2192.74  2195.93
                             2200.32  2226.48  2230.01  2248.65  2439.48
                             4301.27  4321.41  4335.77  4365.86  4371.06
                             4376.69  4378.60  4393.25  4399.88  4413.60
                             4419.06  4426.64  4434.66  4440.41  4454.53
                             4457.61  4481.98  4493.13  4510.07  4970.06
                             5106.16

 Zero-point correction=                           0.315360 (Hartree/Particle)
 Thermal correction to Energy=                    0.328641
 Thermal correction to Enthalpy=                  0.329585
 Thermal correction to Gibbs Free Energy=         0.273431
 Sum of electronic and zero-point Energies=           -561.513449
 Sum of electronic and thermal Energies=              -561.500168
 Sum of electronic and thermal Enthalpies=            -561.499224
 Sum of electronic and thermal Free Energies=         -561.555379

                     E (Thermal)             CV                S
                      KCal/Mol        Cal/Mol-Kelvin    Cal/Mol-Kelvin
 Total                  206.225             50.558            118.187
 Electronic               0.000              0.000              0.000
 Translational            0.889              2.981             41.522
 Rotational               0.889              2.981             31.614
 Vibrational            204.448             44.597             45.051
 Vibration     1          0.593              1.986              6.538
 Vibration     2          0.594              1.983              5.715
 Vibration     3          0.598              1.969              4.195
 Vibration     4          0.600              1.963              3.902
 Vibration     5          0.605              1.947              3.402
 Vibration     6          0.608              1.934              3.133
 Vibration     7          0.617              1.905              2.703
 Vibration     8          0.629              1.868              2.339
 Vibration     9          0.680              1.711              1.536
 Vibration    10          0.684              1.699              1.494
 Vibration    11          0.722              1.588              1.195
 Vibration    12          0.763              1.479              0.978
 Vibration    13          0.767              1.467              0.957
 Vibration    14          0.783              1.425              0.889
 Vibration    15          0.841              1.283              0.696
 Vibration    16          0.851              1.260              0.669
 Vibration    17          0.967              1.015              0.437

                           ! Non-Optimized Parameters !
 Normal termination of Gaussian 16 at Mon Dec 14 13:33:11 2020.

 ----------------------------------------------------------------------
 # B3LYP/6-311++G(d,p) empiricaldispersion=gd3bj scf=xqc pop=npa geom=c
 heck
 ----------------------------------------------------------------------

 --------------------------------------
 CID_65330233_JID_3784_Energie_neutraal
 --------------------------------------
 Structure from the checkpoint file:  "JID_3784.chk"
 Charge =  0 Multiplicity = 1

 SCF Done:  E(RB3LYP) =  -561.991795551     A.U. after   13 cycles
 Normal termination of Gaussian 16 at Mon Dec 14 13:37:32 2020.

 ----------------------------------------------------------------------
 # B3LYP/6-311++G(d,p) empiricaldispersion=gd3bj scf=xqc pop=npa geom=c
 heck
 ----------------------------------------------------------------------

 ------------------------------------
 CID_65330233_JID_3784_Energie_kation
 ------------------------------------
 Structure from the checkpoint file:  "JID_3784.chk"
 Charge =  1 Multiplicity = 2

 SCF Done:  E(UB3LYP) =  -561.670283620     A.U. after   26 cycles
 Normal termination of Gaussian 16 at Mon Dec 14 13:50:06 2020.
 Gaussian 16:  ES64L-G16RevA.03 25-Dec-2016

 ----------------------------------------------------------------------
 # B3LYP/6-311++G(d,p) empiricaldispersion=gd3bj scf=xqc pop=npa geom=c
 heck
 ----------------------------------------------------------------------

 -----------------------------------
 CID_65330233_JID_3784_Energie_anion
 -----------------------------------
 Structure from the checkpoint file:  "JID_3784.chk"
 Charge = -1 Multiplicity = 2

                         Standard orientation:
 ---------------------------------------------------------------------
 Center     Atomic      Atomic             Coordinates (Angstroms)
 Number     Number       Type             X           Y           Z
 ---------------------------------------------------------------------
      1          6           0        3.311638   -1.279019   -0.542688
      2          6           0        3.978827   -0.333075    0.499933
      3          6           0        2.978341    0.828016    0.711376
      4          6           0        1.618439    0.283532    0.235448
      5          6           0        2.023725   -0.558241   -0.987571
      6          6           0        0.588866    1.379702   -0.040998
      7          6           0       -0.822287    0.902668   -0.418644
      8          6           0       -1.467507    0.078967    0.750100
      9          6           0       -1.415100   -1.437980    0.471778
     10          6           0       -2.670718   -1.661110   -0.402249
     11          8           0       -3.512467   -0.511737   -0.221371
     12          6           0       -2.981984    0.246579    0.863450
     13          7           0       -1.575752    2.063407   -0.902852
     14          1           0        3.058694   -2.237355   -0.074285
     15          1           0        3.970889   -1.505611   -1.386657
     16          1           0        4.160079   -0.866150    1.439503
     17          1           0        4.951010    0.034598    0.156483
     18          1           0        3.253488    1.685641    0.082586
     19          1           0        2.950183    1.186085    1.746388
     20          1           0        1.236791   -0.396754    1.011633
     21          1           0        2.233058    0.119245   -1.827144
     22          1           0        1.246725   -1.252740   -1.324142
     23          1           0        0.504214    2.027134    0.846392
     24          1           0        0.955199    2.016626   -0.855549
     25          1           0       -0.736711    0.236387   -1.286539
     26          1           0       -0.979073    0.333165    1.698832
     27          1           0       -1.490491   -2.001992    1.407808
     28          1           0       -0.497943   -1.751936   -0.032260
     29          1           0       -2.429462   -1.731936   -1.469220
     30          1           0       -3.213422   -2.570912   -0.114089
     31          1           0       -3.339720   -0.142463    1.831298
     32          1           0       -3.336376    1.274379    0.756981
     33          1           0       -2.499189    1.763466   -1.211248
     34          1           0       -1.721381    2.730928   -0.145451
 ---------------------------------------------------------------------

 SCF Done:  E(UB3LYP) =  -561.977118806     A.U. after   29 cycles

 The electronic state is 2-A.
 Alpha  occ. eigenvalues --  -19.02124 -14.19231 -10.11353 -10.10907 -10.09718
 Alpha  occ. eigenvalues --  -10.07135 -10.06818 -10.06776 -10.06433 -10.06410
 Alpha  occ. eigenvalues --  -10.06305 -10.06218 -10.06145  -0.93726  -0.79070
 Alpha  occ. eigenvalues --   -0.73953  -0.68918  -0.65125  -0.63577  -0.60922
 Alpha  occ. eigenvalues --   -0.58190  -0.51726  -0.49274  -0.47672  -0.46453
 Alpha  occ. eigenvalues --   -0.45461  -0.40718  -0.40188  -0.38298  -0.38103
 Alpha  occ. eigenvalues --   -0.35747  -0.34924  -0.33528  -0.32770  -0.31503
 Alpha  occ. eigenvalues --   -0.31297  -0.30006  -0.28122  -0.26761  -0.25009
 Alpha  occ. eigenvalues --   -0.24539  -0.24009  -0.23757  -0.23313  -0.22784
 Alpha  occ. eigenvalues --   -0.21927  -0.21757  -0.21377  -0.20939  -0.15631
 Alpha  occ. eigenvalues --   -0.14448   0.04553
 Alpha virt. eigenvalues --    0.06616   0.07222   0.07497   0.08585   0.08717
 Alpha virt. eigenvalues --    0.09224   0.09963   0.10341   0.10991   0.11375
 Alpha virt. eigenvalues --    0.11646   0.11989   0.12231   0.13518   0.13812

  Beta  occ. eigenvalues --  -19.02124 -14.19215 -10.11336 -10.10879 -10.09714
  Beta  occ. eigenvalues --  -10.07122 -10.06810 -10.06751 -10.06415 -10.06392
  Beta  occ. eigenvalues --  -10.06293 -10.06204 -10.06133  -0.93717  -0.79042
  Beta  occ. eigenvalues --   -0.73927  -0.68880  -0.65091  -0.63531  -0.60886
  Beta  occ. eigenvalues --   -0.58151  -0.51678  -0.49215  -0.47627  -0.46400
  Beta  occ. eigenvalues --   -0.45419  -0.40672  -0.40165  -0.38261  -0.38054
  Beta  occ. eigenvalues --   -0.35716  -0.34889  -0.33494  -0.32732  -0.31481
  Beta  occ. eigenvalues --   -0.31265  -0.29979  -0.28089  -0.26733  -0.24965
  Beta  occ. eigenvalues --   -0.24505  -0.23975  -0.23718  -0.23285  -0.22749
  Beta  occ. eigenvalues --   -0.21895  -0.21734  -0.21352  -0.20909  -0.15609
  Beta  occ. eigenvalues --   -0.14425
  Beta virt. eigenvalues --    0.06704   0.07311   0.07905   0.08096   0.08997
  Beta virt. eigenvalues --    0.09207   0.09520   0.10409   0.10729   0.11341
  Beta virt. eigenvalues --    0.11672   0.12004   0.12142   0.12564   0.13772

 Mulliken charges and spin densities:
               1          2
     1  C    0.029213  -0.575186
     2  C    0.194599  -0.545327
     3  C    0.231771  -0.883363
     4  C   -0.293457   1.175122
     5  C    0.125900  -0.489295
     6  C    0.269172  -1.004238
     7  C    0.347581  -0.552299
     8  C   -1.812762   2.114200
     9  C    1.441953  -1.806519
    10  C   -0.302704  -0.066840
    11  O   -0.139987   0.020750
    12  C    0.537887  -1.285368
    13  N   -0.242357  -0.051888
    14  H   -0.239324   0.391710
    15  H   -0.031099   0.168827
    16  H   -0.179122   0.333994
    17  H    0.019354   0.112250
    18  H    0.048029   0.075883
    19  H   -0.262731   0.418065
    20  H    0.234682  -0.060239
    21  H    0.033545   0.109858
    22  H    0.097201   0.042759
    23  H    0.017094   0.152986
    24  H    0.170836  -0.005927
    25  H    0.198929   0.057400
    26  H   -0.637613   0.867163
    27  H   -0.362104   0.552736
    28  H    0.046908   0.048423
    29  H   -0.009411   0.166087
    30  H   -0.235846   0.391436
    31  H   -0.317968   0.477544
    32  H   -0.234065   0.419056
    33  H    0.157395   0.098215
    34  H    0.098501   0.132024
 Sum of Mulliken charges =  -1.00000   1.00000

 Dipole moment (field-independent basis, Debye):
    X=              1.2180    Y=              1.8686    Z=             -4.0927  Tot=              4.6611
 Quadrupole moment (field-independent basis, Debye-Ang):
   XX=           -152.4068   YY=           -125.3792   ZZ=           -124.5963
   XY=              1.2108   XZ=              1.0543   YZ=              3.8025

 Summary of Natural Population Analysis:

                                       Natural Population
                Natural  -----------------------------------------------
    Atom  No    Charge         Core      Valence    Rydberg      Total
 -----------------------------------------------------------------------
      C    1   -0.19213      0.99965     2.18482    0.00767     3.19213
      C    2   -0.19289      0.99965     2.18586    0.00738     3.19289
      C    3   -0.18585      0.99963     2.17732    0.00890     3.18585
      C    4   -0.11533      0.99959     2.10533    0.01042     3.11533
      C    5   -0.18890      0.99962     2.18122    0.00806     3.18890
      C    6   -0.18502      0.99959     2.17466    0.01077     3.18502
      C    7   -0.01179      0.99958     1.99924    0.01297     3.01179
      C    8   -0.13338      0.99958     2.12050    0.01330     3.13338
      C    9   -0.20634      0.99962     2.19744    0.00928     3.20634
      C   10   -0.01066      0.99960     1.99936    0.01170     3.01066
      O   11   -0.30842      0.99990     3.29997    0.00855     4.30842
      C   12   -0.01029      0.99956     1.99613    0.01460     3.01029
      N   13   -0.42132      0.99977     2.91207    0.00948     3.92132
      H   14    0.09790      0.00000     0.40067    0.00142     0.40210
      H   15    0.09591      0.00000     0.40319    0.00090     0.40409
      H   16    0.09858      0.00000     0.40014    0.00128     0.40142
      H   17    0.09481      0.00000     0.40427    0.00091     0.40519
      H   18    0.09120      0.00000     0.40757    0.00123     0.40880
      H   19    0.10221      0.00000     0.39678    0.00101     0.39779
      H   20    0.09786      0.00000     0.39959    0.00255     0.40214
      H   21    0.09212      0.00000     0.40669    0.00119     0.40788
      H   22    0.10021      0.00000     0.39869    0.00110     0.39979
      H   23    0.09606      0.00000     0.40271    0.00124     0.40394
      H   24    0.10084      0.00000     0.39781    0.00135     0.39916
      H   25    0.08855      0.00000     0.40926    0.00219     0.41145
      H   26    0.10753      0.00000     0.39000    0.00247     0.39247
      H   27    0.10365      0.00000     0.39418    0.00217     0.39635
      H   28    0.10547      0.00000     0.39295    0.00158     0.39453
      H   29    0.08276      0.00000     0.41591    0.00133     0.41724
      H   30    0.08472      0.00000     0.41385    0.00143     0.41528
      H   31    0.08331      0.00000     0.41480    0.00189     0.41669
      H   32    0.09038      0.00000     0.40784    0.00178     0.40962
      H   33    0.17770      0.00000     0.32029    0.00201     0.32230
      H   34    0.17054      0.00000     0.32777    0.00168     0.32946
 =======================================================================
   * Total *   -0.00000     12.99532    37.83889    0.16579    51.00000

 Normal termination of Gaussian 16 at Mon Dec 14 14:03:35 2020.
