 Gaussian 16, Revision A.03,

 -----------------------------------------------------------
 # opt freq B3LYP/6-31G(d) empiricaldispersion=gd3bj scf=xqc
 -----------------------------------------------------------

 ------------------------------
 CID_54213588_JID_2236_neutraal
 ------------------------------
 Symbolic Z-matrix:
 Charge =  0 Multiplicity = 1

 SCF Done:  E(RB3LYP) =  -636.258188014     A.U. after   16 cycles
 SCF Done:  E(RB3LYP) =  -636.275067218     A.U. after   16 cycles
 SCF Done:  E(RB3LYP) =  -636.269428623     A.U. after   17 cycles
 SCF Done:  E(RB3LYP) =  -636.276819092     A.U. after   15 cycles
 SCF Done:  E(RB3LYP) =  -636.278197214     A.U. after   15 cycles
 SCF Done:  E(RB3LYP) =  -636.279501105     A.U. after   14 cycles
 SCF Done:  E(RB3LYP) =  -636.280628415     A.U. after   14 cycles
 SCF Done:  E(RB3LYP) =  -636.281366663     A.U. after   14 cycles
 SCF Done:  E(RB3LYP) =  -636.282423316     A.U. after   15 cycles
 SCF Done:  E(RB3LYP) =  -636.283987117     A.U. after   15 cycles
 SCF Done:  E(RB3LYP) =  -636.285476764     A.U. after   14 cycles
 SCF Done:  E(RB3LYP) =  -636.285664811     A.U. after   14 cycles
 SCF Done:  E(RB3LYP) =  -636.285748678     A.U. after   13 cycles
 SCF Done:  E(RB3LYP) =  -636.285769801     A.U. after   12 cycles
 SCF Done:  E(RB3LYP) =  -636.285771295     A.U. after   10 cycles
 SCF Done:  E(RB3LYP) =  -636.285771734     A.U. after    9 cycles
 Optimization completed.
    -- Stationary point found.
 Normal termination of Gaussian 16 at Wed Dec  9 16:56:58 2020.

 --------------------------------------------------------------------
 #N Geom=AllCheck Guess=TCheck SCRF=Check GenChk RB3LYP/6-31G(d) Freq
 --------------------------------------------------------------------

 Structure from the checkpoint file:  "JID_2236.chk"
 ------------------------------
 CID_54213588_JID_2236_neutraal
 ------------------------------
 Charge =  0 Multiplicity = 1

 SCF Done:  E(RB3LYP) =  -636.285771734     A.U. after    1 cycles

  Exact polarizability: 131.098  -2.631  89.740   1.803   1.485  35.330
 Approx polarizability: 250.225   7.655 163.678  11.173   7.796  60.582

                      1                      2                      3
                      A                      A                      A
 Frequencies --     50.7514                62.7430               132.8678
 Red. masses --     15.7016                11.3414                 7.3129
 Frc consts  --      0.0238                 0.0263                 0.0761
 IR Inten    --      0.0305                 1.2245                 1.6023

                      4                      5                      6
                      A                      A                      A
 Frequencies --    138.5178               252.6224               261.5389
 Red. masses --     12.0277                 9.2149                12.1906
 Frc consts  --      0.1360                 0.3465                 0.4913
 IR Inten    --      1.1147                 6.8608                 2.7136

                      7                      8                      9
                      A                      A                      A
 Frequencies --    345.6580               388.7855               439.2370
 Red. masses --     11.3702                 6.1589                 7.4565
 Frc consts  --      0.8004                 0.5485                 0.8476
 IR Inten    --      1.1741                 6.0419                 9.2433

                     10                     11                     12
                      A                      A                      A
 Frequencies --    480.1396               538.9004               574.5662
 Red. masses --      9.4636                 6.4978                12.3008
 Frc consts  --      1.2854                 1.1118                 2.3926
 IR Inten    --      8.5876                 1.2520                24.6989

                     13                     14                     15
                      A                      A                      A
 Frequencies --    587.1797               613.6280               699.9619
 Red. masses --      9.2946                 9.5723                 9.6236
 Frc consts  --      1.8881                 2.1236                 2.7780
 IR Inten    --     20.0264                26.4556                 3.3704

                     16                     17                     18
                      A                      A                      A
 Frequencies --    727.5038               794.9819               813.7067
 Red. masses --      7.8958                10.3567                10.8936
 Frc consts  --      2.4622                 3.8564                 4.2497
 IR Inten    --      3.3050                 2.5561                36.4674

                     19                     20                     21
                      A                      A                      A
 Frequencies --    878.4080               880.2894               997.3894
 Red. masses --      9.8580                 1.3467                 1.3586
 Frc consts  --      4.4816                 0.6148                 0.7963
 IR Inten    --     29.3063                21.9757                 0.2678

                     22                     23                     24
                      A                      A                      A
 Frequencies --   1085.8202              1134.9177              1169.4914
 Red. masses --      2.9812                 8.7704                 2.2566
 Frc consts  --      2.0709                 6.6558                 1.8184
 IR Inten    --      3.7504                24.6354                11.2048

                     25                     26                     27
                      A                      A                      A
 Frequencies --   1200.8906              1243.4773              1375.7316
 Red. masses --      7.1947                 2.4222                 3.7851
 Frc consts  --      6.1132                 2.2067                 4.2208
 IR Inten    --     28.8755                 6.8866                 6.5946

                     28                     29                     30
                      A                      A                      A
 Frequencies --   1402.5126              1448.7409              1558.0616
 Red. masses --     11.8220                 2.6506                 7.7563
 Frc consts  --     13.7011                 3.2777                11.0937
 IR Inten    --    104.8741                 0.3156                 2.5865

                     31                     32                     33
                      A                      A                      A
 Frequencies --   1581.8696              1625.1047              1677.6355
 Red. masses --      5.7302                 8.7915                12.3038
 Frc consts  --      8.4481                13.6797                20.4026
 IR Inten    --     15.4632               153.3242               384.6548

                     34                     35                     36
                      A                      A                      A
 Frequencies --   2360.4044              3217.5222              3239.5745
 Red. masses --     12.7484                 1.0907                 1.0957
 Frc consts  --     41.8483                 6.6526                 6.7752
 IR Inten    --   1397.8728                 6.8865                 0.8281

 - Thermochemistry -
 -------------------
 Temperature   298.150 Kelvin.  Pressure   1.00000 Atm.
 Atom     1 has atomic number  6 and mass  12.00000

 Molecular mass:   166.01269 amu.
 Principal axes and moments of inertia in atomic units:
                           1         2         3
     Eigenvalues --  1160.940852075.808173175.54048
           X            0.99929  -0.03762   0.00011
           Y            0.03762   0.99929  -0.00102
           Z           -0.00007   0.00102   1.00000
 This molecule is an asymmetric top.
 Rotational symmetry number  1.
 Warning -- assumption of classical behavior for rotation
           may cause significant error
 Rotational temperatures (Kelvin)      0.07461     0.04173     0.02728
 Rotational constants (GHZ):           1.55455     0.86942     0.56833
 Zero-point vibrational energy     215215.0 (Joules/Mol)
                                   51.43761 (Kcal/Mol)
 Warning -- explicit consideration of  14 degrees of freedom as
           vibrations may cause significant error
 Vibrational temperatures:     73.02    90.27   191.17   199.30   363.47
          (Kelvin)            376.30   497.32   559.38   631.96   690.81
                              775.36   826.67   844.82   882.87  1007.09
                             1046.72  1143.80  1170.74  1263.83  1266.54
                             1435.02  1562.25  1632.89  1682.64  1727.81
                             1789.09  1979.37  2017.90  2084.42  2241.70
                             2275.96  2338.16  2413.74  3396.10  4629.30
                             4661.03

 Zero-point correction=                           0.081971 (Hartree/Particle)
 Thermal correction to Energy=                    0.091281
 Thermal correction to Enthalpy=                  0.092225
 Thermal correction to Gibbs Free Energy=         0.045996
 Sum of electronic and zero-point Energies=           -636.203801
 Sum of electronic and thermal Energies=              -636.194491
 Sum of electronic and thermal Enthalpies=            -636.193547
 Sum of electronic and thermal Free Energies=         -636.239776

                     E (Thermal)             CV                S
                      KCal/Mol        Cal/Mol-Kelvin    Cal/Mol-Kelvin
 Total                   57.280             33.318             97.297
 Electronic               0.000              0.000              0.000
 Translational            0.889              2.981             41.229
 Rotational               0.889              2.981             30.416
 Vibrational             55.502             27.357             25.653
 Vibration     1          0.595              1.977              4.788
 Vibration     2          0.597              1.972              4.369
 Vibration     3          0.613              1.921              2.904
 Vibration     4          0.614              1.915              2.824
 Vibration     5          0.664              1.758              1.712
 Vibration     6          0.669              1.743              1.651
 Vibration     7          0.724              1.584              1.186
 Vibration     8          0.757              1.494              1.005
 Vibration     9          0.799              1.385              0.829
 Vibration    10          0.837              1.294              0.710
 Vibration    11          0.894              1.164              0.568
 Vibration    12          0.931              1.086              0.496
 Vibration    13          0.944              1.059              0.472
 Vibration    14          0.973              1.003              0.427

                           ! Non-Optimized Parameters !
 Normal termination of Gaussian 16 at Wed Dec  9 17:00:01 2020.

 ----------------------------------------------------------------------
 # B3LYP/6-311++G(d,p) empiricaldispersion=gd3bj scf=xqc pop=npa geom=c
 heck
 ----------------------------------------------------------------------

 --------------------------------------
 CID_54213588_JID_2236_Energie_neutraal
 --------------------------------------
 Structure from the checkpoint file:  "JID_2236.chk"
 Charge =  0 Multiplicity = 1

 SCF Done:  E(RB3LYP) =  -636.465195537     A.U. after   17 cycles
 Normal termination of Gaussian 16 at Wed Dec  9 17:01:26 2020.

 ----------------------------------------------------------------------
 # B3LYP/6-311++G(d,p) empiricaldispersion=gd3bj scf=xqc pop=npa geom=c
 heck
 ----------------------------------------------------------------------

 ------------------------------------
 CID_54213588_JID_2236_Energie_kation
 ------------------------------------
 Structure from the checkpoint file:  "JID_2236.chk"
 Charge =  1 Multiplicity = 2

 SCF Done:  E(UB3LYP) =  -636.100431183     A.U. after   30 cycles
 Normal termination of Gaussian 16 at Wed Dec  9 17:04:50 2020.
 Gaussian 16:  ES64L-G16RevA.03 25-Dec-2016

 ----------------------------------------------------------------------
 # B3LYP/6-311++G(d,p) empiricaldispersion=gd3bj scf=xqc pop=npa geom=c
 heck
 ----------------------------------------------------------------------

 -----------------------------------
 CID_54213588_JID_2236_Energie_anion
 -----------------------------------
 Structure from the checkpoint file:  "JID_2236.chk"
 Charge = -1 Multiplicity = 2

                         Standard orientation:
 ---------------------------------------------------------------------
 Center     Atomic      Atomic             Coordinates (Angstroms)
 Number     Number       Type             X           Y           Z
 ---------------------------------------------------------------------
      1          6           0        1.323025   -1.739797    0.061521
      2          6           0        2.590531   -1.179452   -0.028515
      3          7           0        2.822523    0.139508   -0.114311
      4          7           0        1.780526    0.956030   -0.096166
      5          6           0        0.548618    0.480790   -0.018142
      6          6           0        0.213489   -0.891187    0.054444
      7          7           0       -1.032436   -1.455034    0.160506
      8          6           0       -2.200201   -1.100520    0.064122
      9          8           0       -3.360451   -0.989616    0.022163
     10          7           0       -0.485688    1.538644   -0.021167
     11          8           0       -0.203018    2.622393    0.453600
     12          8           0       -1.574224    1.234861   -0.526203
     13          1           0        1.174867   -2.811095    0.134101
     14          1           0        3.479430   -1.803051   -0.033186
 ---------------------------------------------------------------------

 SCF Done:  E(UB3LYP) =  -636.524977572     A.U. after   25 cycles

 The electronic state is 2-A.
 Alpha  occ. eigenvalues --  -19.05735 -18.96209 -18.96100 -14.33878 -14.22968
 Alpha  occ. eigenvalues --  -14.21433 -14.20749 -10.19932 -10.12446 -10.10399
 Alpha  occ. eigenvalues --  -10.07617 -10.07246  -1.04431  -0.99894  -0.89216
 Alpha  occ. eigenvalues --   -0.87496  -0.85096  -0.71007  -0.70086  -0.58859
 Alpha  occ. eigenvalues --   -0.56222  -0.49013  -0.46255  -0.40757  -0.40048
 Alpha  occ. eigenvalues --   -0.38097  -0.36703  -0.35450  -0.34877  -0.33423
 Alpha  occ. eigenvalues --   -0.32352  -0.30188  -0.29947  -0.24249  -0.21597
 Alpha  occ. eigenvalues --   -0.19453  -0.17642  -0.15156  -0.14352  -0.13211
 Alpha  occ. eigenvalues --   -0.11910  -0.10745   0.01155
 Alpha virt. eigenvalues --    0.06690   0.08300   0.10254   0.11276   0.12324
 Alpha virt. eigenvalues --    0.13467   0.15086   0.15140   0.16366   0.16476
 Alpha virt. eigenvalues --    0.17458   0.18393   0.18915   0.19300   0.19423

  Beta  occ. eigenvalues --  -19.05679 -18.95772 -18.95557 -14.33333 -14.23005
  Beta  occ. eigenvalues --  -14.21536 -14.20536 -10.19860 -10.12284 -10.10217
  Beta  occ. eigenvalues --  -10.07339 -10.07278  -1.03440  -0.99785  -0.88960
  Beta  occ. eigenvalues --   -0.86677  -0.84921  -0.70588  -0.69742  -0.58085
  Beta  occ. eigenvalues --   -0.55937  -0.48578  -0.45822  -0.40392  -0.39914
  Beta  occ. eigenvalues --   -0.37568  -0.35737  -0.34791  -0.33679  -0.32904
  Beta  occ. eigenvalues --   -0.31742  -0.29812  -0.29100  -0.23761  -0.21528
  Beta  occ. eigenvalues --   -0.19365  -0.16368  -0.13874  -0.12785  -0.11905
  Beta  occ. eigenvalues --   -0.11381  -0.10364
  Beta virt. eigenvalues --    0.07044   0.08137   0.08323   0.10300   0.12298
  Beta virt. eigenvalues --    0.13432   0.14304   0.15112   0.15353   0.16366
  Beta virt. eigenvalues --    0.16659   0.17466   0.18884   0.19015   0.19336

 Mulliken charges and spin densities:
               1          2
     1  C    0.032303  -0.055761
     2  C   -0.434130   0.226664
     3  N   -0.102080  -0.064488
     4  N    0.047983   0.098539
     5  C   -0.482365   0.101318
     6  C    0.246723   0.126557
     7  N   -0.101364  -0.019975
     8  C    0.408035   0.041580
     9  O   -0.296574   0.016297
    10  N   -0.331326   0.183509
    11  O   -0.105131   0.201833
    12  O   -0.193384   0.155850
    13  H    0.175696   0.004475
    14  H    0.135616  -0.016397
 Sum of Mulliken charges =  -1.00000   1.00000

 Dipole moment (field-independent basis, Debye):
    X=              0.5211    Y=             -6.9113    Z=              0.3376  Tot=              6.9392
 Quadrupole moment (field-independent basis, Debye-Ang):
   XX=            -99.8905   YY=            -88.0112   ZZ=            -70.3728
   XY=             -3.4206   XZ=             -1.0028   YZ=             -0.8267

 Summary of Natural Population Analysis:

                                       Natural Population
                Natural  -----------------------------------------------
    Atom  No    Charge         Core      Valence    Rydberg      Total
 -----------------------------------------------------------------------
      C    1   -0.12715      0.99954     2.11925    0.00836     3.12715
      C    2    0.05516      0.99961     1.93045    0.01477     2.94484
      N    3   -0.15485      0.99974     2.63778    0.01733     3.65485
      N    4   -0.07760      0.99967     2.56244    0.01549     3.57760
      C    5    0.16370      0.99943     1.82196    0.01492     2.83630
      C    6    0.09606      0.99940     1.89206    0.01248     2.90394
      N    7   -0.29507      0.99949     2.78480    0.01079     3.79507
      C    8    0.46146      0.99962     1.51943    0.01949     2.53854
      O    9   -0.24469      0.99986     3.23766    0.00717     4.24469
      N   10    0.29158      0.99974     2.17974    0.02895     3.20842
      O   11   -0.14789      0.99989     3.13947    0.00853     4.14789
      O   12   -0.20625      0.99990     3.19747    0.00889     4.20625
      H   13    0.10182      0.00000     0.39699    0.00119     0.39818
      H   14    0.08372      0.00000     0.41491    0.00137     0.41628
 =======================================================================
   * Total *   -0.00000     11.99588    29.83440    0.16972    42.00000

 Normal termination of Gaussian 16 at Wed Dec  9 17:08:13 2020.
