 Gaussian 16, Revision A.03,

 -----------------------------------------------------------
 # opt freq B3LYP/6-31G(d) empiricaldispersion=gd3bj scf=xqc
 -----------------------------------------------------------

 ------------------------------
 CID_53749959_JID_6143_neutraal
 ------------------------------
 Symbolic Z-matrix:
 Charge =  0 Multiplicity = 1

 SCF Done:  E(RB3LYP) =  -785.123326854     A.U. after   15 cycles
 SCF Done:  E(RB3LYP) =  -785.127444569     A.U. after   13 cycles
 SCF Done:  E(RB3LYP) =  -785.127938306     A.U. after   15 cycles
 SCF Done:  E(RB3LYP) =  -785.129358303     A.U. after   15 cycles
 SCF Done:  E(RB3LYP) =  -785.129481641     A.U. after   13 cycles
 SCF Done:  E(RB3LYP) =  -785.129899913     A.U. after   12 cycles
 SCF Done:  E(RB3LYP) =  -785.130170485     A.U. after   12 cycles
 SCF Done:  E(RB3LYP) =  -785.130403429     A.U. after   11 cycles
 SCF Done:  E(RB3LYP) =  -785.130438954     A.U. after   11 cycles
 SCF Done:  E(RB3LYP) =  -785.130498723     A.U. after   11 cycles
 SCF Done:  E(RB3LYP) =  -785.130557991     A.U. after   11 cycles
 SCF Done:  E(RB3LYP) =  -785.130575005     A.U. after   11 cycles
 SCF Done:  E(RB3LYP) =  -785.130579183     A.U. after    9 cycles
 SCF Done:  E(RB3LYP) =  -785.130579691     A.U. after    8 cycles
 SCF Done:  E(RB3LYP) =  -785.130580039     A.U. after    9 cycles
 SCF Done:  E(RB3LYP) =  -785.130580153     A.U. after    8 cycles
 Optimization completed.
    -- Stationary point found.
 Normal termination of Gaussian 16 at Thu Dec 10 21:19:49 2020.

 --------------------------------------------------------------------
 #N Geom=AllCheck Guess=TCheck SCRF=Check GenChk RB3LYP/6-31G(d) Freq
 --------------------------------------------------------------------

 Structure from the checkpoint file:  "JID_6143.chk"
 ------------------------------
 CID_53749959_JID_6143_neutraal
 ------------------------------
 Charge =  0 Multiplicity = 1

 SCF Done:  E(RB3LYP) =  -785.130580153     A.U. after    1 cycles

  Exact polarizability: 140.732  -5.105 129.571  -1.902   1.728 105.894
 Approx polarizability: 181.444 -22.016 201.695  -5.211   1.690 157.239

                      1                      2                      3
                      A                      A                      A
 Frequencies --     24.9247                32.6295                45.5992
 Red. masses --      5.9030                 5.8551                 7.7387
 Frc consts  --      0.0022                 0.0037                 0.0095
 IR Inten    --      1.5831                 1.8377                 0.7302

                      4                      5                      6
                      A                      A                      A
 Frequencies --     65.1957                85.7165                97.2425
 Red. masses --      7.3269                 6.1209                 5.4052
 Frc consts  --      0.0183                 0.0265                 0.0301
 IR Inten    --      5.3027                 2.0608                 3.7387

                      7                      8                      9
                      A                      A                      A
 Frequencies --    138.6387               143.7840               171.1583
 Red. masses --      1.4343                 3.4711                 5.0009
 Frc consts  --      0.0162                 0.0423                 0.0863
 IR Inten    --      0.3054                 2.4102                 2.3617

                     10                     11                     12
                      A                      A                      A
 Frequencies --    184.3341               191.3914               209.7367
 Red. masses --      2.5576                 4.3787                 2.2826
 Frc consts  --      0.0512                 0.0945                 0.0592
 IR Inten    --      1.8060                 0.9613                 0.1473

                     13                     14                     15
                      A                      A                      A
 Frequencies --    215.9975               224.5610               285.1990
 Red. masses --      1.1160                 3.3429                 2.7446
 Frc consts  --      0.0307                 0.0993                 0.1315
 IR Inten    --      0.2427                 4.9289                 3.1688

                     16                     17                     18
                      A                      A                      A
 Frequencies --    303.6729               319.0723               344.7174
 Red. masses --      2.1594                 2.7948                 3.2387
 Frc consts  --      0.1173                 0.1676                 0.2267
 IR Inten    --      0.3441                 3.0041                 2.7614

                     19                     20                     21
                      A                      A                      A
 Frequencies --    350.7554               366.0926               395.1136
 Red. masses --      3.5200                 2.9571                 3.1591
 Frc consts  --      0.2552                 0.2335                 0.2906
 IR Inten    --      1.1139                11.1539                 1.1564

                     22                     23                     24
                      A                      A                      A
 Frequencies --    417.3543               451.2211               492.7223
 Red. masses --      6.9209                 4.0921                 2.7447
 Frc consts  --      0.7103                 0.4909                 0.3926
 IR Inten    --      3.9048                 5.9843                 3.7843

                     25                     26                     27
                      A                      A                      A
 Frequencies --    579.3484               603.5234               629.6729
 Red. masses --      3.7309                 2.6677                 1.6424
 Frc consts  --      0.7378                 0.5725                 0.3837
 IR Inten    --      1.7516                15.2517                50.3429

                     28                     29                     30
                      A                      A                      A
 Frequencies --    665.2519               732.4278               744.4705
 Red. masses --      2.5624                 4.4994                 2.3085
 Frc consts  --      0.6681                 1.4221                 0.7538
 IR Inten    --     56.2047                17.2769                20.5991

                     31                     32                     33
                      A                      A                      A
 Frequencies --    775.2063               794.8141               811.9105
 Red. masses --      1.7247                 2.5344                 1.2793
 Frc consts  --      0.6106                 0.9433                 0.4969
 IR Inten    --     27.7098                 3.1795                13.2202

                     34                     35                     36
                      A                      A                      A
 Frequencies --    822.0340               846.9854               906.0878
 Red. masses --      3.0863                 3.3055                 2.1715
 Frc consts  --      1.2288                 1.3971                 1.0504
 IR Inten    --      9.2547                 1.3449                 3.1444

                     37                     38                     39
                      A                      A                      A
 Frequencies --    944.6763               951.0392               969.8662
 Red. masses --      2.6150                 2.4762                 1.8517
 Frc consts  --      1.3750                 1.3196                 1.0262
 IR Inten    --      1.8374                 6.4024                 5.8857

                     40                     41                     42
                      A                      A                      A
 Frequencies --    989.1418              1039.3218              1060.4158
 Red. masses --      2.4957                 1.9512                 2.4896
 Frc consts  --      1.4387                 1.2418                 1.6494
 IR Inten    --     19.0451                 4.1988                35.5465

                     43                     44                     45
                      A                      A                      A
 Frequencies --   1066.7163              1087.3378              1102.1882
 Red. masses --      2.4601                 2.1463                 1.8655
 Frc consts  --      1.6493                 1.4951                 1.3352
 IR Inten    --     11.4219                 0.9399                40.3621

                     46                     47                     48
                      A                      A                      A
 Frequencies --   1117.0420              1155.9861              1177.4536
 Red. masses --      2.3529                 2.7112                 2.6051
 Frc consts  --      1.7298                 2.1346                 2.1280
 IR Inten    --      3.8694               147.2643               139.6271

                     49                     50                     51
                      A                      A                      A
 Frequencies --   1203.3760              1224.2970              1230.3368
 Red. masses --      2.6833                 2.0195                 1.1696
 Frc consts  --      2.2894                 1.7835                 1.0431
 IR Inten    --      5.3793               133.2024                 7.5796

                     52                     53                     54
                      A                      A                      A
 Frequencies --   1251.6026              1277.5719              1334.0248
 Red. masses --      3.1902                 1.4849                 1.1763
 Frc consts  --      2.9444                 1.4279                 1.2334
 IR Inten    --    209.8067                59.4178                11.3935

                     55                     56                     57
                      A                      A                      A
 Frequencies --   1335.9436              1339.2160              1376.4125
 Red. masses --      1.1498                 1.1988                 1.6780
 Frc consts  --      1.2090                 1.2668                 1.8730
 IR Inten    --      7.6333                 2.6680                15.8085

                     58                     59                     60
                      A                      A                      A
 Frequencies --   1386.6881              1399.2404              1407.1576
 Red. masses --      1.3732                 1.5058                 1.4183
 Frc consts  --      1.5558                 1.7370                 1.6547
 IR Inten    --      4.1516                 8.6469                 2.1460

                     61                     62                     63
                      A                      A                      A
 Frequencies --   1409.3409              1431.4884              1438.4134
 Red. masses --      1.6549                 1.3487                 1.2490
 Frc consts  --      1.9367                 1.6283                 1.5225
 IR Inten    --     33.3203                 3.0998                 7.7299

                     64                     65                     66
                      A                      A                      A
 Frequencies --   1444.7710              1502.2288              1513.1864
 Red. masses --      1.2334                 1.0879                 1.0814
 Frc consts  --      1.5168                 1.4465                 1.4589
 IR Inten    --      9.1883                 4.7001                 7.6281

                     67                     68                     69
                      A                      A                      A
 Frequencies --   1514.5427              1521.4841              1522.1217
 Red. masses --      1.0618                 1.0863                 1.0813
 Frc consts  --      1.4350                 1.4816                 1.4761
 IR Inten    --      1.6564                 0.5499                23.7945

                     70                     71                     72
                      A                      A                      A
 Frequencies --   1533.5855              1536.3225              1539.0641
 Red. masses --      1.0501                 1.0518                 1.0481
 Frc consts  --      1.4551                 1.4626                 1.4628
 IR Inten    --      7.2764                 1.6589                 2.1102

                     73                     74                     75
                      A                      A                      A
 Frequencies --   1551.4097              1809.5801              1834.8746
 Red. masses --      1.0542                10.0424                11.4994
 Frc consts  --      1.4949                19.3751                22.8106
 IR Inten    --      0.6931               227.7340               234.7011

                     76                     77                     78
                      A                      A                      A
 Frequencies --   2372.8972              3060.5574              3061.0765
 Red. masses --     12.5959                 1.0640                 1.0657
 Frc consts  --     41.7866                 5.8723                 5.8835
 IR Inten    --      7.1741                 3.2026                30.1175

                     79                     80                     81
                      A                      A                      A
 Frequencies --   3063.3710              3066.5397              3069.4752
 Red. masses --      1.0614                 1.0398                 1.0420
 Frc consts  --      5.8685                 5.7611                 5.7840
 IR Inten    --     14.1073                12.6105                51.0840

                     82                     83                     84
                      A                      A                      A
 Frequencies --   3070.7555              3100.4787              3109.5824
 Red. masses --      1.0628                 1.0699                 1.0919
 Frc consts  --      5.9045                 6.0599                 6.2205
 IR Inten    --     10.9833                15.5087                35.5375

                     85                     86                     87
                      A                      A                      A
 Frequencies --   3113.6318              3114.9144              3120.1136
 Red. masses --      1.0978                 1.0995                 1.0994
 Frc consts  --      6.2707                 6.2856                 6.3061
 IR Inten    --      4.6234                 5.8327                 0.8715

                     88                     89                     90
                      A                      A                      A
 Frequencies --   3127.6546              3131.9016              3159.9027
 Red. masses --      1.0980                 1.0985                 1.1009
 Frc consts  --      6.3283                 6.3483                 6.4767
 IR Inten    --     63.6399                 6.6012                18.5133

                     91                     92                     93
                      A                      A                      A
 Frequencies --   3160.5288              3166.2196              3671.7850
 Red. masses --      1.1098                 1.1003                 1.0639
 Frc consts  --      6.5313                 6.4990                 8.4507
 IR Inten    --      7.6966                11.9106                55.5209

 - Thermochemistry -
 -------------------
 Temperature   298.150 Kelvin.  Pressure   1.00000 Atm.
 Atom     1 has atomic number  6 and mass  12.00000

 Molecular mass:   227.11576 amu.
 Principal axes and moments of inertia in atomic units:
                           1         2         3
     Eigenvalues --  2118.693105174.138925745.65604
           X            0.99932   0.03697   0.00023
           Y           -0.03696   0.99883   0.03129
           Z            0.00093  -0.03127   0.99951
 This molecule is an asymmetric top.
 Rotational symmetry number  1.
 Warning -- assumption of classical behavior for rotation
           may cause significant error
 Rotational temperatures (Kelvin)      0.04088     0.01674     0.01507
 Rotational constants (GHZ):           0.85182     0.34880     0.31411
 Zero-point vibrational energy     728163.4 (Joules/Mol)
                                  174.03523 (Kcal/Mol)
 Warning -- explicit consideration of  26 degrees of freedom as
           vibrations may cause significant error
 Vibrational temperatures:     35.86    46.95    65.61    93.80   123.33
          (Kelvin)            139.91   199.47   206.87   246.26   265.22
                              275.37   301.76   310.77   323.09   410.34
                              436.92   459.07   495.97   504.66   526.73
                              568.48   600.48   649.21   708.92   833.55
                              868.34   905.96   957.15  1053.80  1071.13
                             1115.35  1143.56  1168.16  1182.72  1218.62
                             1303.66  1359.18  1368.33  1395.42  1423.15
                             1495.35  1525.70  1534.77  1564.44  1585.80
                             1607.17  1663.21  1694.09  1731.39  1761.49
                             1770.18  1800.78  1838.14  1919.36  1922.12
                             1926.83  1980.35  1995.13  2013.19  2024.59
                             2027.73  2059.59  2069.56  2078.70  2161.37
                             2177.14  2179.09  2189.08  2189.99  2206.49
                             2210.43  2214.37  2232.13  2603.58  2639.98
                             3414.07  4403.46  4404.21  4407.51  4412.07
                             4416.29  4418.13  4460.90  4474.00  4479.82
                             4481.67  4489.15  4500.00  4506.11  4546.40
                             4547.30  4555.48  5282.88

 Zero-point correction=                           0.277343 (Hartree/Particle)
 Thermal correction to Energy=                    0.294999
 Thermal correction to Enthalpy=                  0.295944
 Thermal correction to Gibbs Free Energy=         0.230692
 Sum of electronic and zero-point Energies=           -784.853237
 Sum of electronic and thermal Energies=              -784.835581
 Sum of electronic and thermal Enthalpies=            -784.834637
 Sum of electronic and thermal Free Energies=         -784.899888

                     E (Thermal)             CV                S
                      KCal/Mol        Cal/Mol-Kelvin    Cal/Mol-Kelvin
 Total                  185.115             63.760            137.333
 Electronic               0.000              0.000              0.000
 Translational            0.889              2.981             42.163
 Rotational               0.889              2.981             32.510
 Vibrational            183.337             57.798             62.659
 Vibration     1          0.593              1.985              6.197
 Vibration     2          0.594              1.983              5.663
 Vibration     3          0.595              1.979              5.000
 Vibration     4          0.597              1.971              4.293
 Vibration     5          0.601              1.959              3.756
 Vibration     6          0.603              1.951              3.509
 Vibration     7          0.614              1.915              2.823
 Vibration     8          0.616              1.909              2.753
 Vibration     9          0.626              1.878              2.423
 Vibration    10          0.631              1.861              2.284
 Vibration    11          0.634              1.852              2.214
 Vibration    12          0.642              1.826              2.046
 Vibration    13          0.645              1.817              1.992
 Vibration    14          0.649              1.804              1.922
 Vibration    15          0.683              1.701              1.502
 Vibration    16          0.695              1.667              1.397
 Vibration    17          0.705              1.637              1.315
 Vibration    18          0.723              1.586              1.190
 Vibration    19          0.728              1.574              1.163
 Vibration    20          0.739              1.542              1.096
 Vibration    21          0.762              1.481              0.981
 Vibration    22          0.780              1.433              0.901
 Vibration    23          0.810              1.358              0.792
 Vibration    24          0.848              1.266              0.677
 Vibration    25          0.936              1.076              0.487
 Vibration    26          0.962              1.024              0.444

                           ! Non-Optimized Parameters !
 Normal termination of Gaussian 16 at Thu Dec 10 21:31:10 2020.

 ----------------------------------------------------------------------
 # B3LYP/6-311++G(d,p) empiricaldispersion=gd3bj scf=xqc pop=npa geom=c
 heck
 ----------------------------------------------------------------------

 --------------------------------------
 CID_53749959_JID_6143_Energie_neutraal
 --------------------------------------
 Structure from the checkpoint file:  "JID_6143.chk"
 Charge =  0 Multiplicity = 1

 SCF Done:  E(RB3LYP) =  -785.365716712     A.U. after   15 cycles
 Normal termination of Gaussian 16 at Thu Dec 10 21:35:33 2020.

 ----------------------------------------------------------------------
 # B3LYP/6-311++G(d,p) empiricaldispersion=gd3bj scf=xqc pop=npa geom=c
 heck
 ----------------------------------------------------------------------

 ------------------------------------
 CID_53749959_JID_6143_Energie_kation
 ------------------------------------
 Structure from the checkpoint file:  "JID_6143.chk"
 Charge =  1 Multiplicity = 2

 SCF Done:  E(UB3LYP) =  -785.003868158     A.U. after   31 cycles
 Normal termination of Gaussian 16 at Thu Dec 10 21:47:38 2020.
 Gaussian 16:  ES64L-G16RevA.03 25-Dec-2016

 ----------------------------------------------------------------------
 # B3LYP/6-311++G(d,p) empiricaldispersion=gd3bj scf=xqc pop=npa geom=c
 heck
 ----------------------------------------------------------------------

 -----------------------------------
 CID_53749959_JID_6143_Energie_anion
 -----------------------------------
 Structure from the checkpoint file:  "JID_6143.chk"
 Charge = -1 Multiplicity = 2

                         Standard orientation:
 ---------------------------------------------------------------------
 Center     Atomic      Atomic             Coordinates (Angstroms)
 Number     Number       Type             X           Y           Z
 ---------------------------------------------------------------------
      1          6           0        2.138612    2.604023    0.277009
      2          6           0        1.830933    1.279695    0.981491
      3          6           0        1.362459    0.128283    0.051398
      4          6           0        2.320632   -0.131382   -1.141612
      5          6           0        3.806613   -0.263675   -0.792285
      6          6           0        1.130692   -1.092294    0.948107
      7          8           0        0.255417   -1.145443    1.789059
      8          8           0        1.991145   -2.112186    0.752909
      9          6           0       -0.037631    0.442421   -0.502848
     10          8           0       -0.644981    1.476396   -0.358813
     11          8           0       -0.511819   -0.631541   -1.177121
     12          6           0       -1.882955   -0.579964   -1.635984
     13          6           0       -2.783418   -1.323022   -0.656735
     14          6           0       -2.954960   -0.621071    0.707134
     15          6           0       -3.650934    0.661269    0.581274
     16          7           0       -4.226942    1.659907    0.448348
     17          1           0        2.952757    2.508295   -0.448442
     18          1           0        2.446557    3.348282    1.019138
     19          1           0        1.255431    2.985507   -0.238283
     20          1           0        2.721547    0.932597    1.518983
     21          1           0        1.049982    1.434527    1.730870
     22          1           0        1.981502   -1.029970   -1.663986
     23          1           0        2.193867    0.700187   -1.845139
     24          1           0        3.985064   -1.092399   -0.104082
     25          1           0        4.379825   -0.454498   -1.705983
     26          1           0        4.205090    0.649800   -0.340897
     27          1           0        1.735145   -2.802452    1.394645
     28          1           0       -2.183607    0.462744   -1.757378
     29          1           0       -1.877351   -1.078030   -2.607919
     30          1           0       -3.765650   -1.455640   -1.125515
     31          1           0       -2.366494   -2.320520   -0.479702
     32          1           0       -3.539040   -1.264723    1.375334
     33          1           0       -1.984408   -0.466567    1.189939
 ---------------------------------------------------------------------

 SCF Done:  E(UB3LYP) =  -785.359856807     A.U. after   31 cycles

 The electronic state is 2-A.
 Alpha  occ. eigenvalues --  -19.07870 -19.07537 -19.02549 -19.02199 -14.21302
 Alpha  occ. eigenvalues --  -10.21611 -10.21376 -10.13954 -10.12177 -10.11594
 Alpha  occ. eigenvalues --  -10.11378 -10.09570 -10.08866 -10.08783 -10.07399
 Alpha  occ. eigenvalues --  -10.07070  -1.02381  -1.01565  -0.93691  -0.92783
 Alpha  occ. eigenvalues --   -0.81100  -0.75112  -0.72193  -0.66632  -0.65574
 Alpha  occ. eigenvalues --   -0.62654  -0.56079  -0.54091  -0.53951  -0.49873
 Alpha  occ. eigenvalues --   -0.46878  -0.42816  -0.41733  -0.41059  -0.40531
 Alpha  occ. eigenvalues --   -0.39968  -0.38570  -0.37291  -0.35795  -0.35268
 Alpha  occ. eigenvalues --   -0.34186  -0.33394  -0.32581  -0.32073  -0.31573
 Alpha  occ. eigenvalues --   -0.29863  -0.29358  -0.28789  -0.28346  -0.27472
 Alpha  occ. eigenvalues --   -0.26985  -0.26188  -0.25983  -0.25436  -0.24043
 Alpha  occ. eigenvalues --   -0.23396  -0.23218  -0.22720  -0.21492  -0.19417
 Alpha  occ. eigenvalues --   -0.18822   0.03954
 Alpha virt. eigenvalues --    0.06065   0.06738   0.07506   0.07605   0.08146
 Alpha virt. eigenvalues --    0.08679   0.09395   0.09514   0.09827   0.10613
 Alpha virt. eigenvalues --    0.11227   0.11836   0.12111   0.12398   0.12711

  Beta  occ. eigenvalues --  -19.07868 -19.07467 -19.02520 -19.02168 -14.21290
  Beta  occ. eigenvalues --  -10.21580 -10.21327 -10.13939 -10.12174 -10.11578
  Beta  occ. eigenvalues --  -10.11378 -10.09532 -10.08853 -10.08767 -10.07393
  Beta  occ. eigenvalues --  -10.07051  -1.02317  -1.01481  -0.93649  -0.92695
  Beta  occ. eigenvalues --   -0.81079  -0.75066  -0.72152  -0.66608  -0.65530
  Beta  occ. eigenvalues --   -0.62605  -0.55987  -0.54031  -0.53837  -0.49799
  Beta  occ. eigenvalues --   -0.46839  -0.42729  -0.41692  -0.41023  -0.40478
  Beta  occ. eigenvalues --   -0.39906  -0.38528  -0.37254  -0.35719  -0.35213
  Beta  occ. eigenvalues --   -0.34134  -0.33327  -0.32543  -0.32037  -0.31528
  Beta  occ. eigenvalues --   -0.29791  -0.29316  -0.28764  -0.28292  -0.27431
  Beta  occ. eigenvalues --   -0.26960  -0.26163  -0.25940  -0.25406  -0.24022
  Beta  occ. eigenvalues --   -0.23345  -0.23172  -0.22674  -0.21434  -0.19352
  Beta  occ. eigenvalues --   -0.18765
  Beta virt. eigenvalues --    0.06148   0.06781   0.07702   0.07855   0.08058
  Beta virt. eigenvalues --    0.08645   0.09077   0.09624   0.09809   0.10218
  Beta virt. eigenvalues --    0.10806   0.11368   0.11997   0.12267   0.12651

 Mulliken charges and spin densities:
               1          2
     1  C   -0.163927  -0.418902
     2  C   -0.396394   0.075930
     3  C    2.037502  -0.794293
     4  C   -0.292518   0.161880
     5  C    0.396458  -1.023787
     6  C   -0.261918  -0.210689
     7  O   -0.209902   0.005473
     8  O   -0.113373   0.052636
     9  C   -1.611012   0.439070
    10  O   -0.138116   0.012416
    11  O    0.108857   0.026461
    12  C    0.199172  -0.341031
    13  C    0.803663  -1.209602
    14  C   -0.487047   0.727795
    15  C    0.417977  -0.622112
    16  N   -0.347496   0.017535
    17  H    0.062660   0.062746
    18  H    0.086370   0.046696
    19  H    0.172431   0.013091
    20  H   -0.087594   0.272334
    21  H    0.217395  -0.017895
    22  H   -0.025110   0.252663
    23  H    0.125214   0.049228
    24  H    0.035403   0.144333
    25  H   -0.048819   0.187004
    26  H   -0.001719   0.126271
    27  H   -0.709767   0.999842
    28  H    0.189970  -0.015944
    29  H   -0.356525   0.539255
    30  H   -0.220768   0.399405
    31  H   -0.431808   0.650836
    32  H   -0.174266   0.396955
    33  H    0.225007  -0.005598
 Sum of Mulliken charges =  -1.00000   1.00000

 Dipole moment (field-independent basis, Debye):
    X=              3.0342    Y=              5.1112    Z=             -1.2640  Tot=              6.0769
 Quadrupole moment (field-independent basis, Debye-Ang):
   XX=           -164.3736   YY=           -155.3040   ZZ=           -126.2642
   XY=             14.5434   XZ=             -2.5816   YZ=              1.5920

 Summary of Natural Population Analysis:

                                       Natural Population
                Natural  -----------------------------------------------
    Atom  No    Charge         Core      Valence    Rydberg      Total
 -----------------------------------------------------------------------
      C    1   -0.28979      0.99966     2.28549    0.00465     3.28979
      C    2   -0.18871      0.99962     2.17943    0.00966     3.18871
      C    3   -0.11456      0.99946     2.09986    0.01523     3.11456
      C    4   -0.19114      0.99961     2.18095    0.01058     3.19114
      C    5   -0.28767      0.99965     2.28350    0.00451     3.28767
      C    6    0.42513      0.99964     1.54791    0.02732     2.57487
      O    7   -0.31328      0.99987     3.30695    0.00646     4.31328
      O    8   -0.33972      0.99987     3.33223    0.00763     4.33972
      C    9    0.42926      0.99963     1.54219    0.02892     2.57074
      O   10   -0.29920      0.99987     3.29412    0.00521     4.29920
      O   11   -0.28654      0.99986     3.27646    0.01022     4.28654
      C   12   -0.01788      0.99954     2.00644    0.01190     3.01788
      C   13   -0.19345      0.99962     2.18478    0.00906     3.19345
      C   14   -0.25553      0.99953     2.24777    0.00823     3.25553
      C   15    0.16445      0.99966     1.81846    0.01744     2.83555
      N   16   -0.18961      0.99979     2.67909    0.01073     3.68961
      H   17    0.09422      0.00000     0.40485    0.00093     0.40578
      H   18    0.09826      0.00000     0.40100    0.00074     0.40174
      H   19    0.10972      0.00000     0.38932    0.00096     0.39028
      H   20    0.10069      0.00000     0.39834    0.00097     0.39931
      H   21    0.11126      0.00000     0.38773    0.00101     0.38874
      H   22    0.11286      0.00000     0.38557    0.00157     0.38714
      H   23    0.09846      0.00000     0.40045    0.00109     0.40154
      H   24    0.10908      0.00000     0.38944    0.00148     0.39092
      H   25    0.09916      0.00000     0.40001    0.00083     0.40084
      H   26    0.09361      0.00000     0.40535    0.00105     0.40639
      H   27    0.25059      0.00000     0.22020    0.02920     0.24941
      H   28    0.10122      0.00000     0.39739    0.00139     0.39878
      H   29    0.09707      0.00000     0.40157    0.00136     0.40293
      H   30    0.10397      0.00000     0.39416    0.00186     0.39603
      H   31    0.11172      0.00000     0.38531    0.00297     0.38828
      H   32    0.12144      0.00000     0.37722    0.00134     0.37856
      H   33    0.13491      0.00000     0.36300    0.00209     0.36509
 =======================================================================
   * Total *   -0.00000     15.99487    44.76656    0.23857    61.00000

 Normal termination of Gaussian 16 at Thu Dec 10 21:59:46 2020.
