 Gaussian 16, Revision A.03,

 -----------------------------------------------------------
 # opt freq B3LYP/6-31G(d) empiricaldispersion=gd3bj scf=xqc
 -----------------------------------------------------------

 -------------------------------
 CID_134989983_JID_6843_neutraal
 -------------------------------
 Symbolic Z-matrix:
 Charge =  0 Multiplicity = 1

 SCF Done:  E(RB3LYP) =  -708.193109519     A.U. after   17 cycles
 SCF Done:  E(RB3LYP) =  -708.197894661     A.U. after   13 cycles
 SCF Done:  E(RB3LYP) =  -708.197732882     A.U. after   13 cycles
 SCF Done:  E(RB3LYP) =  -708.198439511     A.U. after   13 cycles
 SCF Done:  E(RB3LYP) =  -708.198903840     A.U. after   13 cycles
 SCF Done:  E(RB3LYP) =  -708.198955524     A.U. after   11 cycles
 SCF Done:  E(RB3LYP) =  -708.198963303     A.U. after   10 cycles
 SCF Done:  E(RB3LYP) =  -708.198965655     A.U. after    8 cycles
 SCF Done:  E(RB3LYP) =  -708.198966035     A.U. after    8 cycles
 SCF Done:  E(RB3LYP) =  -708.198966069     A.U. after    7 cycles
 Optimization completed.
    -- Stationary point found.
 Normal termination of Gaussian 16 at Fri Dec 11 00:50:27 2020.

 --------------------------------------------------------------------
 #N Geom=AllCheck Guess=TCheck SCRF=Check GenChk RB3LYP/6-31G(d) Freq
 --------------------------------------------------------------------

 Structure from the checkpoint file:  "JID_6843.chk"
 -------------------------------
 CID_134989983_JID_6843_neutraal
 -------------------------------
 Charge =  0 Multiplicity = 1

 SCF Done:  E(RB3LYP) =  -708.198966069     A.U. after    1 cycles

  Exact polarizability: 180.658   3.498 142.912  13.520   3.660 112.569
 Approx polarizability: 242.709  21.347 280.975  30.467  22.131 175.070

                      1                      2                      3
                      A                      A                      A
 Frequencies --     50.5549                62.7937                80.2174
 Red. masses --      3.7339                 2.7629                 5.2649
 Frc consts  --      0.0056                 0.0064                 0.0200
 IR Inten    --      0.0259                 0.0553                 0.0408

                      4                      5                      6
                      A                      A                      A
 Frequencies --    124.3783               183.7284               208.2319
 Red. masses --      4.3447                 1.1312                 2.5175
 Frc consts  --      0.0396                 0.0225                 0.0643
 IR Inten    --      6.8993                 0.0066                 2.4541

                      7                      8                      9
                      A                      A                      A
 Frequencies --    238.8882               248.1863               264.8076
 Red. masses --      1.1217                 2.9662                 1.9200
 Frc consts  --      0.0377                 0.1076                 0.0793
 IR Inten    --      0.0811                 1.1724                 0.8675

                     10                     11                     12
                      A                      A                      A
 Frequencies --    280.0384               290.5313               301.1942
 Red. masses --      2.4519                 2.3046                 1.7746
 Frc consts  --      0.1133                 0.1146                 0.0949
 IR Inten    --      1.3626                 2.3261                 0.0147

                     13                     14                     15
                      A                      A                      A
 Frequencies --    316.6629               336.9695               347.8433
 Red. masses --      1.2176                 2.8874                 2.6224
 Frc consts  --      0.0719                 0.1932                 0.1869
 IR Inten    --      0.2149                 5.0450                 0.6717

                     16                     17                     18
                      A                      A                      A
 Frequencies --    353.5655               371.3807               398.4525
 Red. masses --      2.4869                 2.1751                 2.2350
 Frc consts  --      0.1832                 0.1768                 0.2091
 IR Inten    --      1.9895                 0.6772                 0.0786

                     19                     20                     21
                      A                      A                      A
 Frequencies --    414.9446               452.6557               499.4925
 Red. masses --      2.7816                 2.1923                 3.5709
 Frc consts  --      0.2822                 0.2647                 0.5249
 IR Inten    --      2.4924                 0.4046                 1.7887

                     22                     23                     24
                      A                      A                      A
 Frequencies --    516.7103               528.6496               554.4565
 Red. masses --      3.9822                 4.8089                 5.8418
 Frc consts  --      0.6264                 0.7918                 1.0581
 IR Inten    --      1.0014                 5.9662                11.0937

                     25                     26                     27
                      A                      A                      A
 Frequencies --    583.6322               615.7488               670.3592
 Red. masses --      5.6195                 4.9540                 3.1292
 Frc consts  --      1.1278                 1.1067                 0.8285
 IR Inten    --      7.3704                 0.8945                 0.6076

                     28                     29                     30
                      A                      A                      A
 Frequencies --    685.7342               731.1547               752.6486
 Red. masses --      4.6098                 4.0796                 5.4912
 Frc consts  --      1.2772                 1.2849                 1.8328
 IR Inten    --      0.5183                 0.5037                 3.0163

                     31                     32                     33
                      A                      A                      A
 Frequencies --    793.1577               847.2327               889.6427
 Red. masses --      2.6443                 2.6653                 2.4859
 Frc consts  --      0.9801                 1.1272                 1.1592
 IR Inten    --      2.1782                 3.8499                 0.3999

                     34                     35                     36
                      A                      A                      A
 Frequencies --    911.1857               936.7200               943.6225
 Red. masses --      2.6229                 2.9936                 1.8082
 Frc consts  --      1.2831                 1.5476                 0.9486
 IR Inten    --      5.9347                 1.7615                 0.6324

                     37                     38                     39
                      A                      A                      A
 Frequencies --    950.6632               968.8921               974.2385
 Red. masses --      1.8314                 1.7263                 1.2845
 Frc consts  --      0.9752                 0.9548                 0.7183
 IR Inten    --      1.7269                 0.6536                 0.1370

                     40                     41                     42
                      A                      A                      A
 Frequencies --    996.7138              1023.8375              1054.9230
 Red. masses --      2.0925                 1.7229                 1.5383
 Frc consts  --      1.2248                 1.0641                 1.0086
 IR Inten    --      4.3217                 1.0745                 5.2023

                     43                     44                     45
                      A                      A                      A
 Frequencies --   1057.4876              1070.2640              1087.7747
 Red. masses --      1.4899                 1.5022                 1.7822
 Frc consts  --      0.9817                 1.0138                 1.2425
 IR Inten    --      0.5983                 1.4387                 3.6517

                     46                     47                     48
                      A                      A                      A
 Frequencies --   1122.5025              1139.5881              1179.0678
 Red. masses --      1.7612                 7.7987                 3.4110
 Frc consts  --      1.3075                 5.9671                 2.7939
 IR Inten    --      0.5383                19.4158                 4.2794

                     49                     50                     51
                      A                      A                      A
 Frequencies --   1199.7889              1203.3719              1227.2123
 Red. masses --      1.2097                 1.4595                 1.7733
 Frc consts  --      1.0260                 1.2452                 1.5735
 IR Inten    --      3.0309                 2.6244                 2.5879

                     52                     53                     54
                      A                      A                      A
 Frequencies --   1250.7654              1264.5674              1274.7583
 Red. masses --      1.9827                 2.1771                 3.7960
 Frc consts  --      1.8275                 2.0512                 3.6344
 IR Inten    --     16.7534                 4.0721                17.3883

                     55                     56                     57
                      A                      A                      A
 Frequencies --   1299.5001              1311.6864              1347.9965
 Red. masses --      2.4462                 2.0355                 1.5136
 Frc consts  --      2.4338                 2.0634                 1.6204
 IR Inten    --      1.3050                 1.3866                 2.5817

                     58                     59                     60
                      A                      A                      A
 Frequencies --   1371.4374              1386.3410              1401.5783
 Red. masses --      2.1197                 1.4480                 1.7981
 Frc consts  --      2.3490                 1.6397                 2.0811
 IR Inten    --      0.6703                 0.7176                16.0031

                     61                     62                     63
                      A                      A                      A
 Frequencies --   1418.4187              1427.7426              1430.5317
 Red. masses --      1.4070                 1.6330                 1.2481
 Frc consts  --      1.6678                 1.9612                 1.5049
 IR Inten    --      1.6446                38.2696                15.4443

                     64                     65                     66
                      A                      A                      A
 Frequencies --   1433.7828              1443.5479              1464.9711
 Red. masses --      1.2364                 4.3488                 1.2352
 Frc consts  --      1.4976                 5.3392                 1.5619
 IR Inten    --      4.1187               116.3288                 8.8251

                     67                     68                     69
                      A                      A                      A
 Frequencies --   1472.2222              1492.8813              1495.2933
 Red. masses --      2.3609                 1.1353                 1.0505
 Frc consts  --      3.0149                 1.4907                 1.3838
 IR Inten    --     29.1051                 4.7845                 7.4134

                     70                     71                     72
                      A                      A                      A
 Frequencies --   1501.4678              1509.6822              1515.3776
 Red. masses --      1.0885                 1.3982                 1.0511
 Frc consts  --      1.4458                 1.8775                 1.4222
 IR Inten    --     16.8042                19.1374                 1.0947

                     73                     74                     75
                      A                      A                      A
 Frequencies --   1517.9356              1519.8368              1531.7880
 Red. masses --      1.0739                 1.0991                 1.0752
 Frc consts  --      1.4579                 1.4959                 1.4864
 IR Inten    --      0.8311                 3.4931                 8.3001

                     76                     77                     78
                      A                      A                      A
 Frequencies --   1544.2067              1544.8895              1552.3144
 Red. masses --      1.0652                 1.0683                 1.1071
 Frc consts  --      1.4966                 1.5023                 1.5718
 IR Inten    --      9.7324                16.1924                 5.6925

                     79                     80                     81
                      A                      A                      A
 Frequencies --   1558.5058              1622.1762              3027.3925
 Red. masses --      4.7433                 6.1217                 1.0809
 Frc consts  --      6.7881                 9.4912                 5.8370
 IR Inten    --     19.2127                27.5708                15.1011

                     82                     83                     84
                      A                      A                      A
 Frequencies --   3039.4036              3041.7091              3045.3118
 Red. masses --      1.0717                 1.0372                 1.0605
 Frc consts  --      5.8330                 5.6540                 5.7946
 IR Inten    --      2.5726                26.6965                 8.9910

                     85                     86                     87
                      A                      A                      A
 Frequencies --   3046.4769              3052.2666              3059.3837
 Red. masses --      1.0484                 1.0660                 1.0410
 Frc consts  --      5.7328                 5.8514                 5.7407
 IR Inten    --     22.1084                63.0663                 7.7477

                     88                     89                     90
                      A                      A                      A
 Frequencies --   3066.9076              3080.8379              3106.2304
 Red. masses --      1.0372                 1.0939                 1.1021
 Frc consts  --      5.7481                 6.1176                 6.2654
 IR Inten    --      5.1868                17.2321                 2.4115

                     91                     92                     93
                      A                      A                      A
 Frequencies --   3111.6137              3112.4760              3114.2472
 Red. masses --      1.1006                 1.1005                 1.0995
 Frc consts  --      6.2782                 6.2814                 6.2830
 IR Inten    --     25.1889                36.0349                 6.0898

                     94                     95                     96
                      A                      A                      A
 Frequencies --   3118.8337              3120.2371              3121.6760
 Red. masses --      1.0975                 1.0998                 1.0944
 Frc consts  --      6.2896                 6.3088                 6.2834
 IR Inten    --     95.3908                 5.4217                20.3546

                     97                     98                     99
                      A                      A                      A
 Frequencies --   3125.9938              3141.0671              3181.2419
 Red. masses --      1.0927                 1.1009                 1.1026
 Frc consts  --      6.2911                 6.3994                 6.5744
 IR Inten    --     17.2916                29.8787                 4.4817

 - Thermochemistry -
 -------------------
 Temperature   298.150 Kelvin.  Pressure   1.00000 Atm.
 Atom     1 has atomic number  6 and mass  12.00000

 Molecular mass:   221.15281 amu.
 Principal axes and moments of inertia in atomic units:
                           1         2         3
     Eigenvalues --  1692.405985067.700015613.44604
           X            1.00000   0.00227  -0.00059
           Y           -0.00229   0.99969  -0.02466
           Z            0.00054   0.02466   0.99970
 This molecule is an asymmetric top.
 Rotational symmetry number  1.
 Warning -- assumption of classical behavior for rotation
           may cause significant error
 Rotational temperatures (Kelvin)      0.05118     0.01709     0.01543
 Rotational constants (GHZ):           1.06638     0.35613     0.32150
 Zero-point vibrational energy     799476.4 (Joules/Mol)
                                  191.07943 (Kcal/Mol)
 Warning -- explicit consideration of  26 degrees of freedom as
           vibrations may cause significant error
 Vibrational temperatures:     72.74    90.35   115.41   178.95   264.34
          (Kelvin)            299.60   343.71   357.08   381.00   402.91
                              418.01   433.35   455.61   484.82   500.47
                              508.70   534.33   573.28   597.01   651.27
                              718.66   743.43   760.61   797.74   839.72
                              885.93   964.50   986.62  1051.97  1082.89
                             1141.18  1218.98  1280.00  1310.99  1347.73
                             1357.66  1367.79  1394.02  1401.71  1434.05
                             1473.07  1517.80  1521.49  1539.87  1565.07
                             1615.03  1639.61  1696.42  1726.23  1731.38
                             1765.68  1799.57  1819.43  1834.09  1869.69
                             1887.22  1939.47  1973.19  1994.64  2016.56
                             2040.79  2054.20  2058.22  2062.89  2076.94
                             2107.77  2118.20  2147.92  2151.39  2160.28
                             2172.10  2180.29  2183.97  2186.71  2203.90
                             2221.77  2222.75  2233.43  2242.34  2333.95
                             4355.74  4373.02  4376.34  4381.52  4383.20
                             4391.53  4401.77  4412.60  4432.64  4469.17
                             4476.92  4478.16  4480.71  4487.31  4489.33
                             4491.40  4497.61  4519.29  4577.10

 Zero-point correction=                           0.304504 (Hartree/Particle)
 Thermal correction to Energy=                    0.319581
 Thermal correction to Enthalpy=                  0.320525
 Thermal correction to Gibbs Free Energy=         0.263556
 Sum of electronic and zero-point Energies=           -707.894462
 Sum of electronic and thermal Energies=              -707.879386
 Sum of electronic and thermal Enthalpies=            -707.878441
 Sum of electronic and thermal Free Energies=         -707.935410

                     E (Thermal)             CV                S
                      KCal/Mol        Cal/Mol-Kelvin    Cal/Mol-Kelvin
 Total                  200.540             60.584            119.900
 Electronic               0.000              0.000              0.000
 Translational            0.889              2.981             42.084
 Rotational               0.889              2.981             32.243
 Vibrational            198.762             54.622             45.573
 Vibration     1          0.595              1.977              4.796
 Vibration     2          0.597              1.972              4.367
 Vibration     3          0.600              1.963              3.886
 Vibration     4          0.610              1.929              3.031
 Vibration     5          0.631              1.862              2.290
 Vibration     6          0.642              1.828              2.059
 Vibration     7          0.657              1.781              1.811
 Vibration     8          0.662              1.766              1.743
 Vibration     9          0.671              1.738              1.630
 Vibration    10          0.680              1.711              1.533
 Vibration    11          0.686              1.691              1.471
 Vibration    12          0.693              1.671              1.410
 Vibration    13          0.704              1.642              1.327
 Vibration    14          0.718              1.602              1.226
 Vibration    15          0.725              1.580              1.176
 Vibration    16          0.730              1.568              1.150
 Vibration    17          0.743              1.531              1.074
 Vibration    18          0.765              1.473              0.968
 Vibration    19          0.778              1.438              0.909
 Vibration    20          0.811              1.355              0.788
 Vibration    21          0.855              1.251              0.659
 Vibration    22          0.872              1.213              0.618
 Vibration    23          0.884              1.187              0.590
 Vibration    24          0.910              1.130              0.535
 Vibration    25          0.941              1.067              0.479
 Vibration    26          0.975              0.999              0.423

 Optimization completed.
    -- Stationary point found.
 Normal termination of Gaussian 16 at Fri Dec 11 01:03:48 2020.

 ----------------------------------------------------------------------
 # B3LYP/6-311++G(d,p) empiricaldispersion=gd3bj scf=xqc pop=npa geom=c
 heck
 ----------------------------------------------------------------------

 ---------------------------------------
 CID_134989983_JID_6843_Energie_neutraal
 ---------------------------------------
 Structure from the checkpoint file:  "JID_6843.chk"
 Charge =  0 Multiplicity = 1

 SCF Done:  E(RB3LYP) =  -708.388375261     A.U. after   17 cycles
 Normal termination of Gaussian 16 at Fri Dec 11 01:10:16 2020.

 ----------------------------------------------------------------------
 # B3LYP/6-311++G(d,p) empiricaldispersion=gd3bj scf=xqc pop=npa geom=c
 heck
 ----------------------------------------------------------------------

 -------------------------------------
 CID_134989983_JID_6843_Energie_kation
 -------------------------------------
 Structure from the checkpoint file:  "JID_6843.chk"
 Charge =  1 Multiplicity = 2

 SCF Done:  E(UB3LYP) =  -708.067236714     A.U. after   33 cycles
 SCF Done:  E(UB3LYP) =  -708.067236714     a.u. after    1 cycles
 Normal termination of Gaussian 16 at Fri Dec 11 01:27:11 2020.
 Gaussian 16:  ES64L-G16RevA.03 25-Dec-2016

 ----------------------------------------------------------------------
 # B3LYP/6-311++G(d,p) empiricaldispersion=gd3bj scf=xqc pop=npa geom=c
 heck
 ----------------------------------------------------------------------

 ------------------------------------
 CID_134989983_JID_6843_Energie_anion
 ------------------------------------
 Structure from the checkpoint file:  "JID_6843.chk"
 Charge = -1 Multiplicity = 2

                         Standard orientation:
 ---------------------------------------------------------------------
 Center     Atomic      Atomic             Coordinates (Angstroms)
 Number     Number       Type             X           Y           Z
 ---------------------------------------------------------------------
      1          6           0        4.287922   -0.146950    0.764280
      2          6           0        2.919591   -0.408927    0.238648
      3          7           0        2.512972   -1.629808   -0.042031
      4          7           0        1.277924   -1.861708   -0.502504
      5          6           0        0.466667   -0.817172   -0.694045
      6          6           0       -0.914255   -1.112887   -1.227983
      7          6           0       -1.953571   -0.017655   -0.911491
      8          6           0       -1.338605    1.344857   -1.300534
      9          6           0       -0.036115    1.691612   -0.569596
     10          6           0        0.846132    0.498380   -0.418455
     11          7           0        2.097807    0.703447    0.079048
     12          8           0        2.510445    1.864995    0.393403
     13          6           0       -2.592656   -0.132505    0.514988
     14          6           0       -3.420145    1.128534    0.821716
     15          6           0       -3.552946   -1.340059    0.509595
     16          6           0       -1.573527   -0.344818    1.651540
     17          1           0        4.823513    0.549033    0.109660
     18          1           0        4.825912   -1.092965    0.832385
     19          1           0        4.235531    0.330702    1.748685
     20          1           0       -1.212251   -2.096401   -0.856072
     21          1           0       -0.835160   -1.217176   -2.318874
     22          1           0       -2.790532   -0.169597   -1.605736
     23          1           0       -1.127985    1.304389   -2.377303
     24          1           0       -2.059340    2.154731   -1.163425
     25          1           0        0.521554    2.476651   -1.094244
     26          1           0       -0.223948    2.107339    0.429521
     27          1           0       -4.132265    1.345416    0.016073
     28          1           0       -3.994470    0.989499    1.744583
     29          1           0       -2.786628    2.011057    0.960950
     30          1           0       -3.031033   -2.278324    0.293194
     31          1           0       -4.033811   -1.451637    1.487971
     32          1           0       -4.343087   -1.213244   -0.240037
     33          1           0       -0.983723   -1.255788    1.510002
     34          1           0       -0.881501    0.495160    1.757648
     35          1           0       -2.106210   -0.446786    2.604213
 ---------------------------------------------------------------------

 SCF Done:  E(UB3LYP) =  -708.404584620     A.U. after   33 cycles
 SCF Done:  E(UB3LYP) =  -708.404584620     a.u. after    1 cycles

 The electronic state is 2-A.
 Alpha  occ. eigenvalues --  -18.92176 -14.25253 -14.16315 -14.14346 -10.08247
 Alpha  occ. eigenvalues --  -10.08130 -10.06480 -10.06232 -10.06221 -10.05430
 Alpha  occ. eigenvalues --  -10.05204 -10.04573 -10.04528 -10.04496 -10.04257
 Alpha  occ. eigenvalues --  -10.03514  -0.94411  -0.84187  -0.73745  -0.70084
 Alpha  occ. eigenvalues --   -0.69254  -0.65354  -0.62617  -0.59005  -0.58467
 Alpha  occ. eigenvalues --   -0.57824  -0.54446  -0.50745  -0.47472  -0.45944
 Alpha  occ. eigenvalues --   -0.41410  -0.40274  -0.37061  -0.35050  -0.34361
 Alpha  occ. eigenvalues --   -0.33650  -0.33503  -0.31369  -0.30887  -0.29605
 Alpha  occ. eigenvalues --   -0.29105  -0.28412  -0.27808  -0.27356  -0.27119
 Alpha  occ. eigenvalues --   -0.26676  -0.26401  -0.25768  -0.24402  -0.23607
 Alpha  occ. eigenvalues --   -0.23138  -0.22294  -0.20869  -0.19801  -0.19455
 Alpha  occ. eigenvalues --   -0.15489  -0.12270  -0.09648  -0.08237  -0.06773
 Alpha  occ. eigenvalues --    0.04683
 Alpha virt. eigenvalues --    0.06765   0.08558   0.08869   0.09888   0.10413
 Alpha virt. eigenvalues --    0.10800   0.11323   0.11563   0.12272   0.12930
 Alpha virt. eigenvalues --    0.13354   0.13860   0.13899   0.14312   0.14762

  Beta  occ. eigenvalues --  -18.91669 -14.24475 -14.15972 -14.13730 -10.08293
  Beta  occ. eigenvalues --  -10.08246 -10.06482 -10.06225 -10.06218 -10.05428
  Beta  occ. eigenvalues --  -10.05257 -10.04574 -10.04529 -10.04293 -10.04264
  Beta  occ. eigenvalues --  -10.03508  -0.93271  -0.83363  -0.73675  -0.69770
  Beta  occ. eigenvalues --   -0.68483  -0.65091  -0.62542  -0.58974  -0.58361
  Beta  occ. eigenvalues --   -0.57738  -0.53919  -0.50631  -0.46992  -0.45832
  Beta  occ. eigenvalues --   -0.41231  -0.40085  -0.36949  -0.34903  -0.34311
  Beta  occ. eigenvalues --   -0.33335  -0.32398  -0.30994  -0.30811  -0.29502
  Beta  occ. eigenvalues --   -0.28783  -0.28299  -0.27760  -0.27289  -0.26901
  Beta  occ. eigenvalues --   -0.26398  -0.26133  -0.25664  -0.23948  -0.23240
  Beta  occ. eigenvalues --   -0.22830  -0.20912  -0.20488  -0.19626  -0.18918
  Beta  occ. eigenvalues --   -0.15029  -0.11070  -0.09132  -0.06134  -0.05024
  Beta virt. eigenvalues --    0.06688   0.08463   0.08777   0.09827   0.10365
  Beta virt. eigenvalues --    0.10684   0.11260   0.11467   0.12218   0.12553
  Beta virt. eigenvalues --    0.13017   0.13496   0.13820   0.13920   0.14308

 Mulliken charges and spin densities:
               1          2
     1  C   -0.548740   0.000111
     2  C    0.256494  -0.033884
     3  N   -0.095142   0.137972
     4  N   -0.033010   0.301741
     5  C   -0.188966   0.022601
     6  C   -0.785512  -0.123705
     7  C    1.119095  -0.090520
     8  C   -0.775159   0.025590
     9  C   -0.536823   0.000031
    10  C   -0.351918   0.181803
    11  N   -0.086593   0.240434
    12  O   -0.184089   0.195148
    13  C    0.054651   0.129339
    14  C   -0.466239  -0.129241
    15  C   -0.561246  -0.040126
    16  C   -0.490830  -0.021676
    17  H    0.145493  -0.001623
    18  H    0.121145  -0.000767
    19  H    0.148823  -0.005636
    20  H    0.170094   0.004622
    21  H    0.153091  -0.000846
    22  H    0.197745  -0.013207
    23  H    0.139339   0.006820
    24  H    0.132987   0.009779
    25  H    0.189547   0.008671
    26  H    0.156590   0.028060
    27  H    0.104789   0.034481
    28  H    0.093845   0.028085
    29  H    0.097733   0.044684
    30  H    0.111263   0.018262
    31  H    0.107039   0.016944
    32  H    0.107206   0.013989
    33  H    0.194674   0.011027
    34  H    0.150524   0.005465
    35  H    0.152099  -0.004429
 Sum of Mulliken charges =  -1.00000   1.00000

 Dipole moment (field-independent basis, Debye):
    X=             -7.4236    Y=              1.3400    Z=             -0.2792  Tot=              7.5488
 Quadrupole moment (field-independent basis, Debye-Ang):
   XX=           -135.6294   YY=           -131.4048   ZZ=           -106.3462
   XY=              0.6992   XZ=              0.7475   YZ=             -4.4596

 Summary of Natural Population Analysis:

                                       Natural Population
                Natural  -----------------------------------------------
    Atom  No    Charge         Core      Valence    Rydberg      Total
 -----------------------------------------------------------------------
      C    1   -0.30225      0.99964     2.29704    0.00557     3.30225
      C    2    0.13907      0.99961     1.84348    0.01784     2.86093
      N    3   -0.10180      0.99967     2.58736    0.01478     3.60180
      N    4   -0.08049      0.99967     2.56023    0.02059     3.58049
      C    5    0.06509      0.99950     1.92063    0.01479     2.93491
      C    6   -0.20169      0.99959     2.19121    0.01089     3.20169
      C    7   -0.09979      0.99956     2.08937    0.01086     3.09979
      C    8   -0.18446      0.99962     2.17783    0.00701     3.18446
      C    9   -0.21006      0.99961     2.20030    0.01015     3.21006
      C   10    0.10210      0.99947     1.88672    0.01171     2.89790
      N   11    0.11812      0.99951     2.36401    0.01836     3.38188
      O   12   -0.24513      0.99992     3.23787    0.00734     4.24513
      C   13   -0.04398      0.99957     2.03396    0.01044     3.04398
      C   14   -0.28505      0.99963     2.27948    0.00594     3.28505
      C   15   -0.28254      0.99964     2.27691    0.00600     3.28254
      C   16   -0.28981      0.99963     2.28372    0.00646     3.28981
      H   17    0.10327      0.00000     0.39527    0.00146     0.39673
      H   18    0.10198      0.00000     0.39685    0.00117     0.39802
      H   19    0.10333      0.00000     0.39522    0.00145     0.39667
      H   20    0.10572      0.00000     0.39176    0.00251     0.39428
      H   21    0.10153      0.00000     0.39735    0.00112     0.39847
      H   22    0.09203      0.00000     0.40665    0.00131     0.40797
      H   23    0.09501      0.00000     0.40385    0.00114     0.40499
      H   24    0.09445      0.00000     0.40419    0.00136     0.40555
      H   25    0.11300      0.00000     0.38569    0.00131     0.38700
      H   26    0.10255      0.00000     0.39486    0.00260     0.39745
      H   27    0.09504      0.00000     0.40401    0.00095     0.40496
      H   28    0.09526      0.00000     0.40373    0.00101     0.40474
      H   29    0.10188      0.00000     0.39690    0.00122     0.39812
      H   30    0.10182      0.00000     0.39713    0.00105     0.39818
      H   31    0.09462      0.00000     0.40442    0.00096     0.40538
      H   32    0.09373      0.00000     0.40534    0.00092     0.40627
      H   33    0.11004      0.00000     0.38848    0.00148     0.38996
      H   34    0.10648      0.00000     0.39229    0.00124     0.39352
      H   35    0.09094      0.00000     0.40816    0.00091     0.40906
 =======================================================================
   * Total *   -0.00000     15.99384    43.80226    0.20390    60.00000

 Normal termination of Gaussian 16 at Fri Dec 11 01:43:39 2020.
