 Gaussian 16, Revision A.03,

 -----------------------------------------------------------
 # opt freq B3LYP/6-31G(d) empiricaldispersion=gd3bj scf=xqc
 -----------------------------------------------------------

 ------------------------------
 CID_12039484_JID_4761_neutraal
 ------------------------------
 Symbolic Z-matrix:
 Charge =  0 Multiplicity = 1

 SCF Done:  E(RB3LYP) =  -633.470977001     A.U. after   15 cycles
 SCF Done:  E(RB3LYP) =  -633.475160131     A.U. after   11 cycles
 SCF Done:  E(RB3LYP) =  -633.475344910     A.U. after   12 cycles
 SCF Done:  E(RB3LYP) =  -633.475291256     A.U. after   12 cycles
 SCF Done:  E(RB3LYP) =  -633.475508652     A.U. after   11 cycles
 SCF Done:  E(RB3LYP) =  -633.475519273     A.U. after    9 cycles
 SCF Done:  E(RB3LYP) =  -633.475525473     A.U. after    9 cycles
 SCF Done:  E(RB3LYP) =  -633.475528599     A.U. after    8 cycles
 SCF Done:  E(RB3LYP) =  -633.475530083     A.U. after    8 cycles
 SCF Done:  E(RB3LYP) =  -633.475530299     A.U. after    8 cycles
 Optimization completed.
    -- Stationary point found.
 Normal termination of Gaussian 16 at Thu Dec 10 10:19:45 2020.

 --------------------------------------------------------------------
 #N Geom=AllCheck Guess=TCheck SCRF=Check GenChk RB3LYP/6-31G(d) Freq
 --------------------------------------------------------------------

 Structure from the checkpoint file:  "JID_4761.chk"
 ------------------------------
 CID_12039484_JID_4761_neutraal
 ------------------------------
 Charge =  0 Multiplicity = 1

 SCF Done:  E(RB3LYP) =  -633.475530299     A.U. after    1 cycles

  Exact polarizability: 167.742  -0.420 132.961  -3.376  -2.326  78.939
 Approx polarizability: 220.823 -11.963 204.045  -6.914  -4.266 117.640

                      1                      2                      3
                      A                      A                      A
 Frequencies --     46.7244                52.7006                93.2692
 Red. masses --      3.3104                 3.6135                 4.7751
 Frc consts  --      0.0043                 0.0059                 0.0245
 IR Inten    --      0.2263                 2.5479                 0.3378

                      4                      5                      6
                      A                      A                      A
 Frequencies --    116.9508               122.4280               129.0628
 Red. masses --      2.7691                 2.7694                 1.2339
 Frc consts  --      0.0223                 0.0245                 0.0121
 IR Inten    --      0.3294                 0.2012                 0.0264

                      7                      8                      9
                      A                      A                      A
 Frequencies --    152.6945               174.2412               226.1877
 Red. masses --      2.1651                 2.1753                 1.4996
 Frc consts  --      0.0297                 0.0389                 0.0452
 IR Inten    --      0.3197                 0.2726                 0.6953

                     10                     11                     12
                      A                      A                      A
 Frequencies --    229.5135               232.9408               308.4541
 Red. masses --      3.0390                 1.9651                 4.0421
 Frc consts  --      0.0943                 0.0628                 0.2266
 IR Inten    --      3.7652                 2.6865                 0.9427

                     13                     14                     15
                      A                      A                      A
 Frequencies --    315.8086               341.9324               399.7091
 Red. masses --      3.4965                 3.0618                 7.3957
 Frc consts  --      0.2055                 0.2109                 0.6962
 IR Inten    --      2.9559                 7.5035                 9.4873

                     16                     17                     18
                      A                      A                      A
 Frequencies --    458.9711               564.7053               597.3563
 Red. masses --      3.2108                 3.2570                 3.4972
 Frc consts  --      0.3985                 0.6119                 0.7352
 IR Inten    --      4.1600                 5.0851                 1.2431

                     19                     20                     21
                      A                      A                      A
 Frequencies --    623.1357               630.8497               655.6077
 Red. masses --      3.7377                 3.7261                 4.6207
 Frc consts  --      0.8551                 0.8737                 1.1702
 IR Inten    --      0.3498                 1.6153                 0.7469

                     22                     23                     24
                      A                      A                      A
 Frequencies --    736.6026               756.1548               765.4393
 Red. masses --      2.3650                 2.5784                 4.5925
 Frc consts  --      0.7560                 0.8686                 1.5853
 IR Inten    --      4.6870                 5.1214                20.1238

                     25                     26                     27
                      A                      A                      A
 Frequencies --    824.8439               830.4508               872.2802
 Red. masses --      1.5395                 1.4480                 2.5646
 Frc consts  --      0.6171                 0.5884                 1.1497
 IR Inten    --      2.9277                 9.1978                 3.3543

                     28                     29                     30
                      A                      A                      A
 Frequencies --    882.4321               901.7942               918.2585
 Red. masses --      2.8671                 1.8945                 2.2680
 Frc consts  --      1.3154                 0.9077                 1.1267
 IR Inten    --      4.2082                 0.5600                 1.1273

                     31                     32                     33
                      A                      A                      A
 Frequencies --    931.4318              1010.5895              1023.2047
 Red. masses --      2.2149                 1.7645                 1.7592
 Frc consts  --      1.1321                 1.0617                 1.0852
 IR Inten    --      0.9775                 3.2345                 1.5701

                     34                     35                     36
                      A                      A                      A
 Frequencies --   1041.7640              1078.8162              1101.6368
 Red. masses --      2.8846                 1.4282                 1.7366
 Frc consts  --      1.8445                 0.9793                 1.2417
 IR Inten    --      3.6668                 1.3985                21.4102

                     37                     38                     39
                      A                      A                      A
 Frequencies --   1111.3868              1134.0950              1158.9841
 Red. masses --      3.5054                 2.1516                 2.0588
 Frc consts  --      2.5511                 1.6305                 1.6294
 IR Inten    --    177.6817                99.7217                18.4093

                     40                     41                     42
                      A                      A                      A
 Frequencies --   1193.0285              1198.8794              1208.8859
 Red. masses --      1.2898                 3.1923                 1.7584
 Frc consts  --      1.0816                 2.7034                 1.5141
 IR Inten    --     20.2649                 5.8216                23.5443

                     43                     44                     45
                      A                      A                      A
 Frequencies --   1237.4428              1243.2406              1254.2447
 Red. masses --      1.4266                 1.7445                 1.7914
 Frc consts  --      1.2871                 1.5887                 1.6604
 IR Inten    --     17.4976               178.3674               159.8331

                     46                     47                     48
                      A                      A                      A
 Frequencies --   1323.6475              1339.5972              1344.5902
 Red. masses --      1.5310                 1.6698                 1.1284
 Frc consts  --      1.5804                 1.7655                 1.2019
 IR Inten    --      9.8983                32.9574                 8.6580

                     49                     50                     51
                      A                      A                      A
 Frequencies --   1355.9693              1406.0268              1423.2508
 Red. masses --      1.3603                 1.6825                 3.0789
 Frc consts  --      1.4736                 1.9597                 3.6746
 IR Inten    --      7.1837                30.4182                28.2153

                     52                     53                     54
                      A                      A                      A
 Frequencies --   1432.7833              1443.7635              1452.0152
 Red. masses --      2.0150                 1.3951                 1.6522
 Frc consts  --      2.4372                 1.7133                 2.0524
 IR Inten    --     30.2272                 6.7007                 9.2625

                     55                     56                     57
                      A                      A                      A
 Frequencies --   1482.4124              1510.0548              1514.8074
 Red. masses --      3.4119                 1.0432                 1.0615
 Frc consts  --      4.4176                 1.4016                 1.4351
 IR Inten    --     99.4452                 7.9497                15.8139

                     58                     59                     60
                      A                      A                      A
 Frequencies --   1517.6299              1518.2431              1525.0892
 Red. masses --      1.0944                 1.0946                 1.2062
 Frc consts  --      1.4851                 1.4866                 1.6530
 IR Inten    --      3.4826                 8.3408                 1.8715

                     61                     62                     63
                      A                      A                      A
 Frequencies --   1528.7626              1538.9813              1552.7947
 Red. masses --      1.1390                 1.0598                 1.1614
 Frc consts  --      1.5684                 1.4790                 1.6499
 IR Inten    --      4.0444                 6.2835                 2.3306

                     64                     65                     66
                      A                      A                      A
 Frequencies --   1582.5457              1628.8916              1794.3489
 Red. masses --      4.6977                 7.1935                11.7408
 Frc consts  --      6.9318                11.2455                22.2721
 IR Inten    --     67.8579                24.5403               387.6680

                     67                     68                     69
                      A                      A                      A
 Frequencies --   3029.2636              3042.2716              3043.1463
 Red. masses --      1.0406                 1.0678                 1.0727
 Frc consts  --      5.6261                 5.8230                 5.8528
 IR Inten    --     44.9073                59.1310                26.9244

                     70                     71                     72
                      A                      A                      A
 Frequencies --   3057.8918              3071.6775              3080.4424
 Red. masses --      1.0367                 1.1013                 1.0655
 Frc consts  --      5.7113                 6.1222                 5.9571
 IR Inten    --     21.8184                25.7392                18.7810

                     73                     74                     75
                      A                      A                      A
 Frequencies --   3086.4224              3106.0729              3121.1649
 Red. masses --      1.0589                 1.0953                 1.1021
 Frc consts  --      5.9429                 6.2262                 6.3255
 IR Inten    --     36.7505                32.1499                27.8170

                     76                     77                     78
                      A                      A                      A
 Frequencies --   3121.3753              3135.5256              3135.7941
 Red. masses --      1.0918                 1.1041                 1.1048
 Frc consts  --      6.2676                 6.3954                 6.4009
 IR Inten    --     14.1294                17.1286                32.1982

                     79                     80                     81
                      A                      A                      A
 Frequencies --   3138.4870              3155.9049              3270.1975
 Red. masses --      1.0965                 1.1053                 1.0960
 Frc consts  --      6.3638                 6.4859                 6.9059
 IR Inten    --     11.2522                26.2949                 2.5406

 - Thermochemistry -
 -------------------
 Temperature   298.150 Kelvin.  Pressure   1.00000 Atm.
 Atom     1 has atomic number  6 and mass  12.00000

 Molecular mass:   193.11028 amu.
 Principal axes and moments of inertia in atomic units:
                           1         2         3
     Eigenvalues --  1449.827534132.173235348.69558
           X            0.99989   0.01440   0.00445
           Y           -0.01438   0.99989  -0.00305
           Z           -0.00449   0.00299   0.99999
 This molecule is an asymmetric top.
 Rotational symmetry number  1.
 Warning -- assumption of classical behavior for rotation
           may cause significant error
 Rotational temperatures (Kelvin)      0.05974     0.02096     0.01619
 Rotational constants (GHZ):           1.24480     0.43675     0.33742
 Zero-point vibrational energy     650176.2 (Joules/Mol)
                                  155.39584 (Kcal/Mol)
 Warning -- explicit consideration of  18 degrees of freedom as
           vibrations may cause significant error
 Vibrational temperatures:     67.23    75.82   134.19   168.27   176.15
          (Kelvin)            185.69   219.69   250.69   325.43   330.22
                              335.15   443.80   454.38   491.96   575.09
                              660.36   812.48   859.46   896.55   907.65
                              943.27  1059.81  1087.94  1101.30  1186.77
                             1194.83  1255.02  1269.62  1297.48  1321.17
                             1340.12  1454.01  1472.16  1498.87  1552.18
                             1585.01  1599.04  1631.71  1667.52  1716.50
                             1724.92  1739.32  1780.40  1788.75  1804.58
                             1904.43  1927.38  1934.57  1950.94  2022.96
                             2047.74  2061.46  2077.25  2089.13  2132.86
                             2172.63  2179.47  2183.53  2184.41  2194.26
                             2199.55  2214.25  2234.13  2276.93  2343.61
                             2581.67  4358.43  4377.15  4378.41  4399.62
                             4419.46  4432.07  4440.67  4468.95  4490.66
                             4490.96  4511.32  4511.71  4515.58  4540.64
                             4705.08

 Zero-point correction=                           0.247639 (Hartree/Particle)
 Thermal correction to Energy=                    0.261386
 Thermal correction to Enthalpy=                  0.262330
 Thermal correction to Gibbs Free Energy=         0.206607
 Sum of electronic and zero-point Energies=           -633.227891
 Sum of electronic and thermal Energies=              -633.214144
 Sum of electronic and thermal Enthalpies=            -633.213200
 Sum of electronic and thermal Free Energies=         -633.268924

                     E (Thermal)             CV                S
                      KCal/Mol        Cal/Mol-Kelvin    Cal/Mol-Kelvin
 Total                  164.022             50.725            117.280
 Electronic               0.000              0.000              0.000
 Translational            0.889              2.981             41.680
 Rotational               0.889              2.981             31.838
 Vibrational            162.245             44.763             43.762
 Vibration     1          0.595              1.979              4.951
 Vibration     2          0.596              1.977              4.713
 Vibration     3          0.602              1.954              3.590
 Vibration     4          0.608              1.935              3.150
 Vibration     5          0.610              1.930              3.062
 Vibration     6          0.612              1.924              2.960
 Vibration     7          0.619              1.900              2.638
 Vibration     8          0.627              1.874              2.389
 Vibration     9          0.650              1.801              1.909
 Vibration    10          0.652              1.796              1.883
 Vibration    11          0.654              1.791              1.856
 Vibration    12          0.698              1.658              1.371
 Vibration    13          0.703              1.643              1.332
 Vibration    14          0.721              1.592              1.203
 Vibration    15          0.766              1.471              0.964
 Vibration    16          0.817              1.341              0.769
 Vibration    17          0.921              1.108              0.515
 Vibration    18          0.955              1.037              0.454

                           ! Non-Optimized Parameters !
 Normal termination of Gaussian 16 at Thu Dec 10 10:28:08 2020.

 ----------------------------------------------------------------------
 # B3LYP/6-311++G(d,p) empiricaldispersion=gd3bj scf=xqc pop=npa geom=c
 heck
 ----------------------------------------------------------------------

 --------------------------------------
 CID_12039484_JID_4761_Energie_neutraal
 --------------------------------------
 Structure from the checkpoint file:  "JID_4761.chk"
 Charge =  0 Multiplicity = 1

 SCF Done:  E(RB3LYP) =  -633.648025001     A.U. after   16 cycles
 Normal termination of Gaussian 16 at Thu Dec 10 10:32:24 2020.

 ----------------------------------------------------------------------
 # B3LYP/6-311++G(d,p) empiricaldispersion=gd3bj scf=xqc pop=npa geom=c
 heck
 ----------------------------------------------------------------------

 ------------------------------------
 CID_12039484_JID_4761_Energie_kation
 ------------------------------------
 Structure from the checkpoint file:  "JID_4761.chk"
 Charge =  1 Multiplicity = 2

 SCF Done:  E(UB3LYP) =  -633.369248689     A.U. after   23 cycles
 Normal termination of Gaussian 16 at Thu Dec 10 10:41:19 2020.
 Gaussian 16:  ES64L-G16RevA.03 25-Dec-2016

 ----------------------------------------------------------------------
 # B3LYP/6-311++G(d,p) empiricaldispersion=gd3bj scf=xqc pop=npa geom=c
 heck
 ----------------------------------------------------------------------

 -----------------------------------
 CID_12039484_JID_4761_Energie_anion
 -----------------------------------
 Structure from the checkpoint file:  "JID_4761.chk"
 Charge = -1 Multiplicity = 2

                         Standard orientation:
 ---------------------------------------------------------------------
 Center     Atomic      Atomic             Coordinates (Angstroms)
 Number     Number       Type             X           Y           Z
 ---------------------------------------------------------------------
      1          6           0        4.213782    0.357120    0.936098
      2          6           0        3.574590    0.437628   -0.441944
      3          8           0        2.136825    0.444316   -0.353240
      4          6           0        1.540793   -0.780424   -0.229857
      5          8           0        2.165515   -1.826293   -0.219863
      6          6           0        0.093933   -0.660612   -0.120881
      7          6           0       -0.664247    0.501879   -0.105041
      8          6           0       -0.552226    1.988458   -0.231650
      9          6           0       -1.961804    2.463337    0.224828
     10          6           0       -2.903090    1.258786   -0.025927
     11          7           0       -1.972987    0.138082    0.025908
     12          6           0       -2.104324   -1.241366    0.084395
     13          6           0       -0.827771   -1.754203    0.003370
     14          6           0       -3.432614   -1.906901    0.226358
     15          1           0        3.862465    1.175090    1.573973
     16          1           0        5.304331    0.428520    0.851066
     17          1           0        3.965333   -0.595015    1.412050
     18          1           0        3.822589    1.376625   -0.944095
     19          1           0        3.887667   -0.401833   -1.067705
     20          1           0       -0.347070    2.277194   -1.271337
     21          1           0        0.253940    2.406077    0.376415
     22          1           0       -1.942241    2.685434    1.296534
     23          1           0       -2.299259    3.362048   -0.297536
     24          1           0       -3.685056    1.161178    0.732952
     25          1           0       -3.386719    1.307871   -1.010508
     26          1           0       -0.552356   -2.798831    0.039521
     27          1           0       -3.953043   -1.602299    1.144422
     28          1           0       -4.101078   -1.683789   -0.616117
     29          1           0       -3.299441   -2.991226    0.265348
 ---------------------------------------------------------------------

 SCF Done:  E(UB3LYP) =  -633.636842772     A.U. after   33 cycles
 SCF Done:  E(UB3LYP) =  -633.636842772     a.u. after    1 cycles

 The electronic state is 2-A.
 Alpha  occ. eigenvalues --  -19.06016 -19.00006 -14.25827 -10.19396 -10.13383
 Alpha  occ. eigenvalues --  -10.11139 -10.10346 -10.10073 -10.08099 -10.07819
 Alpha  occ. eigenvalues --  -10.07721 -10.07455 -10.06509 -10.05751  -0.99732
 Alpha  occ. eigenvalues --   -0.91095  -0.89902  -0.73236  -0.69840  -0.67265
 Alpha  occ. eigenvalues --   -0.64732  -0.61068  -0.58752  -0.54853  -0.50640
 Alpha  occ. eigenvalues --   -0.49737  -0.46205  -0.44684  -0.40232  -0.39722
 Alpha  occ. eigenvalues --   -0.37967  -0.36645  -0.36065  -0.33731  -0.33176
 Alpha  occ. eigenvalues --   -0.33015  -0.32411  -0.31755  -0.31204  -0.29788
 Alpha  occ. eigenvalues --   -0.29144  -0.28540  -0.28008  -0.27031  -0.26289
 Alpha  occ. eigenvalues --   -0.25692  -0.24553  -0.23424  -0.20372  -0.17743
 Alpha  occ. eigenvalues --   -0.14309  -0.11014   0.04227
 Alpha virt. eigenvalues --    0.05946   0.07118   0.07922   0.08056   0.08446
 Alpha virt. eigenvalues --    0.08800   0.09405   0.09954   0.10631   0.10997
 Alpha virt. eigenvalues --    0.11368   0.11914   0.12670   0.12852   0.13451

  Beta  occ. eigenvalues --  -19.06016 -19.00001 -14.25823 -10.19389 -10.13374
  Beta  occ. eigenvalues --  -10.11090 -10.10345 -10.10073 -10.08080 -10.07781
  Beta  occ. eigenvalues --  -10.07706 -10.07413 -10.06509 -10.05745  -0.99726
  Beta  occ. eigenvalues --   -0.91088  -0.89885  -0.73208  -0.69820  -0.67242
  Beta  occ. eigenvalues --   -0.64683  -0.61014  -0.58713  -0.54811  -0.50561
  Beta  occ. eigenvalues --   -0.49707  -0.46152  -0.44661  -0.40201  -0.39688
  Beta  occ. eigenvalues --   -0.37943  -0.36610  -0.36046  -0.33697  -0.33143
  Beta  occ. eigenvalues --   -0.32985  -0.32358  -0.31721  -0.31175  -0.29757
  Beta  occ. eigenvalues --   -0.29115  -0.28515  -0.27975  -0.27001  -0.26225
  Beta  occ. eigenvalues --   -0.25660  -0.24535  -0.23379  -0.20360  -0.17735
  Beta  occ. eigenvalues --   -0.14285  -0.10995
  Beta virt. eigenvalues --    0.06179   0.06969   0.07910   0.08096   0.08369
  Beta virt. eigenvalues --    0.09109   0.09486   0.09614   0.10385   0.11155
  Beta virt. eigenvalues --    0.11329   0.11646   0.12292   0.12830   0.13090

 Mulliken charges and spin densities:
               1          2
     1  C    0.131797  -0.464016
     2  C   -0.245794   0.036104
     3  O   -0.014239   0.012969
     4  C   -1.875337   1.466565
     5  O   -0.292733   0.004805
     6  C    0.636783  -0.263191
     7  C    0.267314  -0.798626
     8  C    0.116280  -0.467813
     9  C    0.792172  -1.245100
    10  C    0.956462  -1.242921
    11  N    0.023909   0.342220
    12  C   -1.393223   1.012839
    13  C   -0.693171   1.335273
    14  C    2.697030  -3.342721
    15  H    0.012572   0.130723
    16  H   -0.039077   0.163613
    17  H    0.072056   0.098012
    18  H   -0.189854   0.352067
    19  H    0.158186   0.005600
    20  H   -0.074349   0.269604
    21  H    0.046652   0.113214
    22  H   -0.137121   0.305998
    23  H   -0.583061   0.757423
    24  H   -0.568698   0.752787
    25  H   -0.243833   0.439182
    26  H    0.081203   0.097503
    27  H   -0.201398   0.372665
    28  H   -0.242186   0.400920
    29  H   -0.198342   0.354299
 Sum of Mulliken charges =  -1.00000   1.00000

 Dipole moment (field-independent basis, Debye):
    X=              6.1986    Y=             -1.9283    Z=             -0.2731  Tot=              6.4974
 Quadrupole moment (field-independent basis, Debye-Ang):
   XX=           -163.5074   YY=           -132.6670   ZZ=           -113.1455
   XY=              8.6484   XZ=              1.2229   YZ=              1.6166

 Summary of Natural Population Analysis:

                                       Natural Population
                Natural  -----------------------------------------------
    Atom  No    Charge         Core      Valence    Rydberg      Total
 -----------------------------------------------------------------------
      C    1   -0.29895      0.99966     2.29503    0.00426     3.29895
      C    2   -0.01757      0.99958     2.00573    0.01225     3.01757
      O    3   -0.28715      0.99987     3.27861    0.00867     4.28715
      C    4    0.40064      0.99960     1.57641    0.02335     2.59936
      O    5   -0.32064      0.99988     3.31576    0.00501     4.32064
      C    6   -0.12610      0.99941     2.11592    0.01077     3.12610
      C    7    0.12077      0.99952     1.86696    0.01275     2.87923
      C    8   -0.20160      0.99960     2.19372    0.00828     3.20160
      C    9   -0.18879      0.99965     2.18119    0.00795     3.18879
      C   10   -0.07769      0.99963     2.06773    0.01033     3.07769
      N   11   -0.20106      0.99959     2.69034    0.01113     3.70106
      C   12    0.07596      0.99953     1.91191    0.01260     2.92404
      C   13   -0.11811      0.99948     2.11049    0.00813     3.11811
      C   14   -0.29986      0.99964     2.29491    0.00530     3.29986
      H   15    0.09991      0.00000     0.39869    0.00141     0.40009
      H   16    0.09772      0.00000     0.40124    0.00103     0.40228
      H   17    0.10623      0.00000     0.39253    0.00124     0.39377
      H   18    0.08858      0.00000     0.41025    0.00118     0.41142
      H   19    0.09331      0.00000     0.40550    0.00119     0.40669
      H   20    0.10682      0.00000     0.39181    0.00137     0.39318
      H   21    0.11195      0.00000     0.38652    0.00153     0.38805
      H   22    0.09991      0.00000     0.39853    0.00157     0.40009
      H   23    0.10565      0.00000     0.39197    0.00239     0.39435
      H   24    0.10546      0.00000     0.39105    0.00349     0.39454
      H   25    0.09744      0.00000     0.40011    0.00245     0.40256
      H   26    0.10819      0.00000     0.39097    0.00084     0.39181
      H   27    0.10691      0.00000     0.39149    0.00160     0.39309
      H   28    0.10551      0.00000     0.39305    0.00144     0.39449
      H   29    0.10656      0.00000     0.39269    0.00075     0.39344
 =======================================================================
   * Total *    0.00000     13.99463    37.84108    0.16429    52.00000

 Normal termination of Gaussian 16 at Thu Dec 10 10:54:06 2020.
