 Gaussian 16, Revision A.03,

 -----------------------------------------------------------
 # opt freq B3LYP/6-31G(d) empiricaldispersion=gd3bj scf=xqc
 -----------------------------------------------------------

 -------------------------------
 CID_116090411_JID_3433_neutraal
 -------------------------------
 Symbolic Z-matrix:
 Charge =  0 Multiplicity = 1

 SCF Done:  E(RB3LYP) =  -564.237407204     A.U. after   13 cycles
 SCF Done:  E(RB3LYP) =  -564.240711883     A.U. after   11 cycles
 SCF Done:  E(RB3LYP) =  -564.240097113     A.U. after   11 cycles
 SCF Done:  E(RB3LYP) =  -564.241398116     A.U. after   11 cycles
 SCF Done:  E(RB3LYP) =  -564.241807933     A.U. after   11 cycles
 SCF Done:  E(RB3LYP) =  -564.241863989     A.U. after   10 cycles
 SCF Done:  E(RB3LYP) =  -564.241982789     A.U. after   10 cycles
 SCF Done:  E(RB3LYP) =  -564.242044177     A.U. after    9 cycles
 SCF Done:  E(RB3LYP) =  -564.242038769     A.U. after   11 cycles
 SCF Done:  E(RB3LYP) =  -564.242117962     A.U. after   10 cycles
 SCF Done:  E(RB3LYP) =  -564.242142754     A.U. after    8 cycles
 SCF Done:  E(RB3LYP) =  -564.242150347     A.U. after   10 cycles
 SCF Done:  E(RB3LYP) =  -564.242152372     A.U. after   10 cycles
 SCF Done:  E(RB3LYP) =  -564.242154649     A.U. after    8 cycles
 SCF Done:  E(RB3LYP) =  -564.242156333     A.U. after    8 cycles
 SCF Done:  E(RB3LYP) =  -564.242156484     A.U. after    6 cycles
 Optimization completed.
    -- Stationary point found.
 Normal termination of Gaussian 16 at Wed Dec  9 23:18:53 2020.

 --------------------------------------------------------------------
 #N Geom=AllCheck Guess=TCheck SCRF=Check GenChk RB3LYP/6-31G(d) Freq
 --------------------------------------------------------------------

 Structure from the checkpoint file:  "JID_3433.chk"
 -------------------------------
 CID_116090411_JID_3433_neutraal
 -------------------------------
 Charge =  0 Multiplicity = 1

 SCF Done:  E(RB3LYP) =  -564.242156484     A.U. after    1 cycles

  Exact polarizability: 141.093  -2.595 135.073  -0.176   0.830 110.677
 Approx polarizability: 174.626  -2.489 172.834  -0.857  -2.898 166.643

                      1                      2                      3
                      A                      A                      A
 Frequencies --     25.9988                34.8868                71.7201
 Red. masses --      3.4457                 3.2119                 2.8039
 Frc consts  --      0.0014                 0.0023                 0.0085
 IR Inten    --      0.1598                 0.4096                 0.3393

                      4                      5                      6
                      A                      A                      A
 Frequencies --     74.0088                88.2432               100.7929
 Red. masses --      2.3491                 2.3598                 2.5456
 Frc consts  --      0.0076                 0.0108                 0.0152
 IR Inten    --      2.9689                 0.7731                 0.5997

                      7                      8                      9
                      A                      A                      A
 Frequencies --    114.3256               144.6177               165.9531
 Red. masses --      2.1536                 2.9291                 2.7105
 Frc consts  --      0.0166                 0.0361                 0.0440
 IR Inten    --      0.2229                 0.9460                 0.8062

                     10                     11                     12
                      A                      A                      A
 Frequencies --    186.9722               205.2619               221.8800
 Red. masses --      1.8947                 1.4419                 1.6367
 Frc consts  --      0.0390                 0.0358                 0.0475
 IR Inten    --      0.4547                 0.5589                 0.1096

                     13                     14                     15
                      A                      A                      A
 Frequencies --    234.2908               243.3857               275.1511
 Red. masses --      1.2188                 1.2546                 1.9188
 Frc consts  --      0.0394                 0.0438                 0.0856
 IR Inten    --      0.9033                 2.8142                 0.8137

                     16                     17                     18
                      A                      A                      A
 Frequencies --    305.5478               312.7620               348.1291
 Red. masses --      2.3421                 1.7450                 2.3510
 Frc consts  --      0.1288                 0.1006                 0.1679
 IR Inten    --      1.2947                 1.1714                 3.3534

                     19                     20                     21
                      A                      A                      A
 Frequencies --    372.7025               412.4962               437.0984
 Red. masses --      2.0712                 2.0969                 2.5779
 Frc consts  --      0.1695                 0.2102                 0.2902
 IR Inten    --      4.2261                 3.4732                 1.3001

                     22                     23                     24
                      A                      A                      A
 Frequencies --    474.9213               494.1282               528.5296
 Red. masses --      2.6158                 2.3119                 2.8307
 Frc consts  --      0.3476                 0.3326                 0.4659
 IR Inten    --      0.6978                 1.1853                 0.9794

                     25                     26                     27
                      A                      A                      A
 Frequencies --    624.7524               746.0121               754.1368
 Red. masses --      2.5607                 1.4579                 1.3691
 Frc consts  --      0.5889                 0.4780                 0.4588
 IR Inten    --      5.2788                 5.6349                61.4913

                     28                     29                     30
                      A                      A                      A
 Frequencies --    798.5318               824.0678               874.5424
 Red. masses --      1.2775                 1.5111                 2.6444
 Frc consts  --      0.4800                 0.6046                 1.1916
 IR Inten    --      9.5734                 0.3560                 2.6310

                     31                     32                     33
                      A                      A                      A
 Frequencies --    886.0112               908.8642               929.7647
 Red. masses --      1.7471                 1.7150                 1.5775
 Frc consts  --      0.8080                 0.8347                 0.8035
 IR Inten    --      1.3264                 3.7613                 7.6921

                     34                     35                     36
                      A                      A                      A
 Frequencies --    945.4825               967.1546               976.2298
 Red. masses --      1.7120                 1.6667                 1.9457
 Frc consts  --      0.9017                 0.9186                 1.0925
 IR Inten    --      7.3498                 1.0386                11.7834

                     37                     38                     39
                      A                      A                      A
 Frequencies --    996.7017              1037.2061              1039.1489
 Red. masses --      3.1305                 1.3595                 2.1912
 Frc consts  --      1.8323                 0.8617                 1.3941
 IR Inten    --     16.4580                 3.7665                 2.6727

                     40                     41                     42
                      A                      A                      A
 Frequencies --   1073.6644              1094.5471              1103.7231
 Red. masses --      2.1877                 1.9563                 2.1981
 Frc consts  --      1.4859                 1.3809                 1.5776
 IR Inten    --      3.0299                10.7083                 1.5115

                     43                     44                     45
                      A                      A                      A
 Frequencies --   1116.9483              1133.8682              1153.9878
 Red. masses --      1.8359                 1.6718                 2.6892
 Frc consts  --      1.3495                 1.2664                 2.1100
 IR Inten    --     16.1223                12.2004                68.1077

                     46                     47                     48
                      A                      A                      A
 Frequencies --   1173.8248              1178.1421              1191.3980
 Red. masses --      2.9580                 2.0518                 2.4145
 Frc consts  --      2.4013                 1.6780                 2.0192
 IR Inten    --     98.2514                11.6810                34.0332

                     49                     50                     51
                      A                      A                      A
 Frequencies --   1198.0452              1216.4657              1239.8918
 Red. masses --      1.5142                 1.8785                 1.6378
 Frc consts  --      1.2805                 1.6378                 1.4835
 IR Inten    --      5.2105                 1.8391                24.2836

                     52                     53                     54
                      A                      A                      A
 Frequencies --   1259.0798              1279.9942              1304.0731
 Red. masses --      1.3276                 1.3435                 1.1691
 Frc consts  --      1.2400                 1.2969                 1.1714
 IR Inten    --      2.9439                 1.4229                 8.8458

                     55                     56                     57
                      A                      A                      A
 Frequencies --   1312.8931              1325.0598              1350.0297
 Red. masses --      1.2150                 1.2910                 1.2291
 Frc consts  --      1.2339                 1.3355                 1.3198
 IR Inten    --      2.9360                 0.9527                 3.0900

                     58                     59                     60
                      A                      A                      A
 Frequencies --   1363.8175              1372.2825              1388.2097
 Red. masses --      1.1966                 1.3578                 1.3878
 Frc consts  --      1.3114                 1.5065                 1.5757
 IR Inten    --      7.4665                 3.7285                 0.6264

                     61                     62                     63
                      A                      A                      A
 Frequencies --   1396.6387              1402.3699              1420.0207
 Red. masses --      1.2861                 1.3362                 1.4663
 Frc consts  --      1.4781                 1.5482                 1.7421
 IR Inten    --     18.7036                 5.6233                 2.8768

                     64                     65                     66
                      A                      A                      A
 Frequencies --   1431.8885              1436.2132              1438.6893
 Red. masses --      1.2609                 1.2829                 1.2907
 Frc consts  --      1.5232                 1.5591                 1.5740
 IR Inten    --     10.4004                 2.4025                 4.8358

                     67                     68                     69
                      A                      A                      A
 Frequencies --   1443.6437              1453.2457              1501.4955
 Red. masses --      1.2807                 1.2672                 1.1641
 Frc consts  --      1.5726                 1.5768                 1.5463
 IR Inten    --      4.5221                23.6665                 4.3662

                     70                     71                     72
                      A                      A                      A
 Frequencies --   1506.9655              1512.3948              1513.9945
 Red. masses --      1.1210                 1.0805                 1.0530
 Frc consts  --      1.4999                 1.4562                 1.4222
 IR Inten    --     12.6756                 0.3904                 4.2722

                     73                     74                     75
                      A                      A                      A
 Frequencies --   1519.4970              1520.7901              1527.1540
 Red. masses --      1.0758                 1.0712                 1.0828
 Frc consts  --      1.4635                 1.4597                 1.4879
 IR Inten    --      5.5858                 3.7821                 7.0345

                     76                     77                     78
                      A                      A                      A
 Frequencies --   1528.2411              1531.7594              1533.7936
 Red. masses --      1.0583                 1.0565                 1.0590
 Frc consts  --      1.4563                 1.4605                 1.4678
 IR Inten    --      1.3013                16.4814                 5.3656

                     79                     80                     81
                      A                      A                      A
 Frequencies --   1534.6348              1538.5759              1544.5611
 Red. masses --      1.0589                 1.0693                 1.0525
 Frc consts  --      1.4693                 1.4913                 1.4794
 IR Inten    --      1.3359                 4.0921                 6.1839

                     82                     83                     84
                      A                      A                      A
 Frequencies --   1547.2978              1557.2079              2955.9381
 Red. masses --      1.0860                 1.0920                 1.0585
 Frc consts  --      1.5319                 1.5601                 5.4491
 IR Inten    --     14.1570                 5.5345                31.5888

                     85                     86                     87
                      A                      A                      A
 Frequencies --   2979.1109              2985.6681              2991.5716
 Red. masses --      1.0739                 1.0493                 1.0883
 Frc consts  --      5.6155                 5.5109                 5.7386
 IR Inten    --     73.6788                68.3046                72.0335

                     88                     89                     90
                      A                      A                      A
 Frequencies --   3002.3861              3027.2929              3033.3208
 Red. masses --      1.0820                 1.1048                 1.0614
 Frc consts  --      5.7465                 5.9652                 5.7541
 IR Inten    --     57.9731                61.7247                23.1342

                     91                     92                     93
                      A                      A                      A
 Frequencies --   3037.1816              3039.2790              3042.1698
 Red. masses --      1.0373                 1.0461                 1.0591
 Frc consts  --      5.6374                 5.6935                 5.7751
 IR Inten    --     36.1570                36.0916                23.6018

                     94                     95                     96
                      A                      A                      A
 Frequencies --   3042.6794              3044.7377              3061.2781
 Red. masses --      1.0639                 1.0387                 1.0994
 Frc consts  --      5.8031                 5.6731                 6.0706
 IR Inten    --     46.3570                19.6882                28.7273

                     97                     98                     99
                      A                      A                      A
 Frequencies --   3071.1862              3084.2582              3085.5344
 Red. masses --      1.0831                 1.0995                 1.1004
 Frc consts  --      6.0192                 6.1625                 6.1724
 IR Inten    --      4.3040                 6.5721                54.0686

                    100                    101                    102
                      A                      A                      A
 Frequencies --   3102.0978              3104.5642              3108.4241
 Red. masses --      1.0985                 1.1011                 1.1015
 Frc consts  --      6.2280                 6.2531                 6.2704
 IR Inten    --     51.1499                51.4773                49.8813

                    103                    104                    105
                      A                      A                      A
 Frequencies --   3116.4817              3117.5728              3134.2278
 Red. masses --      1.1026                 1.1019                 1.0963
 Frc consts  --      6.3097                 6.3097                 6.3452
 IR Inten    --     50.2176                57.5596                32.1713

                    106                    107                    108
                      A                      A                      A
 Frequencies --   3140.2224              3141.2712              3491.3158
 Red. masses --      1.0968                 1.0871                 1.0735
 Frc consts  --      6.3723                 6.3202                 7.7099
 IR Inten    --     24.9799                12.1625                 1.7837

 - Thermochemistry -
 -------------------
 Temperature   298.150 Kelvin.  Pressure   1.00000 Atm.
 Atom     1 has atomic number  6 and mass  12.00000

 Molecular mass:   187.19361 amu.
 Principal axes and moments of inertia in atomic units:
                           1         2         3
     Eigenvalues --  2515.416933190.430954893.55171
           X            0.99994  -0.01051  -0.00034
           Y            0.01051   0.99993   0.00573
           Z            0.00028  -0.00574   0.99998
 This molecule is an asymmetric top.
 Rotational symmetry number  1.
 Warning -- assumption of classical behavior for rotation
           may cause significant error
 Rotational temperatures (Kelvin)      0.03443     0.02715     0.01770
 Rotational constants (GHZ):           0.71747     0.56567     0.36880
 Zero-point vibrational energy     934840.9 (Joules/Mol)
                                  223.43235 (Kcal/Mol)
 Warning -- explicit consideration of  24 degrees of freedom as
           vibrations may cause significant error
 Vibrational temperatures:     37.41    50.19   103.19   106.48   126.96
          (Kelvin)            145.02   164.49   208.07   238.77   269.01
                              295.33   319.24   337.09   350.18   395.88
                              439.62   449.99   500.88   536.24   593.49
                              628.89   683.31   710.94   760.44   898.88
                             1073.35  1085.03  1148.91  1185.65  1258.27
                             1274.77  1307.65  1337.72  1360.34  1391.52
                             1404.58  1434.03  1492.31  1495.10  1544.76
                             1574.81  1588.01  1607.04  1631.38  1660.33
                             1688.87  1695.08  1714.16  1723.72  1750.22
                             1783.93  1811.54  1841.63  1876.27  1888.96
                             1906.47  1942.39  1962.23  1974.41  1997.32
                             2009.45  2017.70  2043.09  2060.17  2066.39
                             2069.95  2077.08  2090.90  2160.32  2168.19
                             2176.00  2178.30  2186.22  2188.08  2197.23
                             2198.80  2203.86  2206.79  2208.00  2213.67
                             2222.28  2226.22  2240.47  4252.94  4286.28
                             4295.71  4304.20  4319.76  4355.60  4364.27
                             4369.83  4372.84  4377.00  4377.74  4380.70
                             4404.50  4418.75  4437.56  4439.40  4463.23
                             4466.78  4472.33  4483.92  4485.49  4509.45
                             4518.08  4519.59  5023.22

 Zero-point correction=                           0.356062 (Hartree/Particle)
 Thermal correction to Energy=                    0.372959
 Thermal correction to Enthalpy=                  0.373904
 Thermal correction to Gibbs Free Energy=         0.310838
 Sum of electronic and zero-point Energies=           -563.886094
 Sum of electronic and thermal Energies=              -563.869197
 Sum of electronic and thermal Enthalpies=            -563.868253
 Sum of electronic and thermal Free Energies=         -563.931319

                     E (Thermal)             CV                S
                      KCal/Mol        Cal/Mol-Kelvin    Cal/Mol-Kelvin
 Total                  234.036             61.194            132.733
 Electronic               0.000              0.000              0.000
 Translational            0.889              2.981             41.587
 Rotational               0.889              2.981             32.041
 Vibrational            232.258             55.232             59.106
 Vibration     1          0.593              1.985              6.113
 Vibration     2          0.594              1.983              5.530
 Vibration     3          0.598              1.967              4.106
 Vibration     4          0.599              1.966              4.044
 Vibration     5          0.601              1.957              3.699
 Vibration     6          0.604              1.948              3.439
 Vibration     7          0.607              1.938              3.194
 Vibration     8          0.616              1.908              2.742
 Vibration     9          0.624              1.884              2.481
 Vibration    10          0.632              1.858              2.258
 Vibration    11          0.640              1.832              2.085
 Vibration    12          0.648              1.808              1.944
 Vibration    13          0.654              1.788              1.846
 Vibration    14          0.659              1.774              1.778
 Vibration    15          0.677              1.719              1.564
 Vibration    16          0.696              1.663              1.386
 Vibration    17          0.701              1.649              1.348
 Vibration    18          0.726              1.579              1.175
 Vibration    19          0.744              1.528              1.069
 Vibration    20          0.776              1.443              0.918
 Vibration    21          0.797              1.389              0.836
 Vibration    22          0.832              1.306              0.724
 Vibration    23          0.850              1.263              0.673
 Vibration    24          0.883              1.187              0.590

                           ! Non-Optimized Parameters !
 Normal termination of Gaussian 16 at Wed Dec  9 23:29:42 2020.

 ----------------------------------------------------------------------
 # B3LYP/6-311++G(d,p) empiricaldispersion=gd3bj scf=xqc pop=npa geom=c
 heck
 ----------------------------------------------------------------------

 ---------------------------------------
 CID_116090411_JID_3433_Energie_neutraal
 ---------------------------------------
 Structure from the checkpoint file:  "JID_3433.chk"
 Charge =  0 Multiplicity = 1

 SCF Done:  E(RB3LYP) =  -564.407571395     A.U. after   14 cycles
 Normal termination of Gaussian 16 at Wed Dec  9 23:34:35 2020.

 ----------------------------------------------------------------------
 # B3LYP/6-311++G(d,p) empiricaldispersion=gd3bj scf=xqc pop=npa geom=c
 heck
 ----------------------------------------------------------------------

 -------------------------------------
 CID_116090411_JID_3433_Energie_kation
 -------------------------------------
 Structure from the checkpoint file:  "JID_3433.chk"
 Charge =  1 Multiplicity = 2

 SCF Done:  E(UB3LYP) =  -564.118723846     A.U. after   21 cycles
 Normal termination of Gaussian 16 at Wed Dec  9 23:44:22 2020.
 Gaussian 16:  ES64L-G16RevA.03 25-Dec-2016

 ----------------------------------------------------------------------
 # B3LYP/6-311++G(d,p) empiricaldispersion=gd3bj scf=xqc pop=npa geom=c
 heck
 ----------------------------------------------------------------------

 ------------------------------------
 CID_116090411_JID_3433_Energie_anion
 ------------------------------------
 Structure from the checkpoint file:  "JID_3433.chk"
 Charge = -1 Multiplicity = 2

                         Standard orientation:
 ---------------------------------------------------------------------
 Center     Atomic      Atomic             Coordinates (Angstroms)
 Number     Number       Type             X           Y           Z
 ---------------------------------------------------------------------
      1          6           0        3.560504   -0.219556    1.402634
      2          6           0        3.163919    0.158647   -0.027601
      3          6           0        2.043847   -0.715286   -0.614869
      4          6           0        0.702198   -0.687747    0.147868
      5          6           0        0.231659    0.760171    0.384119
      6          7           0        0.038262    1.468243   -0.883061
      7          6           0       -0.935299    2.555526   -0.836111
      8          6           0       -0.600921    3.717702    0.110103
      9          6           0       -0.389270   -1.527670   -0.568356
     10          6           0        0.098994   -2.937838   -0.939008
     11          6           0       -1.669746   -1.671304    0.265770
     12          8           0       -2.463546   -0.494961    0.203123
     13          6           0       -3.648786   -0.609661    0.956652
     14          1           0        2.739548   -0.051530    2.108117
     15          1           0        4.417839    0.370215    1.745944
     16          1           0        3.836996   -1.279559    1.464076
     17          1           0        2.880334    1.219170   -0.056759
     18          1           0        4.043311    0.067881   -0.678761
     19          1           0        1.858103   -0.411748   -1.653999
     20          1           0        2.416446   -1.745200   -0.656623
     21          1           0        0.863305   -1.140094    1.139276
     22          1           0       -0.731382    0.739707    0.895942
     23          1           0        0.938885    1.268501    1.060024
     24          1           0        0.930269    1.822505   -1.222351
     25          1           0       -1.052100    2.940070   -1.857734
     26          1           0       -1.896429    2.108516   -0.556649
     27          1           0        0.355705    4.181885   -0.162772
     28          1           0       -1.374066    4.494731    0.069323
     29          1           0       -0.522888    3.376805    1.148584
     30          1           0       -0.665098   -0.993477   -1.485539
     31          1           0        0.441276   -3.488490   -0.052319
     32          1           0       -0.707627   -3.519175   -1.399824
     33          1           0        0.926771   -2.909182   -1.651333
     34          1           0       -2.265801   -2.519016   -0.112082
     35          1           0       -1.418690   -1.901259    1.317511
     36          1           0       -3.439438   -0.773709    2.026500
     37          1           0       -4.199207    0.327692    0.841360
     38          1           0       -4.278116   -1.441153    0.599332
 ---------------------------------------------------------------------

 SCF Done:  E(UB3LYP) =  -564.391557513     A.U. after   30 cycles

 The electronic state is 2-A.
 Alpha  occ. eigenvalues --  -19.02741 -14.19036 -10.11466 -10.11282 -10.08844
 Alpha  occ. eigenvalues --  -10.07783 -10.07150 -10.06818 -10.06802 -10.06451
 Alpha  occ. eigenvalues --  -10.06226 -10.05998 -10.05920  -0.94091  -0.80128
 Alpha  occ. eigenvalues --   -0.72195  -0.68348  -0.64631  -0.61916  -0.60760
 Alpha  occ. eigenvalues --   -0.57459  -0.54609  -0.52694  -0.49810  -0.48392
 Alpha  occ. eigenvalues --   -0.44792  -0.40065  -0.39300  -0.37492  -0.37397
 Alpha  occ. eigenvalues --   -0.35754  -0.35497  -0.34115  -0.33321  -0.32116
 Alpha  occ. eigenvalues --   -0.31630  -0.31026  -0.30676  -0.29029  -0.28187
 Alpha  occ. eigenvalues --   -0.28020  -0.26647  -0.25909  -0.25381  -0.24673
 Alpha  occ. eigenvalues --   -0.24020  -0.23933  -0.23056  -0.21527  -0.21369
 Alpha  occ. eigenvalues --   -0.20277  -0.16255  -0.12003   0.04353
 Alpha virt. eigenvalues --    0.06067   0.06492   0.07224   0.07908   0.08466
 Alpha virt. eigenvalues --    0.08980   0.09322   0.09832   0.10196   0.10680
 Alpha virt. eigenvalues --    0.11054   0.11784   0.11999   0.12499   0.12632

  Beta  occ. eigenvalues --  -19.02733 -14.19030 -10.11450 -10.11242 -10.08836
  Beta  occ. eigenvalues --  -10.07773 -10.07146 -10.06812 -10.06786 -10.06437
  Beta  occ. eigenvalues --  -10.06218 -10.05969 -10.05894  -0.94075  -0.80114
  Beta  occ. eigenvalues --   -0.72178  -0.68322  -0.64603  -0.61878  -0.60722
  Beta  occ. eigenvalues --   -0.57417  -0.54549  -0.52645  -0.49765  -0.48345
  Beta  occ. eigenvalues --   -0.44761  -0.40045  -0.39263  -0.37464  -0.37366
  Beta  occ. eigenvalues --   -0.35722  -0.35472  -0.34083  -0.33298  -0.32090
  Beta  occ. eigenvalues --   -0.31598  -0.31001  -0.30643  -0.29001  -0.28161
  Beta  occ. eigenvalues --   -0.27983  -0.26621  -0.25883  -0.25351  -0.24645
  Beta  occ. eigenvalues --   -0.23993  -0.23909  -0.23013  -0.21501  -0.21351
  Beta  occ. eigenvalues --   -0.20252  -0.16235  -0.11992
  Beta virt. eigenvalues --    0.06314   0.06948   0.07072   0.07582   0.08392
  Beta virt. eigenvalues --    0.08979   0.09364   0.09559   0.10123   0.10659
  Beta virt. eigenvalues --    0.11054   0.11432   0.11984   0.12231   0.12647

 Mulliken charges and spin densities:
               1          2
     1  C    0.647720  -1.246496
     2  C   -0.389149   0.183855
     3  C   -0.300234  -0.223486
     4  C    1.820414  -0.806928
     5  C   -0.862911  -0.090435
     6  N   -0.192279   0.139899
     7  C   -0.401111   0.130810
     8  C    0.209872  -0.651927
     9  C   -0.342248   0.555571
    10  C   -0.361022  -0.356409
    11  C   -0.556968  -0.366297
    12  O   -0.158779   0.050281
    13  C    0.826162  -1.114646
    14  H   -0.347979   0.489519
    15  H   -0.323928   0.468878
    16  H   -0.000523   0.130162
    17  H    0.018953   0.095585
    18  H   -0.474992   0.643003
    19  H    0.122745   0.038535
    20  H    0.041320   0.078939
    21  H    0.173185   0.022048
    22  H    0.452459  -0.271362
    23  H    0.330158  -0.137551
    24  H    0.181212   0.040549
    25  H   -0.093030   0.227590
    26  H    0.350885  -0.178627
    27  H   -0.018225   0.137864
    28  H   -0.267114   0.407320
    29  H   -0.257162   0.403961
    30  H    0.247910  -0.011484
    31  H   -0.043663   0.207569
    32  H   -0.097318   0.211960
    33  H   -0.015178   0.169912
    34  H    0.041601   0.119021
    35  H   -0.006360   0.162216
    36  H   -0.351776   0.491809
    37  H   -0.261348   0.390242
    38  H   -0.341300   0.458550
 Sum of Mulliken charges =  -1.00000   1.00000

 Dipole moment (field-independent basis, Debye):
    X=              0.3488    Y=             -0.8145    Z=             -2.8482  Tot=              2.9828
 Quadrupole moment (field-independent basis, Debye-Ang):
   XX=           -166.0322   YY=           -140.6186   ZZ=           -122.5815
   XY=             -1.9072   XZ=              1.5150   YZ=             -1.2863

 Summary of Natural Population Analysis:

                                       Natural Population
                Natural  -----------------------------------------------
    Atom  No    Charge         Core      Valence    Rydberg      Total
 -----------------------------------------------------------------------
      C    1   -0.28708      0.99967     2.28228    0.00513     3.28708
      C    2   -0.19047      0.99964     2.18251    0.00832     3.19047
      C    3   -0.19228      0.99961     2.18332    0.00935     3.19228
      C    4   -0.10632      0.99958     2.09530    0.01144     3.10632
      C    5   -0.09665      0.99959     2.08455    0.01251     3.09665
      N    6   -0.34282      0.99975     2.83208    0.01099     3.84282
      C    7   -0.08685      0.99964     2.07621    0.01099     3.08685
      C    8   -0.29540      0.99967     2.29176    0.00398     3.29540
      C    9   -0.12471      0.99958     2.11401    0.01112     3.12471
      C   10   -0.28533      0.99965     2.28010    0.00558     3.28533
      C   11   -0.00309      0.99955     1.99134    0.01221     3.00309
      O   12   -0.29906      0.99988     3.28981    0.00937     4.29906
      C   13   -0.09767      0.99962     2.08851    0.00954     3.09767
      H   14    0.09717      0.00000     0.40171    0.00112     0.40283
      H   15    0.09911      0.00000     0.39985    0.00104     0.40089
      H   16    0.09531      0.00000     0.40362    0.00107     0.40469
      H   17    0.09135      0.00000     0.40716    0.00149     0.40865
      H   18    0.09553      0.00000     0.40336    0.00111     0.40447
      H   19    0.09860      0.00000     0.40013    0.00127     0.40140
      H   20    0.09731      0.00000     0.40153    0.00116     0.40269
      H   21    0.09474      0.00000     0.40352    0.00174     0.40526
      H   22    0.10643      0.00000     0.39155    0.00202     0.39357
      H   23    0.08359      0.00000     0.41503    0.00138     0.41641
      H   24    0.16833      0.00000     0.32902    0.00265     0.33167
      H   25    0.08649      0.00000     0.41254    0.00097     0.41351
      H   26    0.09600      0.00000     0.40229    0.00171     0.40400
      H   27    0.09298      0.00000     0.40549    0.00153     0.40702
      H   28    0.09713      0.00000     0.40162    0.00125     0.40287
      H   29    0.09856      0.00000     0.40029    0.00116     0.40144
      H   30    0.10792      0.00000     0.38977    0.00231     0.39208
      H   31    0.09662      0.00000     0.40249    0.00089     0.40338
      H   32    0.09786      0.00000     0.40137    0.00077     0.40214
      H   33    0.10123      0.00000     0.39800    0.00076     0.39877
      H   34    0.07954      0.00000     0.41905    0.00141     0.42046
      H   35    0.07797      0.00000     0.42049    0.00154     0.42203
      H   36    0.07930      0.00000     0.41901    0.00169     0.42070
      H   37    0.09085      0.00000     0.40795    0.00120     0.40915
      H   38    0.07780      0.00000     0.42045    0.00175     0.42220
 =======================================================================
   * Total *    0.00000     12.99542    39.84906    0.15552    53.00000

 Normal termination of Gaussian 16 at Wed Dec  9 23:58:05 2020.
