 Gaussian 16, Revision A.03,

 -----------------------------------------------------------
 # opt freq B3LYP/6-31G(d) empiricaldispersion=gd3bj scf=xqc
 -----------------------------------------------------------

 -------------------------------
 CID_150269803_JID_1860_neutraal
 -------------------------------
 Symbolic Z-matrix:
 Charge =  0 Multiplicity = 1

 SCF Done:  E(RB3LYP) =  -499.175226217     A.U. after   14 cycles
 SCF Done:  E(RB3LYP) =  -499.179077198     A.U. after   13 cycles
 SCF Done:  E(RB3LYP) =  -499.179743428     A.U. after   12 cycles
 SCF Done:  E(RB3LYP) =  -499.180067140     A.U. after   12 cycles
 SCF Done:  E(RB3LYP) =  -499.180485011     A.U. after   11 cycles
 SCF Done:  E(RB3LYP) =  -499.180623012     A.U. after   12 cycles
 SCF Done:  E(RB3LYP) =  -499.180632677     A.U. after   12 cycles
 SCF Done:  E(RB3LYP) =  -499.180684956     A.U. after   11 cycles
 SCF Done:  E(RB3LYP) =  -499.180686875     A.U. after    9 cycles
 SCF Done:  E(RB3LYP) =  -499.180687804     A.U. after    8 cycles
 SCF Done:  E(RB3LYP) =  -499.180688101     A.U. after    7 cycles
 SCF Done:  E(RB3LYP) =  -499.180688191     A.U. after    7 cycles
 Optimization completed.
    -- Stationary point found.
 Normal termination of Gaussian 16 at Tue Dec  8 21:22:32 2020.

 --------------------------------------------------------------------
 #N Geom=AllCheck Guess=TCheck SCRF=Check GenChk RB3LYP/6-31G(d) Freq
 --------------------------------------------------------------------

 Structure from the checkpoint file:  "JID_1860.chk"
 -------------------------------
 CID_150269803_JID_1860_neutraal
 -------------------------------
 Charge =  0 Multiplicity = 1

 SCF Done:  E(RB3LYP) =  -499.180688191     A.U. after    1 cycles

  Exact polarizability: 143.034  -7.400  99.701   9.796   1.139  77.451
 Approx polarizability: 199.868 -15.770 139.317  20.120   0.063 112.046

                      1                      2                      3
                      A                      A                      A
 Frequencies --     33.7529                49.1962                62.1322
 Red. masses --      3.7864                 2.9820                 3.0264
 Frc consts  --      0.0025                 0.0043                 0.0069
 IR Inten    --      0.3318                 0.8861                 1.4651

                      4                      5                      6
                      A                      A                      A
 Frequencies --     75.6488               133.9739               171.6267
 Red. masses --      3.3626                 2.1345                 1.4231
 Frc consts  --      0.0113                 0.0226                 0.0247
 IR Inten    --      0.5359                 0.5310                 0.7654

                      7                      8                      9
                      A                      A                      A
 Frequencies --    208.4236               250.7844               262.6598
 Red. masses --      1.6733                 2.3372                 1.5917
 Frc consts  --      0.0428                 0.0866                 0.0647
 IR Inten    --      2.2580                 0.4851                 3.2611

                     10                     11                     12
                      A                      A                      A
 Frequencies --    292.6594               295.8681               318.3997
 Red. masses --      2.4546                 5.2632                 2.2358
 Frc consts  --      0.1239                 0.2715                 0.1335
 IR Inten    --      1.5168                 2.9616                 8.3707

                     13                     14                     15
                      A                      A                      A
 Frequencies --    387.6521               397.6647               419.8386
 Red. masses --      2.2629                 2.3416                 2.0102
 Frc consts  --      0.2004                 0.2182                 0.2088
 IR Inten    --      1.3289                 2.6568                13.3097

                     16                     17                     18
                      A                      A                      A
 Frequencies --    438.7806               517.9026               530.2604
 Red. masses --      1.5954                 2.4830                 2.3071
 Frc consts  --      0.1810                 0.3924                 0.3822
 IR Inten    --     29.1685                17.8964                16.4619

                     19                     20                     21
                      A                      A                      A
 Frequencies --    620.4635               633.3890               739.4635
 Red. masses --      4.4571                 1.9728                 1.9146
 Frc consts  --      1.0110                 0.4663                 0.6168
 IR Inten    --     22.0889                16.7184                76.9367

                     22                     23                     24
                      A                      A                      A
 Frequencies --    746.0901               780.7070               806.3811
 Red. masses --      1.2412                 1.6465                 1.9237
 Frc consts  --      0.4071                 0.5913                 0.7370
 IR Inten    --     91.8910                 4.0333                97.9848

                     25                     26                     27
                      A                      A                      A
 Frequencies --    820.3409               877.0981               936.8718
 Red. masses --      2.7069                 1.5241                 2.5679
 Frc consts  --      1.0733                 0.6908                 1.3280
 IR Inten    --     18.7854                 2.1569                30.8511

                     28                     29                     30
                      A                      A                      A
 Frequencies --    956.3402               966.6422               983.3824
 Red. masses --      1.3584                 1.9036                 2.1006
 Frc consts  --      0.7320                 1.0480                 1.1968
 IR Inten    --     35.9809                 7.8840                41.7768

                     31                     32                     33
                      A                      A                      A
 Frequencies --   1006.0394              1045.0175              1055.1505
 Red. masses --      1.6648                 1.4068                 2.0684
 Frc consts  --      0.9927                 0.9052                 1.3568
 IR Inten    --      3.7606                 0.0808               104.0465

                     34                     35                     36
                      A                      A                      A
 Frequencies --   1086.2724              1113.9057              1148.4735
 Red. masses --      1.4615                 2.9105                 1.8955
 Frc consts  --      1.0161                 2.1278                 1.4730
 IR Inten    --      4.9568                81.6986                26.0845

                     37                     38                     39
                      A                      A                      A
 Frequencies --   1165.8190              1202.6855              1252.3825
 Red. masses --      2.1448                 1.6810                 2.3512
 Frc consts  --      1.7175                 1.4325                 2.1728
 IR Inten    --      6.5996                32.0495                17.8705

                     40                     41                     42
                      A                      A                      A
 Frequencies --   1279.3152              1299.3914              1345.6281
 Red. masses --      1.3282                 1.2486                 1.0951
 Frc consts  --      1.2808                 1.2421                 1.1683
 IR Inten    --      0.2980                 3.4377                 5.2752

                     43                     44                     45
                      A                      A                      A
 Frequencies --   1388.9172              1405.9802              1412.5152
 Red. masses --      1.3538                 3.4365                 1.4808
 Frc consts  --      1.5387                 4.0024                 1.7408
 IR Inten    --      6.7805                19.5537                 0.9866

                     46                     47                     48
                      A                      A                      A
 Frequencies --   1428.4354              1438.5053              1440.8344
 Red. masses --      1.2871                 1.2937                 1.3024
 Frc consts  --      1.5473                 1.5772                 1.5930
 IR Inten    --     34.6560                 0.7297                 8.3452

                     49                     50                     51
                      A                      A                      A
 Frequencies --   1459.6147              1500.9202              1506.1728
 Red. masses --      1.2646                 1.0809                 1.0604
 Frc consts  --      1.5874                 1.4347                 1.4173
 IR Inten    --      4.5262                 1.5598                 8.1478

                     52                     53                     54
                      A                      A                      A
 Frequencies --   1511.2642              1518.9164              1523.6466
 Red. masses --      1.0919                 1.0678                 1.0509
 Frc consts  --      1.4693                 1.4515                 1.4374
 IR Inten    --      3.5274                 6.8396                13.9594

                     55                     56                     57
                      A                      A                      A
 Frequencies --   1529.6056              1549.1242              1648.7942
 Red. masses --      1.0598                 1.0532                 1.4013
 Frc consts  --      1.4609                 1.4891                 2.2445
 IR Inten    --      5.2328                 1.8936                48.6587

                     58                     59                     60
                      A                      A                      A
 Frequencies --   1680.8849              1719.4559              3020.4539
 Red. masses --      3.8532                 4.3373                 1.0638
 Frc consts  --      6.4144                 7.5553                 5.7179
 IR Inten    --     61.2377                15.1313                26.2404

                     61                     62                     63
                      A                      A                      A
 Frequencies --   3039.8418              3043.3627              3060.0285
 Red. masses --      1.0639                 1.0427                 1.0626
 Frc consts  --      5.7923                 5.6903                 5.8625
 IR Inten    --     35.4812                31.8859                22.8716

                     64                     65                     66
                      A                      A                      A
 Frequencies --   3060.8583              3066.8948              3086.1698
 Red. masses --      1.0443                 1.0857                 1.0961
 Frc consts  --      5.7647                 6.0168                 6.1507
 IR Inten    --     25.8607                61.2101                41.0949

                     67                     68                     69
                      A                      A                      A
 Frequencies --   3105.0487              3111.3313              3122.9509
 Red. masses --      1.1004                 1.1078                 1.1014
 Frc consts  --      6.2511                 6.3185                 6.3291
 IR Inten    --     62.3230                38.3975                23.5195

                     70                     71                     72
                      A                      A                      A
 Frequencies --   3135.1252              3150.6209              3171.4286
 Red. masses --      1.1001                 1.0993                 1.0604
 Frc consts  --      6.3710                 6.4293                 6.2839
 IR Inten    --     30.2746                 9.3194                 8.9376

                     73                     74                     75
                      A                      A                      A
 Frequencies --   3259.3642              3518.6313              3625.5241
 Red. masses --      1.1155                 1.0470                 1.0978
 Frc consts  --      6.9824                 7.6376                 8.5022
 IR Inten    --      7.1300                 6.8952                 6.4541

 - Thermochemistry -
 -------------------
 Temperature   298.150 Kelvin.  Pressure   1.00000 Atm.
 Atom     1 has atomic number  6 and mass  12.00000

 Molecular mass:   156.12626 amu.
 Principal axes and moments of inertia in atomic units:
                           1         2         3
     Eigenvalues --  1043.543792810.324123165.25023
           X            0.99993   0.01180   0.00217
           Y           -0.01182   0.99988   0.01042
           Z           -0.00205  -0.01044   0.99994
 This molecule is an asymmetric top.
 Rotational symmetry number  1.
 Warning -- assumption of classical behavior for rotation
           may cause significant error
 Rotational temperatures (Kelvin)      0.08300     0.03082     0.02736
 Rotational constants (GHZ):           1.72944     0.64218     0.57017
 Zero-point vibrational energy     627774.5 (Joules/Mol)
                                  150.04170 (Kcal/Mol)
 Warning -- explicit consideration of  19 degrees of freedom as
           vibrations may cause significant error
 Vibrational temperatures:     48.56    70.78    89.39   108.84   192.76
          (Kelvin)            246.93   299.88   360.82   377.91   421.07
                              425.69   458.11   557.74   572.15   604.05
                              631.31   745.15   762.93   892.71   911.31
                             1063.92  1073.46  1123.26  1160.20  1180.29
                             1261.95  1347.95  1375.96  1390.78  1414.87
                             1447.47  1503.55  1518.13  1562.90  1602.66
                             1652.40  1677.35  1730.40  1801.90  1840.65
                             1869.53  1936.06  1998.34  2022.89  2032.29
                             2055.20  2069.69  2073.04  2100.06  2159.49
                             2167.05  2174.37  2185.38  2192.19  2200.76
                             2228.84  2372.25  2418.42  2473.91  4345.76
                             4373.65  4378.72  4402.70  4403.89  4412.58
                             4440.31  4467.47  4476.51  4493.23  4510.75
                             4533.04  4562.98  4689.50  5062.53  5216.32

 Zero-point correction=                           0.239107 (Hartree/Particle)
 Thermal correction to Energy=                    0.252165
 Thermal correction to Enthalpy=                  0.253109
 Thermal correction to Gibbs Free Energy=         0.199082
 Sum of electronic and zero-point Energies=           -498.941582
 Sum of electronic and thermal Energies=              -498.928524
 Sum of electronic and thermal Enthalpies=            -498.927579
 Sum of electronic and thermal Free Energies=         -498.981606

                     E (Thermal)             CV                S
                      KCal/Mol        Cal/Mol-Kelvin    Cal/Mol-Kelvin
 Total                  158.236             47.938            113.708
 Electronic               0.000              0.000              0.000
 Translational            0.889              2.981             41.046
 Rotational               0.889              2.981             30.607
 Vibrational            156.458             41.976             42.055
 Vibration     1          0.594              1.983              5.596
 Vibration     2          0.595              1.978              4.849
 Vibration     3          0.597              1.972              4.388
 Vibration     4          0.599              1.965              4.001
 Vibration     5          0.613              1.919              2.888
 Vibration     6          0.626              1.877              2.418
 Vibration     7          0.642              1.828              2.057
 Vibration     8          0.663              1.761              1.725
 Vibration     9          0.670              1.741              1.644
 Vibration    10          0.688              1.687              1.459
 Vibration    11          0.690              1.681              1.440
 Vibration    12          0.705              1.638              1.318
 Vibration    13          0.756              1.497              1.009
 Vibration    14          0.764              1.475              0.971
 Vibration    15          0.783              1.427              0.893
 Vibration    16          0.799              1.386              0.830
 Vibration    17          0.873              1.210              0.615
 Vibration    18          0.885              1.183              0.587
 Vibration    19          0.981              0.989              0.416

 Optimization completed.
    -- Stationary point found.
 Normal termination of Gaussian 16 at Tue Dec  8 21:27:58 2020.

 ----------------------------------------------------------------------
 # B3LYP/6-311++G(d,p) empiricaldispersion=gd3bj scf=xqc pop=npa geom=c
 heck
 ----------------------------------------------------------------------

 ---------------------------------------
 CID_150269803_JID_1860_Energie_neutraal
 ---------------------------------------
 Structure from the checkpoint file:  "JID_1860.chk"
 Charge =  0 Multiplicity = 1

 SCF Done:  E(RB3LYP) =  -499.330089087     A.U. after   14 cycles
 Normal termination of Gaussian 16 at Tue Dec  8 21:30:07 2020.

 ----------------------------------------------------------------------
 # B3LYP/6-311++G(d,p) empiricaldispersion=gd3bj scf=xqc pop=npa geom=c
 heck
 ----------------------------------------------------------------------

 -------------------------------------
 CID_150269803_JID_1860_Energie_kation
 -------------------------------------
 Structure from the checkpoint file:  "JID_1860.chk"
 Charge =  1 Multiplicity = 2

 SCF Done:  E(UB3LYP) =  -499.042152704     A.U. after   20 cycles
 Normal termination of Gaussian 16 at Tue Dec  8 21:35:03 2020.
 Gaussian 16:  ES64L-G16RevA.03 25-Dec-2016

 ----------------------------------------------------------------------
 # B3LYP/6-311++G(d,p) empiricaldispersion=gd3bj scf=xqc pop=npa geom=c
 heck
 ----------------------------------------------------------------------

 ------------------------------------
 CID_150269803_JID_1860_Energie_anion
 ------------------------------------
 Structure from the checkpoint file:  "JID_1860.chk"
 Charge = -1 Multiplicity = 2

                         Standard orientation:
 ---------------------------------------------------------------------
 Center     Atomic      Atomic             Coordinates (Angstroms)
 Number     Number       Type             X           Y           Z
 ---------------------------------------------------------------------
      1          6           0        2.905362    1.407368   -0.627182
      2          6           0        2.383121    0.044482   -1.089197
      3          6           0        2.454512   -1.052726   -0.017090
      4          6           0        1.651294   -0.792924    1.257412
      5          8           0        0.243324   -0.725207    1.028359
      6          7           0       -0.123121    0.606520    0.744061
      7          6           0       -1.307284    0.697610    0.236561
      8          6           0       -2.188588   -0.391784   -0.262306
      9          6           0       -3.517832   -0.242594   -0.165892
     10          6           0       -1.570862   -1.600062   -0.925475
     11          7           0       -1.843799    1.989096    0.181207
     12          1           0        2.264976    1.825478    0.154933
     13          1           0        2.926837    2.120738   -1.459145
     14          1           0        3.925944    1.328785   -0.230927
     15          1           0        1.346136    0.152015   -1.427330
     16          1           0        2.960653   -0.293265   -1.960120
     17          1           0        2.112354   -2.002877   -0.447975
     18          1           0        3.503382   -1.203964    0.279765
     19          1           0        1.780077   -1.630882    1.951493
     20          1           0        1.968974    0.126040    1.761391
     21          1           0       -4.194626   -0.997391   -0.557148
     22          1           0       -3.959446    0.615844    0.328850
     23          1           0       -0.758722   -1.310346   -1.601461
     24          1           0       -1.137389   -2.278546   -0.187819
     25          1           0       -2.329615   -2.137279   -1.503006
     26          1           0       -1.164500    2.690276    0.460338
     27          1           0       -2.281522    2.211504   -0.706565
 ---------------------------------------------------------------------

 SCF Done:  E(UB3LYP) =  -499.315500495     A.U. after   33 cycles
 SCF Done:  E(UB3LYP) =  -499.315500495     a.u. after    1 cycles

 The electronic state is 2-A.
 Alpha  occ. eigenvalues --  -19.03026 -14.20748 -14.19690 -10.10674 -10.10315
 Alpha  occ. eigenvalues --  -10.05898 -10.05685 -10.04892 -10.04584 -10.04052
 Alpha  occ. eigenvalues --  -10.03690  -0.95381  -0.81377  -0.71227  -0.67671
 Alpha  occ. eigenvalues --   -0.66893  -0.59815  -0.56815  -0.52839  -0.49232
 Alpha  occ. eigenvalues --   -0.45880  -0.42688  -0.39143  -0.37620  -0.36636
 Alpha  occ. eigenvalues --   -0.34655  -0.33206  -0.31850  -0.30871  -0.29755
 Alpha  occ. eigenvalues --   -0.29248  -0.27843  -0.26814  -0.25738  -0.25235
 Alpha  occ. eigenvalues --   -0.23877  -0.22373  -0.21965  -0.21525  -0.19319
 Alpha  occ. eigenvalues --   -0.15129  -0.14058  -0.09454   0.05198
 Alpha virt. eigenvalues --    0.07007   0.08065   0.08323   0.08836   0.09616
 Alpha virt. eigenvalues --    0.10309   0.11154   0.11541   0.11885   0.12142
 Alpha virt. eigenvalues --    0.13140   0.13647   0.13977   0.14771   0.15902

  Beta  occ. eigenvalues --  -19.02992 -14.20577 -14.19656 -10.10612 -10.10314
  Beta  occ. eigenvalues --  -10.05775 -10.05676 -10.04870 -10.04586 -10.04027
  Beta  occ. eigenvalues --  -10.03557  -0.95258  -0.81258  -0.71090  -0.67515
  Beta  occ. eigenvalues --   -0.66732  -0.59770  -0.56680  -0.52773  -0.48892
  Beta  occ. eigenvalues --   -0.45800  -0.42561  -0.39005  -0.37520  -0.36532
  Beta  occ. eigenvalues --   -0.34554  -0.33136  -0.31774  -0.30707  -0.29682
  Beta  occ. eigenvalues --   -0.29131  -0.27801  -0.26723  -0.25660  -0.24944
  Beta  occ. eigenvalues --   -0.23771  -0.22271  -0.21902  -0.21491  -0.19118
  Beta  occ. eigenvalues --   -0.14800  -0.13459  -0.08884
  Beta virt. eigenvalues --    0.07427   0.08380   0.08619   0.08942   0.09485
  Beta virt. eigenvalues --    0.09916   0.10521   0.11421   0.11707   0.12191
  Beta virt. eigenvalues --    0.12442   0.13302   0.13765   0.14335   0.14950

 Mulliken charges and spin densities:
               1          2
     1  C    0.734032  -1.372490
     2  C   -0.558926   0.613956
     3  C    0.527201  -0.778685
     4  C   -0.296847  -0.018350
     5  O    0.055889   0.017613
     6  N   -0.282826   0.037730
     7  C    0.049274  -0.560519
     8  C    0.373010   0.622751
     9  C   -0.366021  -0.188072
    10  C   -0.172315  -0.546008
    11  N   -0.435698   0.152958
    12  H    0.057508   0.101812
    13  H   -0.410547   0.542236
    14  H   -0.072970   0.182786
    15  H    0.137635  -0.028948
    16  H   -0.672584   0.844496
    17  H    0.059148   0.073698
    18  H   -0.080335   0.193472
    19  H    0.119419   0.034991
    20  H    0.152308  -0.014118
    21  H   -0.083953   0.166536
    22  H    0.172392  -0.009830
    23  H   -0.114262   0.255998
    24  H    0.172095  -0.006096
    25  H   -0.009218   0.133974
    26  H    0.174998   0.078248
    27  H   -0.228405   0.469859
 Sum of Mulliken charges =  -1.00000   1.00000

 Dipole moment (field-independent basis, Debye):
    X=              0.0705    Y=             -2.8699    Z=              4.3857  Tot=              5.2417
 Quadrupole moment (field-independent basis, Debye-Ang):
   XX=           -129.2584   YY=            -97.7283   ZZ=           -100.1486
   XY=              0.9545   XZ=              6.6451   YZ=              3.9812

 Summary of Natural Population Analysis:

                                       Natural Population
                Natural  -----------------------------------------------
    Atom  No    Charge         Core      Valence    Rydberg      Total
 -----------------------------------------------------------------------
      C    1   -0.28986      0.99966     2.28406    0.00614     3.28986
      C    2   -0.19356      0.99964     2.18494    0.00898     3.19356
      C    3   -0.20154      0.99962     2.19227    0.00965     3.20154
      C    4   -0.00662      0.99958     1.99484    0.01221     3.00662
      O    5   -0.22931      0.99989     3.21946    0.00996     4.22931
      N    6   -0.10498      0.99960     2.59287    0.01250     3.60498
      C    7    0.19430      0.99956     1.78742    0.01872     2.80570
      C    8   -0.02272      0.99949     2.01263    0.01060     3.02272
      C    9   -0.16011      0.99952     2.15300    0.00758     3.16011
      C   10   -0.29499      0.99962     2.28931    0.00606     3.29499
      N   11   -0.40052      0.99972     2.89105    0.00975     3.90052
      H   12    0.10388      0.00000     0.39436    0.00176     0.39612
      H   13    0.09922      0.00000     0.39960    0.00118     0.40078
      H   14    0.08928      0.00000     0.40965    0.00107     0.41072
      H   15    0.10130      0.00000     0.39694    0.00176     0.39870
      H   16    0.09406      0.00000     0.40394    0.00200     0.40594
      H   17    0.09671      0.00000     0.40215    0.00113     0.40329
      H   18    0.09180      0.00000     0.40700    0.00120     0.40820
      H   19    0.08333      0.00000     0.41563    0.00104     0.41667
      H   20    0.08677      0.00000     0.41171    0.00152     0.41323
      H   21    0.08630      0.00000     0.41285    0.00085     0.41370
      H   22    0.09732      0.00000     0.40157    0.00112     0.40268
      H   23    0.10299      0.00000     0.39541    0.00160     0.39701
      H   24    0.10928      0.00000     0.38947    0.00125     0.39072
      H   25    0.09442      0.00000     0.40475    0.00083     0.40558
      H   26    0.18526      0.00000     0.31287    0.00187     0.31474
      H   27    0.18799      0.00000     0.30741    0.00460     0.31201
 =======================================================================
   * Total *   -0.00000     10.99592    31.86717    0.13691    43.00000

 Normal termination of Gaussian 16 at Tue Dec  8 21:42:35 2020.
