 Gaussian 16, Revision A.03,

 -----------------------------------------------------------
 # opt freq B3LYP/6-31G(d) empiricaldispersion=gd3bj scf=xqc
 -----------------------------------------------------------

 ------------------------------
 CID_87090120_JID_3499_neutraal
 ------------------------------
 Symbolic Z-matrix:
 Charge =  0 Multiplicity = 1

 SCF Done:  E(RB3LYP) =  -1330.44267145     A.U. after   16 cycles
 SCF Done:  E(RB3LYP) =  -1330.45988226     A.U. after   13 cycles
 SCF Done:  E(RB3LYP) =  -1330.46143148     A.U. after   12 cycles
 SCF Done:  E(RB3LYP) =  -1330.46154325     A.U. after   11 cycles
 SCF Done:  E(RB3LYP) =  -1330.46158928     A.U. after   10 cycles
 SCF Done:  E(RB3LYP) =  -1330.46159373     A.U. after    9 cycles
 SCF Done:  E(RB3LYP) =  -1330.46159683     A.U. after    9 cycles
 SCF Done:  E(RB3LYP) =  -1330.40962166     A.U. after   14 cycles
 SCF Done:  E(RB3LYP) =  -1330.46303242     A.U. after   14 cycles
 SCF Done:  E(RB3LYP) =  -1330.46437795     A.U. after   15 cycles
 SCF Done:  E(RB3LYP) =  -1330.47156335     A.U. after   10 cycles
 SCF Done:  E(RB3LYP) =  -1330.47157263     A.U. after   11 cycles
 SCF Done:  E(RB3LYP) =  -1330.47157813     A.U. after   11 cycles
 SCF Done:  E(RB3LYP) =  -1330.47158764     A.U. after   11 cycles
 SCF Done:  E(RB3LYP) =  -1330.47159194     A.U. after   11 cycles
 SCF Done:  E(RB3LYP) =  -1330.47159235     A.U. after    9 cycles
 Optimization completed.
    -- Stationary point found.
 Normal termination of Gaussian 16 at Wed Dec  9 23:32:54 2020.

 --------------------------------------------------------------------
 #N Geom=AllCheck Guess=TCheck SCRF=Check GenChk RB3LYP/6-31G(d) Freq
 --------------------------------------------------------------------

 Structure from the checkpoint file:  "JID_3499.chk"
 ------------------------------
 CID_87090120_JID_3499_neutraal
 ------------------------------
 Charge =  0 Multiplicity = 1

 SCF Done:  E(RB3LYP) =  -1330.47159235     A.U. after    1 cycles

  Exact polarizability: 169.106 -11.597 145.348  -1.930  -1.041  56.830
 Approx polarizability: 289.182 -28.558 280.915  -8.062  -6.584  94.958

                      1                      2                      3
                      A                      A                      A
 Frequencies --     37.4243                84.1434                92.3770
 Red. masses --      9.6237                 4.6111                 1.4921
 Frc consts  --      0.0079                 0.0192                 0.0075
 IR Inten    --      0.9086                 8.9574                63.6946

                      4                      5                      6
                      A                      A                      A
 Frequencies --    129.5707               177.6001               208.2093
 Red. masses --      6.9927                 5.9406                 3.7422
 Frc consts  --      0.0692                 0.1104                 0.0956
 IR Inten    --      0.4476                 3.2828                 6.6017

                      7                      8                      9
                      A                      A                      A
 Frequencies --    264.8311               296.4378               329.1526
 Red. masses --     12.0021                11.5673                 3.9692
 Frc consts  --      0.4960                 0.5989                 0.2534
 IR Inten    --      3.5345                 0.9761                 3.4987

                     10                     11                     12
                      A                      A                      A
 Frequencies --    399.8036               412.5612               456.2989
 Red. masses --      6.3528                 4.2785                 7.6383
 Frc consts  --      0.5983                 0.4291                 0.9370
 IR Inten    --      4.8429                 4.9556                 8.4067

                     13                     14                     15
                      A                      A                      A
 Frequencies --    481.9232               487.1949               523.6321
 Red. masses --      6.6829                 9.1730                 4.3394
 Frc consts  --      0.9145                 1.2828                 0.7010
 IR Inten    --     20.8864                13.5425                 2.4384

                     16                     17                     18
                      A                      A                      A
 Frequencies --    556.2691               563.9302               604.8132
 Red. masses --      4.3062                 9.0808                 7.6885
 Frc consts  --      0.7851                 1.7015                 1.6570
 IR Inten    --     12.2828               101.1995                51.0482

                     19                     20                     21
                      A                      A                      A
 Frequencies --    672.6109               728.5592               765.4813
 Red. masses --      7.2288                 1.2548                 3.2497
 Frc consts  --      1.9268                 0.3924                 1.1219
 IR Inten    --     13.0729                 1.0554                75.1359

                     22                     23                     24
                      A                      A                      A
 Frequencies --    777.4527               794.5879               870.5797
 Red. masses --      4.8062                 1.7603                 5.3223
 Frc consts  --      1.7116                 0.6548                 2.3766
 IR Inten    --    163.2034               118.0197                 6.9550

                     25                     26                     27
                      A                      A                      A
 Frequencies --    872.4392               895.3528               957.1198
 Red. masses --      1.5832                 3.7806                 7.1855
 Frc consts  --      0.7100                 1.7857                 3.8783
 IR Inten    --      0.2323                14.3420                 4.8549

                     28                     29                     30
                      A                      A                      A
 Frequencies --    963.6120               999.4406              1025.9361
 Red. masses --      1.3290                 1.2844                 2.7321
 Frc consts  --      0.7271                 0.7559                 1.6943
 IR Inten    --      0.7352                 0.0938                27.8381

                     31                     32                     33
                      A                      A                      A
 Frequencies --   1045.6001              1121.8283              1167.4378
 Red. masses --      5.4879                 3.3855                 1.6231
 Frc consts  --      3.5350                 2.5103                 1.3033
 IR Inten    --     39.0430                79.9243                11.1003

                     34                     35                     36
                      A                      A                      A
 Frequencies --   1192.8985              1195.3263              1208.7310
 Red. masses --      1.6739                 1.1454                 1.3342
 Frc consts  --      1.4034                 0.9642                 1.1485
 IR Inten    --    258.9155                14.5661                 1.4774

                     37                     38                     39
                      A                      A                      A
 Frequencies --   1278.4672              1348.2957              1394.9961
 Red. masses --      1.9837                10.6183                 3.3809
 Frc consts  --      1.9103                11.3730                 3.8764
 IR Inten    --     20.7880               154.1647                16.3998

                     40                     41                     42
                      A                      A                      A
 Frequencies --   1403.4285              1408.0820              1501.9821
 Red. masses --      1.8547                 7.3052                 2.5713
 Frc consts  --      2.1523                 8.5338                 3.4177
 IR Inten    --      7.1709                 7.5815                 8.8769

                     43                     44                     45
                      A                      A                      A
 Frequencies --   1559.6246              1578.7246              1680.5316
 Red. masses --      4.8815                 5.6124                 5.6931
 Frc consts  --      6.9960                 8.2416                 9.4731
 IR Inten    --     22.9081                 4.9590                 8.8277

                     46                     47                     48
                      A                      A                      A
 Frequencies --   3193.2418              3202.6498              3215.9057
 Red. masses --      1.0861                 1.0902                 1.0963
 Frc consts  --      6.5249                 6.5882                 6.6801
 IR Inten    --      0.8001                13.4316                23.3311

                     49                     50                     51
                      A                      A                      A
 Frequencies --   3240.0386              3265.8582              3683.2718
 Red. masses --      1.0938                 1.0931                 1.0655
 Frc consts  --      6.7653                 6.8691                 8.5170
 IR Inten    --      3.8320                 0.8893               103.7655

 - Thermochemistry -
 -------------------
 Temperature   298.150 Kelvin.  Pressure   1.00000 Atm.
 Atom     1 has atomic number  6 and mass  12.00000

 Molecular mass:   213.97584 amu.
 Principal axes and moments of inertia in atomic units:
                           1         2         3
     Eigenvalues --  1569.934383414.892564609.39345
           X            0.99999  -0.00065   0.00372
           Y            0.00063   0.99999   0.00491
           Z           -0.00372  -0.00491   0.99998
 This molecule is an asymmetric top.
 Rotational symmetry number  1.
 Warning -- assumption of classical behavior for rotation
           may cause significant error
 Rotational temperatures (Kelvin)      0.05517     0.02536     0.01879
 Rotational constants (GHZ):           1.14956     0.52849     0.39154
 Zero-point vibrational energy     336846.1 (Joules/Mol)
                                   80.50814 (Kcal/Mol)
 Warning -- explicit consideration of  18 degrees of freedom as
           vibrations may cause significant error
 Vibrational temperatures:     53.85   121.06   132.91   186.42   255.53
          (Kelvin)            299.57   381.03   426.51   473.58   575.23
                              593.58   656.51   693.38   700.96   753.39
                              800.35   811.37   870.19   967.74  1048.23
                             1101.36  1118.58  1143.23  1252.57  1255.25
                             1288.21  1377.08  1386.42  1437.97  1476.09
                             1504.39  1614.06  1679.68  1716.31  1719.81
                             1739.09  1839.43  1939.90  2007.09  2019.22
                             2025.92  2161.02  2243.95  2271.43  2417.91
                             4594.36  4607.90  4626.97  4661.69  4698.84
                             5299.41

 Zero-point correction=                           0.128298 (Hartree/Particle)
 Thermal correction to Energy=                    0.139667
 Thermal correction to Enthalpy=                  0.140611
 Thermal correction to Gibbs Free Energy=         0.089873
 Sum of electronic and zero-point Energies=          -1330.343294
 Sum of electronic and thermal Energies=             -1330.331925
 Sum of electronic and thermal Enthalpies=           -1330.330981
 Sum of electronic and thermal Free Energies=        -1330.381719

                     E (Thermal)             CV                S
                      KCal/Mol        Cal/Mol-Kelvin    Cal/Mol-Kelvin
 Total                   87.642             42.941            106.787
 Electronic               0.000              0.000              0.000
 Translational            0.889              2.981             41.985
 Rotational               0.889              2.981             31.580
 Vibrational             85.865             36.980             33.221
 Vibration     1          0.594              1.982              5.391
 Vibration     2          0.601              1.960              3.792
 Vibration     3          0.602              1.955              3.609
 Vibration     4          0.612              1.924              2.952
 Vibration     5          0.628              1.870              2.353
 Vibration     6          0.642              1.828              2.059
 Vibration     7          0.671              1.737              1.630
 Vibration     8          0.690              1.680              1.437
 Vibration     9          0.712              1.617              1.264
 Vibration    10          0.766              1.471              0.963
 Vibration    11          0.776              1.443              0.918
 Vibration    12          0.815              1.347              0.777
 Vibration    13          0.838              1.290              0.705
 Vibration    14          0.843              1.278              0.691
 Vibration    15          0.879              1.198              0.602
 Vibration    16          0.912              1.126              0.531
 Vibration    17          0.920              1.109              0.516
 Vibration    18          0.963              1.022              0.441

                           ! Non-Optimized Parameters !
 Normal termination of Gaussian 16 at Wed Dec  9 23:37:22 2020.

 ----------------------------------------------------------------------
 # B3LYP/6-311++G(d,p) empiricaldispersion=gd3bj scf=xqc pop=npa geom=c
 heck
 ----------------------------------------------------------------------

 --------------------------------------
 CID_87090120_JID_3499_Energie_neutraal
 --------------------------------------
 Structure from the checkpoint file:  "JID_3499.chk"
 Charge =  0 Multiplicity = 1

 SCF Done:  E(RB3LYP) =  -1330.67558663     A.U. after   16 cycles
 Normal termination of Gaussian 16 at Wed Dec  9 23:39:02 2020.

 ----------------------------------------------------------------------
 # B3LYP/6-311++G(d,p) empiricaldispersion=gd3bj scf=xqc pop=npa geom=c
 heck
 ----------------------------------------------------------------------

 ------------------------------------
 CID_87090120_JID_3499_Energie_kation
 ------------------------------------
 Structure from the checkpoint file:  "JID_3499.chk"
 Charge =  1 Multiplicity = 2

 SCF Done:  E(UB3LYP) =  -1330.37381127     A.U. after   21 cycles
 Normal termination of Gaussian 16 at Wed Dec  9 23:41:57 2020.
 Gaussian 16:  ES64L-G16RevA.03 25-Dec-2016

 ----------------------------------------------------------------------
 # B3LYP/6-311++G(d,p) empiricaldispersion=gd3bj scf=xqc pop=npa geom=c
 heck
 ----------------------------------------------------------------------

 -----------------------------------
 CID_87090120_JID_3499_Energie_anion
 -----------------------------------
 Structure from the checkpoint file:  "JID_3499.chk"
 Charge = -1 Multiplicity = 2

                         Standard orientation:
 ---------------------------------------------------------------------
 Center     Atomic      Atomic             Coordinates (Angstroms)
 Number     Number       Type             X           Y           Z
 ---------------------------------------------------------------------
      1          6           0        3.536053   -0.916948   -0.030378
      2          6           0        3.216763    0.413360   -0.060762
      3          6           0        1.843197    0.799396   -0.021813
      4          6           0        1.309073    2.082929   -0.044203
      5         16           0       -0.397338    2.087872    0.024189
      6          6           0       -0.456618    0.361404    0.086966
      7          6           0        0.813511   -0.217698    0.053156
      8          6           0        1.186409   -1.592700    0.091212
      9          6           0        2.517014   -1.917654    0.046715
     10         16           0       -1.998083   -0.446583    0.116730
     11          8           0       -1.914573   -1.697090    0.872668
     12          8           0       -3.023550    0.546260    0.413216
     13          8           0       -2.124782   -0.881236   -1.471040
     14          1           0        4.576345   -1.226462   -0.060372
     15          1           0        3.986538    1.177374   -0.114350
     16          1           0        1.850769    3.018655   -0.084734
     17          1           0        0.418933   -2.353354    0.168872
     18          1           0        2.812397   -2.962350    0.077103
     19          1           0       -2.607423   -1.730493   -1.485323
 ---------------------------------------------------------------------

 SCF Done:  E(UB3LYP) =  -1330.71173384     A.U. after   22 cycles

 The electronic state is 2-A.
 Alpha  occ. eigenvalues --  -88.94807 -88.72880 -19.04889 -18.99665 -18.99479
 Alpha  occ. eigenvalues --  -10.05737 -10.04743 -10.04255 -10.04101 -10.03243
 Alpha  occ. eigenvalues --  -10.03010 -10.02868 -10.02457  -8.00806  -7.81533
 Alpha  occ. eigenvalues --   -5.97210  -5.97035  -5.96837  -5.77837  -5.77440
 Alpha  occ. eigenvalues --   -5.77213  -1.01993  -0.91448  -0.89027  -0.75235
 Alpha  occ. eigenvalues --   -0.68932  -0.63602  -0.59708  -0.59189  -0.53034
 Alpha  occ. eigenvalues --   -0.47802  -0.45171  -0.43973  -0.40808  -0.38850
 Alpha  occ. eigenvalues --   -0.35356  -0.34066  -0.32951  -0.32254  -0.29713
 Alpha  occ. eigenvalues --   -0.29318  -0.27331  -0.26615  -0.25325  -0.22946
 Alpha  occ. eigenvalues --   -0.22570  -0.21425  -0.21003  -0.19941  -0.19653
 Alpha  occ. eigenvalues --   -0.18714  -0.17952  -0.14828  -0.11330  -0.07920
 Alpha  occ. eigenvalues --    0.02482
 Alpha virt. eigenvalues --    0.08494   0.08987   0.09980   0.11111   0.12493
 Alpha virt. eigenvalues --    0.12739   0.14347   0.14403   0.14833   0.15332
 Alpha virt. eigenvalues --    0.16047   0.16436   0.17007   0.17328   0.18240

  Beta  occ. eigenvalues --  -88.94793 -88.72748 -19.04845 -18.99640 -18.99463
  Beta  occ. eigenvalues --  -10.05484 -10.04725 -10.04385 -10.03592 -10.03264
  Beta  occ. eigenvalues --  -10.02759 -10.02710 -10.02343  -8.00791  -7.81415
  Beta  occ. eigenvalues --   -5.97161  -5.97025  -5.96833  -5.77773  -5.77381
  Beta  occ. eigenvalues --   -5.76784  -1.01902  -0.91358  -0.88982  -0.74868
  Beta  occ. eigenvalues --   -0.68529  -0.63083  -0.59418  -0.58770  -0.52627
  Beta  occ. eigenvalues --   -0.47298  -0.44841  -0.43590  -0.40657  -0.38695
  Beta  occ. eigenvalues --   -0.35250  -0.33915  -0.32826  -0.31989  -0.29564
  Beta  occ. eigenvalues --   -0.29182  -0.27148  -0.25898  -0.25004  -0.22834
  Beta  occ. eigenvalues --   -0.22421  -0.21222  -0.20481  -0.19606  -0.18950
  Beta  occ. eigenvalues --   -0.18277  -0.17772  -0.13533  -0.10129  -0.05859
  Beta virt. eigenvalues --    0.08216   0.08668   0.09006   0.09982   0.11106
  Beta virt. eigenvalues --    0.12582   0.13330   0.14547   0.14799   0.14839
  Beta virt. eigenvalues --    0.15460   0.16120   0.16733   0.17204   0.17417

 Mulliken charges and spin densities:
               1          2
     1  C   -0.193774  -0.008709
     2  C   -0.882604   0.191700
     3  C   -0.268161  -0.155342
     4  C    0.398418   0.381502
     5  S   -0.665517   0.204043
     6  C    0.325216   0.162514
     7  C    0.854673   0.026228
     8  C   -0.978341   0.035198
     9  C   -0.442265   0.135249
    10  S    0.656555   0.059893
    11  O   -0.282381   0.004562
    12  O   -0.211797  -0.000693
    13  O   -0.202446   0.005027
    14  H    0.101426   0.000501
    15  H    0.079370  -0.015056
    16  H    0.215452  -0.023965
    17  H    0.129890  -0.007760
    18  H    0.104513  -0.009786
    19  H    0.261773   0.014894
 Sum of Mulliken charges =  -1.00000   1.00000

 Dipole moment (field-independent basis, Debye):
    X=              0.4650    Y=             -0.8017    Z=             -1.5736  Tot=              1.8262
 Quadrupole moment (field-independent basis, Debye-Ang):
   XX=           -119.0310   YY=           -100.7802   ZZ=           -101.8607
   XY=              7.9500   XZ=              5.0545   YZ=              3.8839

 Summary of Natural Population Analysis:

                                       Natural Population
                Natural  -----------------------------------------------
    Atom  No    Charge         Core      Valence    Rydberg      Total
 -----------------------------------------------------------------------
      C    1   -0.12900      0.99958     2.11958    0.00984     3.12900
      C    2   -0.04529      0.99952     2.03669    0.00908     3.04529
      C    3   -0.08045      0.99949     2.07176    0.00920     3.08045
      C    4   -0.08869      0.99953     2.07759    0.01157     3.08869
      S    5    0.30143      4.99935     2.67358    0.02563     7.69857
      C    6   -0.23902      0.99935     2.22475    0.01492     3.23902
      C    7   -0.03118      0.99944     2.02137    0.01036     3.03118
      C    8   -0.08100      0.99943     2.07241    0.00917     3.08100
      C    9   -0.07946      0.99960     2.06942    0.01044     3.07946
      S   10    1.13683      4.99917     1.75846    0.10554     6.86317
      O   11   -0.46638      0.99990     3.46026    0.00622     4.46638
      O   12   -0.45922      0.99990     3.45333    0.00599     4.45922
      O   13   -0.43662      0.99991     3.42897    0.00774     4.43662
      H   14    0.08915      0.00000     0.40974    0.00111     0.41085
      H   15    0.08817      0.00000     0.41022    0.00160     0.41183
      H   16    0.09510      0.00000     0.40382    0.00108     0.40490
      H   17    0.10209      0.00000     0.39582    0.00208     0.39791
      H   18    0.08772      0.00000     0.41118    0.00110     0.41228
      H   19    0.23581      0.00000     0.26058    0.00361     0.26419
 =======================================================================
   * Total *    0.00000     20.99418    33.75953    0.24629    55.00000

 Normal termination of Gaussian 16 at Wed Dec  9 23:45:00 2020.
