 Gaussian 16, Revision A.03,

 -----------------------------------------------------------
 # opt freq B3LYP/6-31G(d) empiricaldispersion=gd3bj scf=xqc
 -----------------------------------------------------------

 -------------------------------
 CID_103559552_JID_4727_neutraal
 -------------------------------
 Symbolic Z-matrix:
 Charge =  0 Multiplicity = 1

 SCF Done:  E(RB3LYP) =  -601.086524956     A.U. after   13 cycles
 SCF Done:  E(RB3LYP) =  -601.095473059     A.U. after   12 cycles
 SCF Done:  E(RB3LYP) =  -601.096227167     A.U. after   11 cycles
 SCF Done:  E(RB3LYP) =  -601.096665282     A.U. after   11 cycles
 SCF Done:  E(RB3LYP) =  -601.097020185     A.U. after   12 cycles
 SCF Done:  E(RB3LYP) =  -601.097817245     A.U. after   11 cycles
 SCF Done:  E(RB3LYP) =  -601.098163293     A.U. after   11 cycles
 SCF Done:  E(RB3LYP) =  -601.098249196     A.U. after   10 cycles
 SCF Done:  E(RB3LYP) =  -601.098280289     A.U. after    9 cycles
 SCF Done:  E(RB3LYP) =  -601.098295783     A.U. after    9 cycles
 SCF Done:  E(RB3LYP) =  -601.098310276     A.U. after    7 cycles
 SCF Done:  E(RB3LYP) =  -601.098311987     A.U. after    8 cycles
 SCF Done:  E(RB3LYP) =  -601.098312841     A.U. after    7 cycles
 SCF Done:  E(RB3LYP) =  -601.098313007     A.U. after    7 cycles
 SCF Done:  E(RB3LYP) =  -601.098313053     A.U. after    6 cycles
 Optimization completed.
    -- Stationary point found.
 Normal termination of Gaussian 16 at Thu Dec 10 10:35:12 2020.

 --------------------------------------------------------------------
 #N Geom=AllCheck Guess=TCheck SCRF=Check GenChk RB3LYP/6-31G(d) Freq
 --------------------------------------------------------------------

 Structure from the checkpoint file:  "JID_4727.chk"
 -------------------------------
 CID_103559552_JID_4727_neutraal
 -------------------------------
 Charge =  0 Multiplicity = 1

 SCF Done:  E(RB3LYP) =  -601.098313053     A.U. after    1 cycles

  Exact polarizability: 147.461   7.710 128.291   6.252   2.154 127.481
 Approx polarizability: 184.032  12.083 173.455  11.315   5.752 193.392

                      1                      2                      3
                      A                      A                      A
 Frequencies --     26.5533                54.7670                63.7296
 Red. masses --      3.2936                 2.2609                 2.9886
 Frc consts  --      0.0014                 0.0040                 0.0072
 IR Inten    --      0.0351                 0.1905                 0.5393

                      4                      5                      6
                      A                      A                      A
 Frequencies --     80.8061                87.2944               101.0099
 Red. masses --      2.8344                 2.3378                 2.0177
 Frc consts  --      0.0109                 0.0105                 0.0121
 IR Inten    --      0.8073                 0.2576                 0.6779

                      7                      8                      9
                      A                      A                      A
 Frequencies --    122.3442               129.9773               150.4149
 Red. masses --      1.7447                 2.1233                 1.4805
 Frc consts  --      0.0154                 0.0211                 0.0197
 IR Inten    --      3.0225                 0.6032                 0.1843

                     10                     11                     12
                      A                      A                      A
 Frequencies --    180.7083               196.2204               233.5453
 Red. masses --      1.9016                 2.8438                 1.7312
 Frc consts  --      0.0366                 0.0645                 0.0556
 IR Inten    --      0.4212                 0.2876                 5.0312

                     13                     14                     15
                      A                      A                      A
 Frequencies --    255.7476               282.4437               284.3389
 Red. masses --      1.4387                 2.0334                 2.9484
 Frc consts  --      0.0554                 0.0956                 0.1404
 IR Inten    --      1.5621                 4.4856                 2.1234

                     16                     17                     18
                      A                      A                      A
 Frequencies --    305.6029               345.4207               384.6947
 Red. masses --      2.4353                 2.7323                 2.1611
 Frc consts  --      0.1340                 0.1921                 0.1884
 IR Inten    --      2.0753                 0.2570                 0.6339

                     19                     20                     21
                      A                      A                      A
 Frequencies --    421.3119               446.4568               466.2526
 Red. masses --      3.1983                 2.7022                 2.6096
 Frc consts  --      0.3345                 0.3173                 0.3342
 IR Inten    --      1.1086                 3.0146                 2.6716

                     22                     23                     24
                      A                      A                      A
 Frequencies --    503.9044               567.3190               592.5005
 Red. masses --      2.8432                 2.4600                 2.6045
 Frc consts  --      0.4254                 0.4665                 0.5387
 IR Inten    --      2.9981                 4.3577                 8.0698

                     25                     26                     27
                      A                      A                      A
 Frequencies --    676.5300               726.6366               747.1011
 Red. masses --      3.0051                 1.3590                 1.2234
 Frc consts  --      0.8104                 0.4228                 0.4023
 IR Inten    --      2.4772                 1.9764                 4.4475

                     28                     29                     30
                      A                      A                      A
 Frequencies --    765.9265               805.6020               809.2699
 Red. masses --      1.3766                 1.7902                 1.5874
 Frc consts  --      0.4758                 0.6845                 0.6125
 IR Inten    --      1.5299                18.5552                18.3811

                     31                     32                     33
                      A                      A                      A
 Frequencies --    831.4347               852.3655               881.7742
 Red. masses --      1.3808                 2.3784                 2.2059
 Frc consts  --      0.5624                 1.0181                 1.0106
 IR Inten    --      9.9548                 1.3418                 0.8363

                     34                     35                     36
                      A                      A                      A
 Frequencies --    926.7759               933.6113               947.3084
 Red. masses --      1.3513                 1.8450                 1.7790
 Frc consts  --      0.6838                 0.9475                 0.9406
 IR Inten    --     42.6070                21.7257                 2.4443

                     37                     38                     39
                      A                      A                      A
 Frequencies --    962.3092               975.1455               983.1827
 Red. masses --      2.5015                 2.0766                 2.2891
 Frc consts  --      1.3649                 1.1634                 1.3037
 IR Inten    --      0.3430                 0.1549                 1.0228

                     40                     41                     42
                      A                      A                      A
 Frequencies --   1024.0525              1047.1829              1051.1503
 Red. masses --      1.7724                 1.4818                 1.4662
 Frc consts  --      1.0951                 0.9574                 0.9545
 IR Inten    --      1.6864                 9.3801                 4.9218

                     43                     44                     45
                      A                      A                      A
 Frequencies --   1063.9594              1084.0007              1091.3909
 Red. masses --      2.1541                 2.3296                 1.7295
 Frc consts  --      1.4367                 1.6129                 1.2138
 IR Inten    --      9.3056                 3.1628                 4.0824

                     46                     47                     48
                      A                      A                      A
 Frequencies --   1124.8567              1139.9094              1160.9634
 Red. masses --      4.3898                 2.6037                 3.6329
 Frc consts  --      3.2726                 1.9933                 2.8849
 IR Inten    --     53.9371                43.9536                47.2266

                     49                     50                     51
                      A                      A                      A
 Frequencies --   1168.5058              1190.4612              1199.0161
 Red. masses --      1.8201                 1.2775                 1.9415
 Frc consts  --      1.4642                 1.0667                 1.6445
 IR Inten    --     13.5751                 1.0590                28.7679

                     52                     53                     54
                      A                      A                      A
 Frequencies --   1213.5644              1222.5775              1235.3920
 Red. masses --      1.9338                 1.3002                 1.4729
 Frc consts  --      1.6780                 1.1450                 1.3244
 IR Inten    --     34.4736                 1.6718                11.6967

                     55                     56                     57
                      A                      A                      A
 Frequencies --   1265.9093              1266.5070              1288.0907
 Red. masses --      1.2395                 1.5133                 1.4507
 Frc consts  --      1.1704                 1.4301                 1.4182
 IR Inten    --      2.5877                 8.0018                 1.6860

                     58                     59                     60
                      A                      A                      A
 Frequencies --   1298.9435              1311.6345              1322.4750
 Red. masses --      1.4262                 1.5024                 1.9035
 Frc consts  --      1.4177                 1.5229                 1.9615
 IR Inten    --     14.4430                31.6126                 2.6860

                     61                     62                     63
                      A                      A                      A
 Frequencies --   1327.4825              1342.7419              1388.0548
 Red. masses --      1.7859                 1.3545                 1.2773
 Frc consts  --      1.8542                 1.4388                 1.4499
 IR Inten    --     17.2847                 5.1687                26.9634

                     64                     65                     66
                      A                      A                      A
 Frequencies --   1402.2707              1415.8504              1436.9920
 Red. masses --      1.5149                 1.3164                 1.2409
 Frc consts  --      1.7550                 1.5547                 1.5097
 IR Inten    --      5.6154                 2.1358                10.1211

                     67                     68                     69
                      A                      A                      A
 Frequencies --   1443.2631              1475.5069              1492.6268
 Red. masses --      1.3373                 1.2089                 1.0824
 Frc consts  --      1.6413                 1.5507                 1.4208
 IR Inten    --      7.7870                 6.3059                 1.7530

                     70                     71                     72
                      A                      A                      A
 Frequencies --   1497.7154              1502.9823              1505.0833
 Red. masses --      1.1323                 1.0941                 1.0517
 Frc consts  --      1.4964                 1.4562                 1.4037
 IR Inten    --      2.3316                 0.1911                 3.7208

                     73                     74                     75
                      A                      A                      A
 Frequencies --   1512.1653              1514.9384              1525.2829
 Red. masses --      1.0957                 1.0935                 1.0493
 Frc consts  --      1.4762                 1.4787                 1.4383
 IR Inten    --      2.7653                 6.7180                 6.9679

                     76                     77                     78
                      A                      A                      A
 Frequencies --   1529.8831              1530.3984              1536.4290
 Red. masses --      1.0532                 1.0460                 1.1630
 Frc consts  --      1.4524                 1.4434                 1.6176
 IR Inten    --      5.5946                 5.3188                32.5614

                     79                     80                     81
                      A                      A                      A
 Frequencies --   1538.4936              1541.2616              1554.9011
 Red. masses --      1.1027                 1.0837                 1.0908
 Frc consts  --      1.5378                 1.5168                 1.5538
 IR Inten    --      5.9677                14.3335                 4.4566

                     82                     83                     84
                      A                      A                      A
 Frequencies --   1738.4417              2939.7538              2978.0282
 Red. masses --      5.0495                 1.0749                 1.0823
 Frc consts  --      8.9912                 5.4730                 5.6555
 IR Inten    --     10.8195                66.6029                39.0976

                     85                     86                     87
                      A                      A                      A
 Frequencies --   3017.9400              3043.4070              3045.5782
 Red. masses --      1.0353                 1.0390                 1.0411
 Frc consts  --      5.5556                 5.6700                 5.6897
 IR Inten    --     55.4437                24.9683                15.8825

                     88                     89                     90
                      A                      A                      A
 Frequencies --   3057.0975              3065.2899              3074.2111
 Red. masses --      1.0607                 1.0970                 1.0588
 Frc consts  --      5.8404                 6.0729                 5.8959
 IR Inten    --     17.1723                12.5436                46.2413

                     91                     92                     93
                      A                      A                      A
 Frequencies --   3076.9383              3078.2376              3083.9180
 Red. masses --      1.0849                 1.0672                 1.0648
 Frc consts  --      6.0519                 5.9578                 5.9666
 IR Inten    --     14.1918                82.5641                13.0410

                     94                     95                     96
                      A                      A                      A
 Frequencies --   3099.3888              3105.8508              3109.5672
 Red. masses --      1.0955                 1.0994                 1.0983
 Frc consts  --      6.2002                 6.2486                 6.2569
 IR Inten    --     24.9315                20.5174                53.1606

                     97                     98                     99
                      A                      A                      A
 Frequencies --   3114.2086              3128.4368              3129.2895
 Red. masses --      1.1067                 1.1031                 1.1065
 Frc consts  --      6.3239                 6.3611                 6.3841
 IR Inten    --      5.8541                28.6116                21.7678

                    100                    101                    102
                      A                      A                      A
 Frequencies --   3134.3678              3135.0484              3141.5138
 Red. masses --      1.1033                 1.0989                 1.1047
 Frc consts  --      6.3861                 6.3634                 6.4237
 IR Inten    --     24.8480                38.2611                37.7027

                    103                    104                    105
                      A                      A                      A
 Frequencies --   3154.5748              3230.9788              3508.5564
 Red. masses --      1.0599                 1.1158                 1.0728
 Frc consts  --      6.2146                 6.8628                 7.7808
 IR Inten    --     12.8939                21.3032                 1.2189

 - Thermochemistry -
 -------------------
 Temperature   298.150 Kelvin.  Pressure   1.00000 Atm.
 Atom     1 has atomic number  6 and mass  12.00000

 Molecular mass:   197.17796 amu.
 Principal axes and moments of inertia in atomic units:
                           1         2         3
     Eigenvalues --  2036.140524157.902944831.77595
           X            0.99999  -0.00253  -0.00272
           Y            0.00250   0.99994  -0.01084
           Z            0.00275   0.01084   0.99994
 This molecule is an asymmetric top.
 Rotational symmetry number  1.
 Warning -- assumption of classical behavior for rotation
           may cause significant error
 Rotational temperatures (Kelvin)      0.04254     0.02083     0.01793
 Rotational constants (GHZ):           0.88635     0.43405     0.37352
 Zero-point vibrational energy     885738.0 (Joules/Mol)
                                  211.69646 (Kcal/Mol)
 Warning -- explicit consideration of  24 degrees of freedom as
           vibrations may cause significant error
 Vibrational temperatures:     38.20    78.80    91.69   116.26   125.60
          (Kelvin)            145.33   176.03   187.01   216.41   260.00
                              282.32   336.02   367.96   406.37   409.10
                              439.69   496.98   553.49   606.17   642.35
                              670.83   725.01   816.25   852.48   973.38
                             1045.47  1074.91  1102.00  1159.08  1164.36
                             1196.25  1226.36  1268.68  1333.42  1343.26
                             1362.97  1384.55  1403.02  1414.58  1473.38
                             1506.66  1512.37  1530.80  1559.64  1570.27
                             1618.42  1640.08  1670.37  1681.22  1712.81
                             1725.12  1746.05  1759.02  1777.45  1821.36
                             1822.22  1853.28  1868.89  1887.15  1902.75
                             1909.95  1931.91  1997.10  2017.55  2037.09
                             2067.51  2076.53  2122.93  2147.56  2154.88
                             2162.46  2165.48  2175.67  2179.66  2194.54
                             2201.16  2201.90  2210.58  2213.55  2217.53
                             2237.16  2501.23  4229.65  4284.72  4342.14
                             4378.78  4381.91  4398.48  4410.27  4423.10
                             4427.03  4428.90  4437.07  4459.33  4468.63
                             4473.97  4480.65  4501.12  4502.35  4509.66
                             4510.64  4519.94  4538.73  4648.66  5048.03

 Zero-point correction=                           0.337360 (Hartree/Particle)
 Thermal correction to Energy=                    0.354036
 Thermal correction to Enthalpy=                  0.354980
 Thermal correction to Gibbs Free Energy=         0.292609
 Sum of electronic and zero-point Energies=           -600.760953
 Sum of electronic and thermal Energies=              -600.744277
 Sum of electronic and thermal Enthalpies=            -600.743333
 Sum of electronic and thermal Free Energies=         -600.805704

                     E (Thermal)             CV                S
                      KCal/Mol        Cal/Mol-Kelvin    Cal/Mol-Kelvin
 Total                  222.161             61.643            131.271
 Electronic               0.000              0.000              0.000
 Translational            0.889              2.981             41.742
 Rotational               0.889              2.981             32.081
 Vibrational            220.383             55.681             57.449
 Vibration     1          0.593              1.984              6.072
 Vibration     2          0.596              1.976              4.637
 Vibration     3          0.597              1.972              4.338
 Vibration     4          0.600              1.962              3.871
 Vibration     5          0.601              1.958              3.720
 Vibration     6          0.604              1.948              3.435
 Vibration     7          0.610              1.930              3.063
 Vibration     8          0.612              1.923              2.946
 Vibration     9          0.618              1.902              2.667
 Vibration    10          0.630              1.866              2.321
 Vibration    11          0.636              1.845              2.168
 Vibration    12          0.654              1.790              1.852
 Vibration    13          0.666              1.753              1.691
 Vibration    14          0.681              1.706              1.519
 Vibration    15          0.683              1.703              1.507
 Vibration    16          0.696              1.663              1.386
 Vibration    17          0.724              1.585              1.187
 Vibration    18          0.754              1.503              1.021
 Vibration    19          0.784              1.424              0.888
 Vibration    20          0.806              1.369              0.807
 Vibration    21          0.824              1.325              0.748
 Vibration    22          0.859              1.241              0.648
 Vibration    23          0.923              1.102              0.509
 Vibration    24          0.950              1.048              0.463

 Optimization completed.
    -- Stationary point found.
 Normal termination of Gaussian 16 at Thu Dec 10 10:47:51 2020.

 ----------------------------------------------------------------------
 # B3LYP/6-311++G(d,p) empiricaldispersion=gd3bj scf=xqc pop=npa geom=c
 heck
 ----------------------------------------------------------------------

 ---------------------------------------
 CID_103559552_JID_4727_Energie_neutraal
 ---------------------------------------
 Structure from the checkpoint file:  "JID_4727.chk"
 Charge =  0 Multiplicity = 1

 SCF Done:  E(RB3LYP) =  -601.270340759     A.U. after   14 cycles
 Normal termination of Gaussian 16 at Thu Dec 10 10:54:22 2020.

 ----------------------------------------------------------------------
 # B3LYP/6-311++G(d,p) empiricaldispersion=gd3bj scf=xqc pop=npa geom=c
 heck
 ----------------------------------------------------------------------

 -------------------------------------
 CID_103559552_JID_4727_Energie_kation
 -------------------------------------
 Structure from the checkpoint file:  "JID_4727.chk"
 Charge =  1 Multiplicity = 2

 SCF Done:  E(UB3LYP) =  -600.971534551     A.U. after   26 cycles
 Normal termination of Gaussian 16 at Thu Dec 10 11:12:00 2020.
 Gaussian 16:  ES64L-G16RevA.03 25-Dec-2016

 ----------------------------------------------------------------------
 # B3LYP/6-311++G(d,p) empiricaldispersion=gd3bj scf=xqc pop=npa geom=c
 heck
 ----------------------------------------------------------------------

 ------------------------------------
 CID_103559552_JID_4727_Energie_anion
 ------------------------------------
 Structure from the checkpoint file:  "JID_4727.chk"
 Charge = -1 Multiplicity = 2

                         Standard orientation:
 ---------------------------------------------------------------------
 Center     Atomic      Atomic             Coordinates (Angstroms)
 Number     Number       Type             X           Y           Z
 ---------------------------------------------------------------------
      1          6           0       -2.162044    3.033360    0.544574
      2          6           0       -2.190547    1.687948   -0.172886
      3          7           0       -1.101690    0.833320    0.302127
      4          6           0       -0.998831   -0.433686   -0.434078
      5          6           0        0.262737   -1.205300    0.000236
      6          6           0        1.570227   -0.415033   -0.037872
      7          6           0        1.882361    0.504505    1.193159
      8          6           0        3.253921   -0.197239    1.370022
      9          6           0        2.837556   -1.256238    0.315172
     10          8           0        1.587141    0.232966   -1.308825
     11          6           0        2.723450    1.004127   -1.639131
     12          6           0       -2.239032   -1.282946   -0.203307
     13          6           0       -2.914697   -1.793457   -1.236160
     14          6           0       -2.652806   -1.521900    1.226355
     15          1           0       -2.230932    2.890561    1.628036
     16          1           0       -2.992975    3.669441    0.220914
     17          1           0       -1.229054    3.572432    0.334894
     18          1           0       -3.139883    1.178594    0.027601
     19          1           0       -2.150956    1.842713   -1.268298
     20          1           0       -0.231223    1.337674    0.147584
     21          1           0       -0.913607   -0.251736   -1.518275
     22          1           0        0.137460   -1.588757    1.018254
     23          1           0        0.363662   -2.073331   -0.662717
     24          1           0        1.908112    1.580718    0.994987
     25          1           0        1.182097    0.333910    2.014028
     26          1           0        3.473488   -0.577945    2.371364
     27          1           0        4.097121    0.421219    1.046848
     28          1           0        2.568327   -2.222381    0.753298
     29          1           0        3.530887   -1.442292   -0.510039
     30          1           0        2.883249    1.838635   -0.941965
     31          1           0        3.641804    0.402320   -1.677784
     32          1           0        2.536062    1.414864   -2.634504
     33          1           0       -3.789173   -2.423721   -1.093761
     34          1           0       -2.612658   -1.602299   -2.263000
     35          1           0       -1.903813   -2.114155    1.767553
     36          1           0       -2.741045   -0.572187    1.764413
     37          1           0       -3.606022   -2.056092    1.279775
 ---------------------------------------------------------------------

 SCF Done:  E(UB3LYP) =  -601.254802690     A.U. after   33 cycles
 SCF Done:  E(UB3LYP) =  -601.254802690     a.u. after    1 cycles

 The electronic state is 2-A.
 Alpha  occ. eigenvalues --  -19.02681 -14.19492 -10.12994 -10.10751 -10.10035
 Alpha  occ. eigenvalues --  -10.09162 -10.08804 -10.06912 -10.06878 -10.06734
 Alpha  occ. eigenvalues --  -10.06679 -10.06619 -10.06378 -10.06279  -0.93863
 Alpha  occ. eigenvalues --   -0.81319  -0.74045  -0.71139  -0.66359  -0.63229
 Alpha  occ. eigenvalues --   -0.59606  -0.59028  -0.56906  -0.54344  -0.51034
 Alpha  occ. eigenvalues --   -0.50012  -0.44394  -0.42915  -0.40681  -0.39143
 Alpha  occ. eigenvalues --   -0.38875  -0.37754  -0.35896  -0.35285  -0.34109
 Alpha  occ. eigenvalues --   -0.33579  -0.33181  -0.31700  -0.31471  -0.29633
 Alpha  occ. eigenvalues --   -0.28496  -0.28071  -0.27333  -0.27181  -0.26597
 Alpha  occ. eigenvalues --   -0.26451  -0.24719  -0.23951  -0.23887  -0.22487
 Alpha  occ. eigenvalues --   -0.22087  -0.19195  -0.16072  -0.15474  -0.13274
 Alpha  occ. eigenvalues --    0.04436
 Alpha virt. eigenvalues --    0.06221   0.06611   0.07334   0.08143   0.08241
 Alpha virt. eigenvalues --    0.08716   0.09100   0.09829   0.09999   0.10461
 Alpha virt. eigenvalues --    0.10900   0.11366   0.11730   0.11918   0.12673

  Beta  occ. eigenvalues --  -19.02674 -14.19485 -10.12995 -10.10703 -10.10032
  Beta  occ. eigenvalues --  -10.09153 -10.08803 -10.06892 -10.06870 -10.06709
  Beta  occ. eigenvalues --  -10.06660 -10.06612 -10.06361 -10.06252  -0.93850
  Beta  occ. eigenvalues --   -0.81308  -0.74026  -0.71128  -0.66339  -0.63196
  Beta  occ. eigenvalues --   -0.59575  -0.58976  -0.56857  -0.54296  -0.50983
  Beta  occ. eigenvalues --   -0.49964  -0.44338  -0.42887  -0.40640  -0.39120
  Beta  occ. eigenvalues --   -0.38841  -0.37735  -0.35873  -0.35263  -0.34078
  Beta  occ. eigenvalues --   -0.33556  -0.33147  -0.31678  -0.31447  -0.29600
  Beta  occ. eigenvalues --   -0.28471  -0.28043  -0.27311  -0.27152  -0.26568
  Beta  occ. eigenvalues --   -0.26412  -0.24691  -0.23930  -0.23863  -0.22455
  Beta  occ. eigenvalues --   -0.22056  -0.19165  -0.16060  -0.15457  -0.13250
  Beta virt. eigenvalues --    0.06328   0.07143   0.07179   0.07749   0.08365
  Beta virt. eigenvalues --    0.08671   0.09062   0.09421   0.10073   0.10378
  Beta virt. eigenvalues --    0.10921   0.11211   0.11629   0.12004   0.12085

 Mulliken charges and spin densities:
               1          2
     1  C    0.493222  -1.073155
     2  C   -0.397867   0.224570
     3  N    0.068478   0.046089
     4  C    0.335518  -0.258166
     5  C   -1.479943   0.009780
     6  C   -0.016220   0.727139
     7  C   -0.219854  -0.305144
     8  C    0.727507  -0.995638
     9  C   -0.444649  -0.172946
    10  O   -0.047503   0.009928
    11  C    1.277389  -1.530841
    12  C   -0.106089   0.785469
    13  C   -0.436756  -0.249619
    14  C    0.166627  -0.773219
    15  H   -0.001351   0.143324
    16  H   -0.171738   0.302849
    17  H   -0.331300   0.470860
    18  H    0.032021   0.126303
    19  H    0.003227   0.114157
    20  H    0.698162  -0.430748
    21  H    0.231402   0.004533
    22  H    0.361743  -0.195151
    23  H    0.072492   0.144739
    24  H   -0.110086   0.269327
    25  H    0.121607   0.042768
    26  H   -0.250452   0.415093
    27  H   -0.103360   0.241720
    28  H   -0.072996   0.194551
    29  H   -0.181649   0.328481
    30  H   -0.421312   0.590468
    31  H   -0.358705   0.502803
    32  H   -0.170856   0.318984
    33  H   -0.056266   0.174433
    34  H    0.051506   0.069496
    35  H   -0.222147   0.378789
    36  H    0.084844   0.079878
    37  H   -0.124646   0.268096
 Sum of Mulliken charges =  -1.00000   1.00000

 Dipole moment (field-independent basis, Debye):
    X=             -3.6031    Y=             -2.9478    Z=             -0.2640  Tot=              4.6628
 Quadrupole moment (field-independent basis, Debye-Ang):
   XX=           -164.0409   YY=           -142.2353   ZZ=           -127.9355
   XY=             -4.0200   XZ=              5.4304   YZ=              3.8585

 Summary of Natural Population Analysis:

                                       Natural Population
                Natural  -----------------------------------------------
    Atom  No    Charge         Core      Valence    Rydberg      Total
 -----------------------------------------------------------------------
      C    1   -0.28576      0.99967     2.28173    0.00436     3.28576
      C    2   -0.08647      0.99964     2.07671    0.01012     3.08647
      N    3   -0.34542      0.99972     2.83495    0.01075     3.84542
      C    4   -0.01881      0.99953     2.00569    0.01358     3.01881
      C    5   -0.19126      0.99954     2.18157    0.01015     3.19126
      C    6    0.14541      0.99950     1.83689    0.01820     2.85459
      C    7   -0.20908      0.99959     2.20103    0.00845     3.20908
      C    8   -0.19459      0.99965     2.18665    0.00829     3.19459
      C    9   -0.20080      0.99960     2.19271    0.00850     3.20080
      O   10   -0.30753      0.99986     3.29736    0.01031     4.30753
      C   11   -0.09917      0.99959     2.08958    0.01000     3.09917
      C   12    0.00492      0.99951     1.98249    0.01308     2.99508
      C   13   -0.20022      0.99947     2.19327    0.00748     3.20022
      C   14   -0.30606      0.99960     2.29966    0.00680     3.30606
      H   15    0.09923      0.00000     0.39946    0.00131     0.40077
      H   16    0.09749      0.00000     0.40156    0.00095     0.40251
      H   17    0.09725      0.00000     0.40117    0.00158     0.40275
      H   18    0.09060      0.00000     0.40785    0.00155     0.40940
      H   19    0.07796      0.00000     0.42066    0.00137     0.42204
      H   20    0.17636      0.00000     0.31821    0.00544     0.32364
      H   21    0.09026      0.00000     0.40729    0.00245     0.40974
      H   22    0.10041      0.00000     0.39800    0.00159     0.39959
      H   23    0.10351      0.00000     0.39532    0.00117     0.39649
      H   24    0.10290      0.00000     0.39566    0.00145     0.39710
      H   25    0.10653      0.00000     0.39192    0.00156     0.39347
      H   26    0.09607      0.00000     0.40279    0.00114     0.40393
      H   27    0.09903      0.00000     0.39912    0.00185     0.40097
      H   28    0.10046      0.00000     0.39832    0.00122     0.39954
      H   29    0.10294      0.00000     0.39596    0.00110     0.39706
      H   30    0.08203      0.00000     0.41569    0.00228     0.41797
      H   31    0.08053      0.00000     0.41753    0.00194     0.41947
      H   32    0.09169      0.00000     0.40714    0.00116     0.40831
      H   33    0.09085      0.00000     0.40818    0.00097     0.40915
      H   34    0.09367      0.00000     0.40525    0.00108     0.40633
      H   35    0.10427      0.00000     0.39461    0.00112     0.39573
      H   36    0.11161      0.00000     0.38710    0.00129     0.38839
      H   37    0.09918      0.00000     0.39978    0.00104     0.40082
 =======================================================================
   * Total *    0.00000     13.99447    40.82885    0.17668    55.00000

 Normal termination of Gaussian 16 at Thu Dec 10 11:31:57 2020.
