 Gaussian 16, Revision A.03,

 -----------------------------------------------------------
 # opt freq B3LYP/6-31G(d) empiricaldispersion=gd3bj scf=xqc
 -----------------------------------------------------------

 -------------------------------
 CID_80244901_JID_10814_neutraal
 -------------------------------
 Symbolic Z-matrix:
 Charge =  0 Multiplicity = 1

 SCF Done:  E(RB3LYP) =  -1182.41734719     A.U. after   14 cycles
 SCF Done:  E(RB3LYP) =  -1182.42215717     A.U. after   12 cycles
 SCF Done:  E(RB3LYP) =  -1182.42296596     A.U. after   12 cycles
 SCF Done:  E(RB3LYP) =  -1182.42325792     A.U. after   12 cycles
 SCF Done:  E(RB3LYP) =  -1182.42339925     A.U. after   11 cycles
 SCF Done:  E(RB3LYP) =  -1182.42354811     A.U. after   12 cycles
 SCF Done:  E(RB3LYP) =  -1182.42358340     A.U. after   11 cycles
 SCF Done:  E(RB3LYP) =  -1182.42360140     A.U. after   11 cycles
 SCF Done:  E(RB3LYP) =  -1182.42362997     A.U. after   10 cycles
 SCF Done:  E(RB3LYP) =  -1182.42365273     A.U. after   11 cycles
 SCF Done:  E(RB3LYP) =  -1182.42385698     A.U. after    7 cycles
 SCF Done:  E(RB3LYP) =  -1182.42385706     A.U. after    7 cycles
 SCF Done:  E(RB3LYP) =  -1182.42385712     A.U. after    7 cycles
 SCF Done:  E(RB3LYP) =  -1182.42385714     A.U. after    6 cycles
 Optimization completed.
    -- Stationary point found.
 Normal termination of Gaussian 16 at Sat Dec 12 16:49:54 2020.

 --------------------------------------------------------------------
 #N Geom=AllCheck Guess=TCheck SCRF=Check GenChk RB3LYP/6-31G(d) Freq
 --------------------------------------------------------------------

 Structure from the checkpoint file:  "JID_10814.chk"
 -------------------------------
 CID_80244901_JID_10814_neutraal
 -------------------------------
 Charge =  0 Multiplicity = 1

 SCF Done:  E(RB3LYP) =  -1182.42385714     A.U. after    1 cycles

  Exact polarizability: 269.800  40.374 180.559  11.127 -17.319 147.980
 Approx polarizability: 370.646  68.391 290.546  23.116 -41.169 272.616

                      1                      2                      3
                      A                      A                      A
 Frequencies --     15.7476                24.9965                32.9198
 Red. masses --      5.8095                 4.7474                 4.5537
 Frc consts  --      0.0008                 0.0017                 0.0029
 IR Inten    --      0.0583                 0.0981                 2.0529

                      4                      5                      6
                      A                      A                      A
 Frequencies --     53.1898                68.9247                88.4551
 Red. masses --      4.2311                 4.0347                 4.5615
 Frc consts  --      0.0071                 0.0113                 0.0210
 IR Inten    --      0.9078                 0.4750                 0.7873

                      7                      8                      9
                      A                      A                      A
 Frequencies --    100.7320               139.4996               148.1212
 Red. masses --      4.9288                 2.0347                 1.6269
 Frc consts  --      0.0295                 0.0233                 0.0210
 IR Inten    --      0.4693                 0.7428                 0.0885

                     10                     11                     12
                      A                      A                      A
 Frequencies --    188.6369               209.5402               227.2188
 Red. masses --      4.4166                 4.1785                 2.9319
 Frc consts  --      0.0926                 0.1081                 0.0892
 IR Inten    --      2.4592                 2.4671                 0.8307

                     13                     14                     15
                      A                      A                      A
 Frequencies --    278.6396               305.3840               325.9899
 Red. masses --      2.4923                 4.8768                 4.8676
 Frc consts  --      0.1140                 0.2680                 0.3048
 IR Inten    --      0.2895                 1.2456                 1.1028

                     16                     17                     18
                      A                      A                      A
 Frequencies --    348.1856               354.0986               388.3614
 Red. masses --      2.9823                 3.4947                 2.8931
 Frc consts  --      0.2130                 0.2582                 0.2571
 IR Inten    --      3.4225                 1.7459                 0.2195

                     19                     20                     21
                      A                      A                      A
 Frequencies --    419.3227               449.8202               479.3720
 Red. masses --      3.1186                 3.9709                 4.5650
 Frc consts  --      0.3231                 0.4734                 0.6181
 IR Inten    --      1.0223                 1.2896                 4.8887

                     22                     23                     24
                      A                      A                      A
 Frequencies --    485.2808               557.7375               559.9354
 Red. masses --      4.2408                 4.6050                 3.5290
 Frc consts  --      0.5884                 0.8440                 0.6519
 IR Inten    --      1.2847                 8.4550                 7.6072

                     25                     26                     27
                      A                      A                      A
 Frequencies --    611.9996               625.8034               648.4425
 Red. masses --      4.0341                 3.3050                 3.7029
 Frc consts  --      0.8902                 0.7626                 0.9173
 IR Inten    --     17.9739                 4.5647                 5.7325

                     28                     29                     30
                      A                      A                      A
 Frequencies --    654.6521               671.3906               687.9831
 Red. masses --      5.9708                 6.7229                 1.6335
 Frc consts  --      1.5077                 1.7855                 0.4555
 IR Inten    --      2.0420                 3.4035                 0.3592

                     31                     32                     33
                      A                      A                      A
 Frequencies --    717.8662               738.2097               751.0570
 Red. masses --      2.3262                 2.3843                 1.2408
 Frc consts  --      0.7063                 0.7655                 0.4124
 IR Inten    --      5.1977                40.4604                47.1881

                     34                     35                     36
                      A                      A                      A
 Frequencies --    764.2580               794.0125               809.2566
 Red. masses --      2.6766                 2.0682                 1.6228
 Frc consts  --      0.9211                 0.7683                 0.6262
 IR Inten    --     51.9359                10.8538                28.8425

                     37                     38                     39
                      A                      A                      A
 Frequencies --    827.3750               831.8448               844.5922
 Red. masses --      1.8435                 1.4432                 1.4671
 Frc consts  --      0.7435                 0.5884                 0.6166
 IR Inten    --     28.0609                20.0390                14.6430

                     40                     41                     42
                      A                      A                      A
 Frequencies --    858.1779               867.2606               871.8401
 Red. masses --      4.1853                 1.9062                 3.9204
 Frc consts  --      1.8160                 0.8447                 1.7557
 IR Inten    --      3.5178                34.3532                55.5954

                     43                     44                     45
                      A                      A                      A
 Frequencies --    885.1011               928.8016               940.4807
 Red. masses --      1.3082                 2.0240                 6.0912
 Frc consts  --      0.6038                 1.0287                 3.1743
 IR Inten    --      3.9847                 6.1993                 3.8651

                     46                     47                     48
                      A                      A                      A
 Frequencies --    955.2889               960.7673               974.5573
 Red. masses --      1.4391                 3.3561                 1.3155
 Frc consts  --      0.7737                 1.8252                 0.7361
 IR Inten    --      6.7640                38.5881                 1.1607

                     49                     50                     51
                      A                      A                      A
 Frequencies --   1014.4134              1035.1400              1037.7863
 Red. masses --      1.5477                 1.5755                 3.1880
 Frc consts  --      0.9384                 0.9946                 2.0229
 IR Inten    --      3.8055                 4.2931                 1.2894

                     52                     53                     54
                      A                      A                      A
 Frequencies --   1062.0714              1070.6486              1074.6935
 Red. masses --      2.0041                 1.5180                 1.4585
 Frc consts  --      1.3319                 1.0252                 0.9925
 IR Inten    --     11.0240                 6.1548                39.5980

                     55                     56                     57
                      A                      A                      A
 Frequencies --   1084.4023              1114.5833              1144.6458
 Red. masses --      2.0018                 4.3616                 2.1732
 Frc consts  --      1.3869                 3.1925                 1.6776
 IR Inten    --      5.8260                41.0595                 1.0252

                     58                     59                     60
                      A                      A                      A
 Frequencies --   1148.7852              1159.4064              1208.7523
 Red. masses --      1.9610                 1.8748                 1.3061
 Frc consts  --      1.5248                 1.4848                 1.1243
 IR Inten    --      3.6652                16.1738                 4.8032

                     61                     62                     63
                      A                      A                      A
 Frequencies --   1214.9486              1217.0067              1230.2717
 Red. masses --      1.1810                 1.4814                 2.5513
 Frc consts  --      1.0271                 1.2928                 2.2751
 IR Inten    --      0.2571                 0.4572                18.1541

                     64                     65                     66
                      A                      A                      A
 Frequencies --   1236.4442              1250.1091              1290.3788
 Red. masses --      1.8453                 1.3201                 1.9816
 Frc consts  --      1.6621                 1.2155                 1.9440
 IR Inten    --      2.7346                 3.9374                12.4913

                     67                     68                     69
                      A                      A                      A
 Frequencies --   1293.2166              1358.6711              1369.4591
 Red. masses --      1.7348                 1.4764                 3.8111
 Frc consts  --      1.7094                 1.6058                 4.2111
 IR Inten    --      2.6626                 7.8814                 1.8416

                     70                     71                     72
                      A                      A                      A
 Frequencies --   1375.9072              1384.4903              1409.1859
 Red. masses --      1.3561                 3.2563                 1.4504
 Frc consts  --      1.5126                 3.6775                 1.6970
 IR Inten    --     32.0473                16.8219                 7.3716

                     73                     74                     75
                      A                      A                      A
 Frequencies --   1432.8638              1445.9735              1450.3879
 Red. masses --      2.6774                 4.1633                 1.3286
 Frc consts  --      3.2387                 5.1287                 1.6467
 IR Inten    --      4.2022               100.1490                 1.3251

                     76                     77                     78
                      A                      A                      A
 Frequencies --   1459.5026              1486.8743              1499.4889
 Red. masses --      3.1354                 3.3969                 1.1363
 Frc consts  --      3.9350                 4.4247                 1.5054
 IR Inten    --      8.0984                10.1760                 8.9730

                     79                     80                     81
                      A                      A                      A
 Frequencies --   1506.7714              1512.4460              1517.9084
 Red. masses --      2.1950                 1.0549                 1.1604
 Frc consts  --      2.9362                 1.4218                 1.5752
 IR Inten    --      2.4691                 8.4702                26.0570

                     82                     83                     84
                      A                      A                      A
 Frequencies --   1527.5589              1553.9576              1565.7334
 Red. masses --      1.5506                 1.1070                 2.8776
 Frc consts  --      2.1318                 1.5750                 4.1564
 IR Inten    --     32.5729                 0.7752                48.2654

                     85                     86                     87
                      A                      A                      A
 Frequencies --   1580.8110              1621.6747              1642.4992
 Red. masses --      4.0979                 6.0843                 6.7367
 Frc consts  --      6.0335                 9.4274                10.7080
 IR Inten    --     98.2913                 0.9730                 2.2079

                     88                     89                     90
                      A                      A                      A
 Frequencies --   1673.3882              2995.6085              3050.7622
 Red. masses --      5.8355                 1.0677                 1.0461
 Frc consts  --      9.6277                 5.6450                 5.7367
 IR Inten    --     38.5874                31.1072                25.3236

                     91                     92                     93
                      A                      A                      A
 Frequencies --   3050.9278              3055.2315              3094.2964
 Red. masses --      1.0527                 1.0909                 1.1065
 Frc consts  --      5.7734                 5.9995                 6.2421
 IR Inten    --     34.4094                58.3120                18.6659

                     94                     95                     96
                      A                      A                      A
 Frequencies --   3102.4108              3133.7860              3174.8188
 Red. masses --      1.0990                 1.1015                 1.0895
 Frc consts  --      6.2326                 6.3734                 6.4704
 IR Inten    --     11.7960                14.3102                15.5995

                     97                     98                     99
                      A                      A                      A
 Frequencies --   3185.7164              3214.9864              3246.2834
 Red. masses --      1.0887                 1.0927                 1.0922
 Frc consts  --      6.5099                 6.6544                 6.7815
 IR Inten    --     14.8312                 8.9819                 0.2340

                    100                    101                    102
                      A                      A                      A
 Frequencies --   3259.4137              3262.2261              3265.8080
 Red. masses --      1.0934                 1.0934                 1.0943
 Frc consts  --      6.8437                 6.8559                 6.8768
 IR Inten    --      6.5056                 1.1566                 0.5533

                    103                    104                    105
                      A                      A                      A
 Frequencies --   3280.8510              3300.6438              3494.1198
 Red. masses --      1.0943                 1.1041                 1.0743
 Frc consts  --      6.9403                 7.0872                 7.7276
 IR Inten    --      3.1303                 0.9323                 0.6971

 - Thermochemistry -
 -------------------
 Temperature   298.150 Kelvin.  Pressure   1.00000 Atm.
 Atom     1 has atomic number  6 and mass  12.00000

 Molecular mass:   283.11432 amu.
 Principal axes and moments of inertia in atomic units:
                           1         2         3
     Eigenvalues --  2929.99519********************
           X            0.99995   0.00966   0.00187
           Y           -0.00964   0.99992  -0.00850
           Z           -0.00195   0.00849   0.99996
 This molecule is an asymmetric top.
 Rotational symmetry number  1.
 Warning -- assumption of classical behavior for rotation
           may cause significant error
 Rotational temperatures (Kelvin)      0.02956     0.00686     0.00600
 Rotational constants (GHZ):           0.61595     0.14294     0.12498
 Zero-point vibrational energy     794932.1 (Joules/Mol)
                                  189.99334 (Kcal/Mol)
 Warning -- explicit consideration of  25 degrees of freedom as
           vibrations may cause significant error
 Vibrational temperatures:     22.66    35.96    47.36    76.53    99.17
          (Kelvin)            127.27   144.93   200.71   213.11   271.41
                              301.48   326.92   400.90   439.38   469.03
                              500.96   509.47   558.77   603.31   647.19
                              689.71   698.21   802.46   805.62   880.53
                              900.39   932.96   941.90   965.98   989.85
                             1032.85  1062.12  1080.60  1099.60  1142.41
                             1164.34  1190.41  1196.84  1215.18  1234.73
                             1247.79  1254.38  1273.46  1336.34  1353.14
                             1374.45  1382.33  1402.17  1459.51  1489.34
                             1493.14  1528.08  1540.42  1546.24  1560.21
                             1603.64  1646.89  1652.85  1668.13  1739.12
                             1748.04  1751.00  1770.09  1778.97  1798.63
                             1856.57  1860.65  1954.82  1970.35  1979.62
                             1991.97  2027.50  2061.57  2080.43  2086.78
                             2099.90  2139.28  2157.43  2167.91  2176.07
                             2183.93  2197.82  2235.80  2252.74  2274.43
                             2333.23  2363.19  2407.63  4310.01  4389.37
                             4389.60  4395.80  4452.00  4463.68  4508.82
                             4567.86  4583.54  4625.65  4670.68  4689.57
                             4693.62  4698.77  4720.41  4748.89  5027.26

 Zero-point correction=                           0.302774 (Hartree/Particle)
 Thermal correction to Energy=                    0.320574
 Thermal correction to Enthalpy=                  0.321518
 Thermal correction to Gibbs Free Energy=         0.253804
 Sum of electronic and zero-point Energies=          -1182.121083
 Sum of electronic and thermal Energies=             -1182.103283
 Sum of electronic and thermal Enthalpies=           -1182.102339
 Sum of electronic and thermal Free Energies=        -1182.170053

                     E (Thermal)             CV                S
                      KCal/Mol        Cal/Mol-Kelvin    Cal/Mol-Kelvin
 Total                  201.163             68.656            142.515
 Electronic               0.000              0.000              0.000
 Translational            0.889              2.981             42.820
 Rotational               0.889              2.981             34.634
 Vibrational            199.386             62.695             65.061
 Vibration     1          0.593              1.986              7.109
 Vibration     2          0.593              1.985              6.191
 Vibration     3          0.594              1.983              5.645
 Vibration     4          0.596              1.976              4.695
 Vibration     5          0.598              1.969              4.184
 Vibration     6          0.601              1.957              3.694
 Vibration     7          0.604              1.949              3.440
 Vibration     8          0.615              1.914              2.811
 Vibration     9          0.617              1.905              2.696
 Vibration    10          0.633              1.855              2.241
 Vibration    11          0.642              1.826              2.048
 Vibration    12          0.651              1.800              1.901
 Vibration    13          0.679              1.713              1.542
 Vibration    14          0.696              1.663              1.387
 Vibration    15          0.710              1.624              1.280
 Vibration    16          0.726              1.579              1.174
 Vibration    17          0.730              1.567              1.148
 Vibration    18          0.757              1.495              1.006
 Vibration    19          0.782              1.428              0.894
 Vibration    20          0.809              1.361              0.796
 Vibration    21          0.836              1.296              0.712
 Vibration    22          0.841              1.283              0.696
 Vibration    23          0.913              1.123              0.528
 Vibration    24          0.916              1.118              0.524
 Vibration    25          0.971              1.006              0.429

 Optimization completed.
    -- Stationary point found.
 Normal termination of Gaussian 16 at Sat Dec 12 17:08:20 2020.

 ----------------------------------------------------------------------
 # B3LYP/6-311++G(d,p) empiricaldispersion=gd3bj scf=xqc pop=npa geom=c
 heck
 ----------------------------------------------------------------------

 ---------------------------------------
 CID_80244901_JID_10814_Energie_neutraal
 ---------------------------------------
 Structure from the checkpoint file:  "JID_10814.chk"
 Charge =  0 Multiplicity = 1

 SCF Done:  E(RB3LYP) =  -1182.65508369     A.U. after   17 cycles
 Normal termination of Gaussian 16 at Sat Dec 12 17:16:17 2020.

 ----------------------------------------------------------------------
 # B3LYP/6-311++G(d,p) empiricaldispersion=gd3bj scf=xqc pop=npa geom=c
 heck
 ----------------------------------------------------------------------

 -------------------------------------
 CID_80244901_JID_10814_Energie_kation
 -------------------------------------
 Structure from the checkpoint file:  "JID_10814.chk"
 Charge =  1 Multiplicity = 2

 SCF Done:  E(UB3LYP) =  -1182.37502822     A.U. after   33 cycles
 SCF Done:  E(UB3LYP) =  -1182.37502822     a.u. after    1 cycles
 Normal termination of Gaussian 16 at Sat Dec 12 17:37:12 2020.
 Gaussian 16:  ES64L-G16RevA.03 25-Dec-2016

 ----------------------------------------------------------------------
 # B3LYP/6-311++G(d,p) empiricaldispersion=gd3bj scf=xqc pop=npa geom=c
 heck
 ----------------------------------------------------------------------

 ------------------------------------
 CID_80244901_JID_10814_Energie_anion
 ------------------------------------
 Structure from the checkpoint file:  "JID_10814.chk"
 Charge = -1 Multiplicity = 2

                         Standard orientation:
 ---------------------------------------------------------------------
 Center     Atomic      Atomic             Coordinates (Angstroms)
 Number     Number       Type             X           Y           Z
 ---------------------------------------------------------------------
      1          6           0        1.097642   -1.462235    0.003226
      2          6           0        2.582754   -1.229637   -0.062291
      3          6           0        3.524118   -2.185041    0.208288
      4         16           0        5.146488   -1.590143    0.025862
      5          6           0        4.553945   -0.023187   -0.421076
      6          6           0        3.187019    0.029929   -0.431126
      7          6           0        2.389290    1.267445   -0.731541
      8          7           0        2.110585    2.025772    0.500455
      9          6           0        0.907940    2.867352    0.424098
     10          6           0       -0.384877    2.087539    0.286436
     11          6           0       -0.951343    1.464869    1.408030
     12          6           0       -2.070164    0.647648    1.300584
     13          6           0       -2.643789    0.428422    0.042991
     14          6           0       -2.097557    1.037325   -1.088895
     15          6           0       -0.985348    1.867848   -0.957120
     16          7           0       -3.780377   -0.408277   -0.066148
     17          6           0       -4.714610   -0.436773   -1.064503
     18          6           0       -5.631197   -1.408520   -0.727042
     19          6           0       -5.167820   -1.918617    0.508722
     20          7           0       -4.053112   -1.315893    0.909184
     21          1           0        0.610052   -0.800001    0.727565
     22          1           0        0.616824   -1.269935   -0.963580
     23          1           0        0.874153   -2.493987    0.288859
     24          1           0        3.354783   -3.213790    0.496954
     25          1           0        5.244422    0.778455   -0.646157
     26          1           0        2.940976    1.922074   -1.418031
     27          1           0        1.465202    0.967755   -1.251165
     28          1           0        2.008341    1.369526    1.272674
     29          1           0        0.879588    3.482132    1.331368
     30          1           0        1.031422    3.550852   -0.424381
     31          1           0       -0.507774    1.626575    2.388341
     32          1           0       -2.509996    0.170464    2.167380
     33          1           0       -2.518704    0.851068   -2.071049
     34          1           0       -0.571164    2.342290   -1.842958
     35          1           0       -4.670067    0.241609   -1.902134
     36          1           0       -6.509139   -1.699555   -1.284600
     37          1           0       -5.598419   -2.700666    1.120009
 ---------------------------------------------------------------------

 SCF Done:  E(UB3LYP) =  -1182.65037407     A.U. after   33 cycles
 SCF Done:  E(UB3LYP) =  -1182.65037407     a.u. after    1 cycles

 The electronic state is 2-A.
 Alpha  occ. eigenvalues --  -88.77897 -14.26976 -14.19924 -14.19085 -10.09737
 Alpha  occ. eigenvalues --  -10.09673 -10.09296 -10.08760 -10.08313 -10.08137
 Alpha  occ. eigenvalues --  -10.07854 -10.07755 -10.06944 -10.06748 -10.05380
 Alpha  occ. eigenvalues --  -10.04910 -10.04866 -10.04857 -10.04800 -10.04069
 Alpha  occ. eigenvalues --   -7.86527  -5.82809  -5.82455  -5.82134  -0.92762
 Alpha  occ. eigenvalues --   -0.80477  -0.78121  -0.74994  -0.70525  -0.67253
 Alpha  occ. eigenvalues --   -0.66718  -0.65422  -0.62597  -0.61963  -0.57840
 Alpha  occ. eigenvalues --   -0.56880  -0.53368  -0.50374  -0.49207  -0.47652
 Alpha  occ. eigenvalues --   -0.46643  -0.44391  -0.43069  -0.42640  -0.39912
 Alpha  occ. eigenvalues --   -0.36877  -0.35940  -0.35508  -0.34436  -0.33773
 Alpha  occ. eigenvalues --   -0.32891  -0.32557  -0.31662  -0.31503  -0.30767
 Alpha  occ. eigenvalues --   -0.30352  -0.30244  -0.29634  -0.28194  -0.27004
 Alpha  occ. eigenvalues --   -0.26817  -0.26345  -0.25483  -0.24643  -0.24248
 Alpha  occ. eigenvalues --   -0.24059  -0.22305  -0.17384  -0.17233  -0.15117
 Alpha  occ. eigenvalues --   -0.14295  -0.14065  -0.13664  -0.12172  -0.10333
 Alpha  occ. eigenvalues --    0.04859
 Alpha virt. eigenvalues --    0.06859   0.07330   0.07583   0.07846   0.08291
 Alpha virt. eigenvalues --    0.08738   0.09325   0.09833   0.10094   0.10356
 Alpha virt. eigenvalues --    0.10935   0.11283   0.11583   0.11913   0.12478

  Beta  occ. eigenvalues --  -88.77889 -14.27007 -14.19709 -14.19038 -10.09708
  Beta  occ. eigenvalues --  -10.09597 -10.09291 -10.08761 -10.08324 -10.08133
  Beta  occ. eigenvalues --  -10.07665 -10.07456 -10.06908 -10.06747 -10.05423
  Beta  occ. eigenvalues --  -10.04904 -10.04853 -10.04770 -10.04765 -10.03806
  Beta  occ. eigenvalues --   -7.86519  -5.82805  -5.82452  -5.82107  -0.92565
  Beta  occ. eigenvalues --   -0.80385  -0.78049  -0.74644  -0.70261  -0.67196
  Beta  occ. eigenvalues --   -0.66425  -0.65342  -0.62397  -0.61707  -0.57759
  Beta  occ. eigenvalues --   -0.56796  -0.53178  -0.50305  -0.48962  -0.47564
  Beta  occ. eigenvalues --   -0.46534  -0.44120  -0.43031  -0.42462  -0.39865
  Beta  occ. eigenvalues --   -0.36754  -0.35835  -0.35401  -0.34258  -0.33524
  Beta  occ. eigenvalues --   -0.32501  -0.32476  -0.31612  -0.31450  -0.30654
  Beta  occ. eigenvalues --   -0.30292  -0.30138  -0.29583  -0.28096  -0.26903
  Beta  occ. eigenvalues --   -0.26750  -0.26204  -0.25422  -0.24528  -0.24146
  Beta  occ. eigenvalues --   -0.23472  -0.22200  -0.17100  -0.16436  -0.14978
  Beta  occ. eigenvalues --   -0.13931  -0.13495  -0.12787  -0.11965  -0.09416
  Beta virt. eigenvalues --    0.07090   0.07546   0.07683   0.07755   0.08299
  Beta virt. eigenvalues --    0.08631   0.09213   0.09442   0.09982   0.10208
  Beta virt. eigenvalues --    0.10343   0.10908   0.11332   0.11619   0.11809

 Mulliken charges and spin densities:
               1          2
     1  C   -0.926791   0.007525
     2  C   -0.321833   0.067739
     3  C    0.206543   0.027516
     4  S   -0.499358  -0.025887
     5  C    0.817567  -0.331250
     6  C    0.157511   0.152036
     7  C   -0.529805  -0.194818
     8  N    0.128448  -0.061699
     9  C   -0.500896  -0.502605
    10  C    0.637944   0.507614
    11  C   -0.394997   0.104556
    12  C   -0.227566   0.082987
    13  C   -0.895234  -0.093435
    14  C    0.261712   0.003678
    15  C   -0.385808  -0.021976
    16  N    0.477119  -0.023650
    17  C    0.005618   0.110340
    18  C   -0.192274   0.025126
    19  C   -0.263423   0.015824
    20  N   -0.182231   0.108622
    21  H    0.201703   0.000782
    22  H    0.163994  -0.001504
    23  H    0.140605   0.008057
    24  H    0.248613  -0.000595
    25  H   -0.002473   0.262148
    26  H   -0.053639   0.216860
    27  H    0.081196  -0.039587
    28  H    0.181968   0.002307
    29  H   -0.050095   0.216952
    30  H    0.006667   0.147038
    31  H    0.097640   0.043791
    32  H    0.180729   0.022620
    33  H    0.133975  -0.025264
    34  H    0.024090   0.125781
    35  H    0.044920   0.063784
    36  H    0.131310   0.003851
    37  H    0.096548  -0.005266
 Sum of Mulliken charges =  -1.00000   1.00000

 Dipole moment (field-independent basis, Debye):
    X=              2.7066    Y=             -2.4381    Z=             -1.1024  Tot=              3.8059
 Quadrupole moment (field-independent basis, Debye-Ang):
   XX=           -209.0273   YY=           -156.1944   ZZ=           -140.5542
   XY=             -6.7387   XZ=              4.9691   YZ=             -2.5302

 Summary of Natural Population Analysis:

                                       Natural Population
                Natural  -----------------------------------------------
    Atom  No    Charge         Core      Valence    Rydberg      Total
 -----------------------------------------------------------------------
      C    1   -0.29574      0.99962     2.29140    0.00471     3.29574
      C    2   -0.03660      0.99945     2.02609    0.01107     3.03660
      C    3   -0.19473      0.99946     2.18587    0.00940     3.19473
      S    4    0.18788      4.99947     2.79065    0.02200     7.81212
      C    5   -0.17433      0.99946     2.16178    0.01309     3.17433
      C    6   -0.04427      0.99944     2.03467    0.01016     3.04427
      C    7   -0.09895      0.99957     2.08752    0.01185     3.09895
      N    8   -0.32934      0.99976     2.81749    0.01210     3.82934
      C    9   -0.09501      0.99959     2.08232    0.01309     3.09501
      C   10    0.00058      0.99949     1.99061    0.00932     2.99942
      C   11   -0.09612      0.99952     2.08688    0.00971     3.09612
      C   12   -0.10842      0.99954     2.09820    0.01068     3.10842
      C   13    0.11962      0.99946     1.86881    0.01211     2.88038
      C   14   -0.09536      0.99954     2.08676    0.00906     3.09536
      C   15   -0.11098      0.99952     2.10149    0.00997     3.11098
      N   16   -0.10626      0.99962     2.59439    0.01225     3.60626
      C   17    0.02204      0.99958     1.96896    0.00941     2.97796
      C   18   -0.17430      0.99957     2.16615    0.00858     3.17430
      C   19   -0.01610      0.99966     2.00167    0.01478     3.01610
      N   20   -0.12658      0.99973     2.61661    0.01024     3.62658
      H   21    0.11577      0.00000     0.38318    0.00104     0.38423
      H   22    0.10876      0.00000     0.39035    0.00089     0.39124
      H   23    0.10085      0.00000     0.39838    0.00077     0.39915
      H   24    0.10554      0.00000     0.39369    0.00077     0.39446
      H   25    0.10912      0.00000     0.38965    0.00123     0.39088
      H   26    0.09301      0.00000     0.40569    0.00130     0.40699
      H   27    0.09529      0.00000     0.40303    0.00167     0.40471
      H   28    0.17086      0.00000     0.32652    0.00262     0.32914
      H   29    0.09691      0.00000     0.40207    0.00102     0.40309
      H   30    0.09190      0.00000     0.40711    0.00099     0.40810
      H   31    0.09326      0.00000     0.40574    0.00100     0.40674
      H   32    0.11081      0.00000     0.38809    0.00109     0.38919
      H   33    0.09649      0.00000     0.40206    0.00145     0.40351
      H   34    0.09494      0.00000     0.40414    0.00092     0.40506
      H   35    0.09933      0.00000     0.39950    0.00117     0.40067
      H   36    0.10039      0.00000     0.39879    0.00082     0.39961
      H   37    0.08974      0.00000     0.40940    0.00086     0.41026
 =======================================================================
   * Total *    0.00000     23.99107    50.76572    0.24321    75.00000

 Normal termination of Gaussian 16 at Sat Dec 12 17:58:43 2020.
