 Gaussian 16, Revision A.03,

 -----------------------------------------------------------
 # opt freq B3LYP/6-31G(d) empiricaldispersion=gd3bj scf=xqc
 -----------------------------------------------------------

 ------------------------------
 CID_143431935_JID_577_neutraal
 ------------------------------
 Symbolic Z-matrix:
 Charge =  0 Multiplicity = 1

 SCF Done:  E(RB3LYP) =  -406.721255762     A.U. after   14 cycles
 SCF Done:  E(RB3LYP) =  -406.723807846     A.U. after   12 cycles
 SCF Done:  E(RB3LYP) =  -406.724223386     A.U. after   12 cycles
 SCF Done:  E(RB3LYP) =  -406.724354530     A.U. after   12 cycles
 SCF Done:  E(RB3LYP) =  -406.725260147     A.U. after   12 cycles
 SCF Done:  E(RB3LYP) =  -406.725535802     A.U. after   11 cycles
 SCF Done:  E(RB3LYP) =  -406.725651123     A.U. after   10 cycles
 SCF Done:  E(RB3LYP) =  -406.725671036     A.U. after   10 cycles
 SCF Done:  E(RB3LYP) =  -406.725672144     A.U. after    8 cycles
 SCF Done:  E(RB3LYP) =  -406.725672447     A.U. after    8 cycles
 SCF Done:  E(RB3LYP) =  -406.725672655     A.U. after    8 cycles
 SCF Done:  E(RB3LYP) =  -406.725672728     A.U. after    7 cycles
 SCF Done:  E(RB3LYP) =  -406.725672756     A.U. after    7 cycles
 Optimization completed.
    -- Stationary point found.

 1\1\GINC-NODE360\FOpt\RB3LYP\6-31G(d)\C9H15N1\VSC10255\08-Dec-2020\0\\
 # opt freq B3LYP/6-31G(d) empiricaldispersion=gd3bj scf=xqc\\CID_14343
 1935_JID_577_neutraal\\0,1\C,1.0335428081,-0.0546092895,0.0166106664\C
 ,0.3317983486,-0.3579578706,1.3516796633\C,0.9423490904,0.4408835538,2
 .5199799372\C,-1.1901947409,-0.2315026605,1.2843240365\C,-1.9128641731
 ,-1.3292460564,1.6318620255\C,-3.3590315455,-1.5438302793,1.7666538271
 \C,-3.8424494993,-2.805423688,1.7841786224\N,-4.2051568162,-0.42214081
 16,1.8526507204\C,-1.8285248892,1.0060361054,0.8167887634\C,-1.2755317

 Normal termination of Gaussian 16 at Tue Dec  8 12:23:48 2020.

 --------------------------------------------------------------------
 #N Geom=AllCheck Guess=TCheck SCRF=Check GenChk RB3LYP/6-31G(d) Freq
 --------------------------------------------------------------------

 Structure from the checkpoint file:  "JID_577.chk"
 ------------------------------
 CID_143431935_JID_577_neutraal
 ------------------------------
 Charge =  0 Multiplicity = 1

 SCF Done:  E(RB3LYP) =  -406.725672756     A.U. after    1 cycles

  Exact polarizability: 159.751  28.711 115.188   4.626   3.416  62.883
 Approx polarizability: 240.685  73.306 187.645   9.802   7.084  87.266

                      1                      2                      3
                      A                      A                      A
 Frequencies --     46.7731                74.5638               131.7884
 Red. masses --      2.8521                 3.2938                 2.2362
 Frc consts  --      0.0037                 0.0108                 0.0229
 IR Inten    --      0.7701                 1.0358                 1.4093

                      4                      5                      6
                      A                      A                      A
 Frequencies --    141.1002               193.7670               215.5492
 Red. masses --      2.1502                 1.4071                 1.2130
 Frc consts  --      0.0252                 0.0311                 0.0332
 IR Inten    --      0.8609                 0.2696                 1.3964

                      7                      8                      9
                      A                      A                      A
 Frequencies --    234.2647               248.0033               267.2501
 Red. masses --      2.2096                 2.4547                 2.7531
 Frc consts  --      0.0714                 0.0890                 0.1159
 IR Inten    --      0.0825                 5.1505                 1.0587

                     10                     11                     12
                      A                      A                      A
 Frequencies --    285.3712               352.9443               394.3399
 Red. masses --      2.8778                 2.6707                 2.6142
 Frc consts  --      0.1381                 0.1960                 0.2395
 IR Inten    --      2.7989                 2.6903                 2.3413

                     13                     14                     15
                      A                      A                      A
 Frequencies --    399.4268               427.3536               500.7982
 Red. masses --      1.4029                 2.0420                 1.6399
 Frc consts  --      0.1319                 0.2197                 0.2423
 IR Inten    --     17.4319                21.5953                 9.0093

                     16                     17                     18
                      A                      A                      A
 Frequencies --    545.3406               596.4666               670.0781
 Red. masses --      2.5116                 2.5510                 1.5838
 Frc consts  --      0.4401                 0.5347                 0.4190
 IR Inten    --      7.2796                28.5190                50.8187

                     19                     20                     21
                      A                      A                      A
 Frequencies --    679.5272               754.0024               782.7675
 Red. masses --      1.3352                 2.5887                 2.1182
 Frc consts  --      0.3633                 0.8671                 0.7647
 IR Inten    --     23.4979                10.8169                30.9332

                     22                     23                     24
                      A                      A                      A
 Frequencies --    795.8045               810.8204               864.2401
 Red. masses --      1.5261                 2.1864                 2.8058
 Frc consts  --      0.5694                 0.8469                 1.2347
 IR Inten    --     19.9691               104.2324                 6.6838

                     25                     26                     27
                      A                      A                      A
 Frequencies --    912.2123               926.6018               944.7854
 Red. masses --      1.4458                 1.3440                 1.2238
 Frc consts  --      0.7088                 0.6799                 0.6436
 IR Inten    --     14.0644                36.9583                 0.1322

                     28                     29                     30
                      A                      A                      A
 Frequencies --    957.6484               977.0196              1009.9328
 Red. masses --      2.5494                 1.4534                 1.5581
 Frc consts  --      1.3775                 0.8174                 0.9363
 IR Inten    --      9.0787                 0.1139                 4.0470

                     31                     32                     33
                      A                      A                      A
 Frequencies --   1016.4890              1081.7676              1136.2226
 Red. masses --      1.4765                 1.1151                 2.3338
 Frc consts  --      0.8988                 0.7689                 1.7752
 IR Inten    --      8.3014                14.6302                 1.5540

                     34                     35                     36
                      A                      A                      A
 Frequencies --   1144.3986              1162.2688              1203.3486
 Red. masses --      1.5778                 1.4613                 1.8620
 Frc consts  --      1.2175                 1.1630                 1.5886
 IR Inten    --     18.6148                 1.3954                 2.0986

                     37                     38                     39
                      A                      A                      A
 Frequencies --   1260.0278              1361.8927              1367.3595
 Red. masses --      1.9579                 1.5092                 1.3034
 Frc consts  --      1.8314                 1.6492                 1.4358
 IR Inten    --      2.2488                 4.5714                 3.3695

                     40                     41                     42
                      A                      A                      A
 Frequencies --   1376.5374              1409.1723              1421.0849
 Red. masses --      1.4629                 2.9462                 1.2378
 Frc consts  --      1.6332                 3.4470                 1.4728
 IR Inten    --      0.2486                26.9614                 2.4615

                     43                     44                     45
                      A                      A                      A
 Frequencies --   1426.7443              1448.4347              1464.5828
 Red. masses --      1.2238                 1.2573                 1.2567
 Frc consts  --      1.4678                 1.5541                 1.5882
 IR Inten    --      4.0002                 5.9709                 1.4802

                     46                     47                     48
                      A                      A                      A
 Frequencies --   1497.1316              1520.5272              1522.5429
 Red. masses --      1.2587                 1.0467                 1.0494
 Frc consts  --      1.6622                 1.4258                 1.4332
 IR Inten    --      1.9191                 0.6011                 0.6946

                     49                     50                     51
                      A                      A                      A
 Frequencies --   1532.1782              1542.2263              1640.5372
 Red. masses --      1.0556                 1.0583                 4.8400
 Frc consts  --      1.4601                 1.4831                 7.6748
 IR Inten    --      9.2619                 5.8697                 9.7273

                     52                     53                     54
                      A                      A                      A
 Frequencies --   1673.5848              1703.6546              1709.2681
 Red. masses --      1.5854                 3.9932                 2.1281
 Frc consts  --      2.6162                 6.8286                 3.6632
 IR Inten    --     30.7147                27.4390                58.6028

                     55                     56                     57
                      A                      A                      A
 Frequencies --   3034.5835              3052.0124              3057.3397
 Red. masses --      1.0836                 1.0378                 1.0390
 Frc consts  --      5.8790                 5.6956                 5.7221
 IR Inten    --     13.4314                31.1889                34.7673

                     58                     59                     60
                      A                      A                      A
 Frequencies --   3114.7581              3117.4566              3139.1406
 Red. masses --      1.1015                 1.1017                 1.0996
 Frc consts  --      6.2965                 6.3083                 6.3839
 IR Inten    --     20.6481                47.1819                16.4573

                     61                     62                     63
                      A                      A                      A
 Frequencies --   3147.3561              3169.5857              3175.5291
 Red. masses --      1.0984                 1.0829                 1.0651
 Frc consts  --      6.4109                 6.4100                 6.3280
 IR Inten    --     25.9812                14.4741                 5.7125

                     64                     65                     66
                      A                      A                      A
 Frequencies --   3179.4783              3197.8464              3262.5451
 Red. masses --      1.0619                 1.0901                 1.1146
 Frc consts  --      6.3249                 6.5678                 6.9903
 IR Inten    --     10.2912                 7.1691                11.8894

                     67                     68                     69
                      A                      A                      A
 Frequencies --   3264.3464              3517.3145              3615.1518
 Red. masses --      1.1115                 1.0481                 1.0970
 Frc consts  --      6.9784                 7.6396                 8.4471
 IR Inten    --     17.2001                 2.8828                 2.2695

 - Thermochemistry -
 -------------------
 Temperature   298.150 Kelvin.  Pressure   1.00000 Atm.
 Atom     1 has atomic number  6 and mass  12.00000

 Molecular mass:   137.12045 amu.
 Principal axes and moments of inertia in atomic units:
                           1         2         3
     Eigenvalues --   871.795882303.399552736.66200
           X            0.99999  -0.00427   0.00042
           Y            0.00427   0.99995   0.00868
           Z           -0.00046  -0.00868   0.99996
 This molecule is an asymmetric top.
 Rotational symmetry number  1.
 Warning -- assumption of classical behavior for rotation
           may cause significant error
 Rotational temperatures (Kelvin)      0.09935     0.03760     0.03165
 Rotational constants (GHZ):           2.07014     0.78351     0.65947
 Zero-point vibrational energy     585015.6 (Joules/Mol)
                                  139.82208 (Kcal/Mol)
 Warning -- explicit consideration of  17 degrees of freedom as
           vibrations may cause significant error
 Vibrational temperatures:     67.30   107.28   189.61   203.01   278.79
          (Kelvin)            310.13   337.05   356.82   384.51   410.59
                              507.81   567.37   574.69   614.87   720.54
                              784.62   858.18   964.09   977.69  1084.84
                             1126.23  1144.99  1166.59  1243.45  1312.47
                             1333.17  1359.34  1377.84  1405.71  1453.07
                             1462.50  1556.42  1634.77  1646.53  1672.25
                             1731.35  1812.90  1959.46  1967.33  1980.53
                             2027.48  2044.62  2052.77  2083.97  2107.21
                             2154.04  2187.70  2190.60  2204.46  2218.92
                             2360.37  2407.92  2451.18  2459.26  4366.09
                             4391.17  4398.83  4481.44  4485.32  4516.52
                             4528.34  4560.33  4568.88  4574.56  4600.99
                             4694.07  4696.67  5060.63  5201.40

 Zero-point correction=                           0.222821 (Hartree/Particle)
 Thermal correction to Energy=                    0.234612
 Thermal correction to Enthalpy=                  0.235557
 Thermal correction to Gibbs Free Energy=         0.185691
 Sum of electronic and zero-point Energies=           -406.502852
 Sum of electronic and thermal Energies=              -406.491060
 Sum of electronic and thermal Enthalpies=            -406.490116
 Sum of electronic and thermal Free Energies=         -406.539982

                     E (Thermal)             CV                S
                      KCal/Mol        Cal/Mol-Kelvin    Cal/Mol-Kelvin
 Total                  147.222             44.440            104.952
 Electronic               0.000              0.000              0.000
 Translational            0.889              2.981             40.659
 Rotational               0.889              2.981             30.087
 Vibrational            145.444             38.479             34.206
 Vibration     1          0.595              1.979              4.949
 Vibration     2          0.599              1.966              4.029
 Vibration     3          0.612              1.922              2.920
 Vibration     4          0.615              1.912              2.789
 Vibration     5          0.635              1.849              2.191
 Vibration     6          0.645              1.817              1.996
 Vibration     7          0.654              1.788              1.846
 Vibration     8          0.662              1.766              1.745
 Vibration     9          0.672              1.733              1.614
 Vibration    10          0.683              1.701              1.501
 Vibration    11          0.729              1.569              1.153
 Vibration    12          0.761              1.482              0.984
 Vibration    13          0.765              1.471              0.965
 Vibration    14          0.789              1.411              0.867
 Vibration    15          0.856              1.248              0.656
 Vibration    16          0.901              1.150              0.554
 Vibration    17          0.954              1.039              0.456

 Optimization completed.
    -- Stationary point found.

 1\1\GINC-NODE360\Freq\RB3LYP\6-31G(d)\C9H15N1\VSC10255\08-Dec-2020\0\\
 #N Geom=AllCheck Guess=TCheck SCRF=Check GenChk RB3LYP/6-31G(d) Freq\\
 CID_143431935_JID_577_neutraal\\0,1\C,1.0335428081,-0.0546092895,0.016
 6106664\C,0.3317983486,-0.3579578706,1.3516796633\C,0.9423490904,0.440
 8835538,2.5199799372\C,-1.1901947409,-0.2315026605,1.2843240365\C,-1.9
 128641731,-1.3292460564,1.6318620255\C,-3.3590315455,-1.5438302793,1.7
 666538271\C,-3.8424494993,-2.805423688,1.7841786224\N,-4.2051568162,-0
 .4221408116,1.8526507204\C,-1.8285248892,1.0060361054,0.8167887634\C,-

 Normal termination of Gaussian 16 at Tue Dec  8 12:30:44 2020.

 ----------------------------------------------------------------------
 # B3LYP/6-311++G(d,p) empiricaldispersion=gd3bj scf=xqc pop=npa geom=c
 heck
 ----------------------------------------------------------------------

 --------------------------------------
 CID_143431935_JID_577_Energie_neutraal
 --------------------------------------
 Structure from the checkpoint file:  "JID_577.chk"
 Charge =  0 Multiplicity = 1

 SCF Done:  E(RB3LYP) =  -406.847974089     A.U. after   14 cycles
 Normal termination of Gaussian 16 at Tue Dec  8 12:40:02 2020.

 ----------------------------------------------------------------------
 # B3LYP/6-311++G(d,p) empiricaldispersion=gd3bj scf=xqc pop=npa geom=c
 heck
 ----------------------------------------------------------------------

 ------------------------------------
 CID_143431935_JID_577_Energie_kation
 ------------------------------------
 Structure from the checkpoint file:  "JID_577.chk"
 Charge =  1 Multiplicity = 2

 SCF Done:  E(UB3LYP) =  -406.574879063     A.U. after   22 cycles
 Normal termination of Gaussian 16 at Tue Dec  8 12:49:37 2020.
 Gaussian 16:  ES64L-G16RevA.03 25-Dec-2016

 -----------------------------------
 CID_143431935_JID_577_Energie_anion
 -----------------------------------
 Structure from the checkpoint file:  "JID_577.chk"
 Charge = -1 Multiplicity = 2

                         Standard orientation:
 ---------------------------------------------------------------------
 Center     Atomic      Atomic             Coordinates (Angstroms)
 Number     Number       Type             X           Y           Z
 ---------------------------------------------------------------------
      1          6           0        2.501028   -0.767642   -1.158155
      2          6           0        1.552986   -0.922219    0.043592
      3          6           0        2.283847   -0.721375    1.385735
      4          6           0        0.283532   -0.077710   -0.067237
      5          6           0       -0.901654   -0.740422   -0.002275
      6          6           0       -2.289163   -0.260636    0.013233
      7          6           0       -3.291020   -1.122572   -0.267778
      8          7           0       -2.533827    1.095376    0.301122
      9          6           0        0.354378    1.373380   -0.283740
     10          6           0        1.415928    2.184509   -0.149650
     11          1           0        2.935896    0.232583   -1.222123
     12          1           0        1.969218   -0.958670   -2.096376
     13          1           0        3.323469   -1.488225   -1.079963
     14          1           0        1.217835   -1.967253    0.037858
     15          1           0        2.704814    0.282262    1.489016
     16          1           0        1.599196   -0.883143    2.225175
     17          1           0        3.108733   -1.438181    1.475032
     18          1           0       -0.846308   -1.824595    0.063931
     19          1           0       -4.333101   -0.816437   -0.244358
     20          1           0       -3.079384   -2.139968   -0.574169
     21          1           0       -1.951388    1.457196    1.049256
     22          1           0       -3.512269    1.283659    0.493114
     23          1           0       -0.575953    1.825389   -0.614304
     24          1           0        1.323690    3.243942   -0.371424
     25          1           0        2.393173    1.851923    0.179126
 ---------------------------------------------------------------------

 SCF Done:  E(UB3LYP) =  -406.842262516     A.U. after   33 cycles
 SCF Done:  E(UB3LYP) =  -406.842262516     a.u. after    1 cycles

 The electronic state is 2-A.
 Alpha  occ. eigenvalues --  -14.17380 -10.05424 -10.04197 -10.03339 -10.02947
 Alpha  occ. eigenvalues --  -10.01005 -10.00659  -9.99750  -9.99541  -9.98911
 Alpha  occ. eigenvalues --   -0.76979  -0.68202  -0.62116  -0.60258  -0.56128
 Alpha  occ. eigenvalues --   -0.55812  -0.47617  -0.44505  -0.41157  -0.38463
 Alpha  occ. eigenvalues --   -0.36020  -0.34208  -0.31194  -0.29087  -0.28499
 Alpha  occ. eigenvalues --   -0.28028  -0.26634  -0.26268  -0.24338  -0.23838
 Alpha  occ. eigenvalues --   -0.21970  -0.21643  -0.20257  -0.18975  -0.16540
 Alpha  occ. eigenvalues --   -0.15251  -0.09631  -0.05828   0.05854
 Alpha virt. eigenvalues --    0.08277   0.08795   0.10210   0.10347   0.11034
 Alpha virt. eigenvalues --    0.11438   0.12240   0.13271   0.13528   0.13742
 Alpha virt. eigenvalues --    0.14397   0.15614   0.15690   0.15778   0.16967

  Beta  occ. eigenvalues --  -14.17364 -10.05399 -10.04204 -10.03324 -10.02934
  Beta  occ. eigenvalues --  -10.00803 -10.00611  -9.99485  -9.99228  -9.98677
  Beta  occ. eigenvalues --   -0.76899  -0.67951  -0.61772  -0.59808  -0.55801
  Beta  occ. eigenvalues --   -0.55681  -0.47173  -0.43922  -0.40931  -0.38313
  Beta  occ. eigenvalues --   -0.35895  -0.33990  -0.31136  -0.28941  -0.28339
  Beta  occ. eigenvalues --   -0.27865  -0.26479  -0.26219  -0.24143  -0.23606
  Beta  occ. eigenvalues --   -0.21825  -0.21409  -0.19857  -0.18844  -0.16327
  Beta  occ. eigenvalues --   -0.14061  -0.08432  -0.04182
  Beta virt. eigenvalues --    0.08232   0.08909   0.10181   0.10279   0.11068
  Beta virt. eigenvalues --    0.11195   0.11415   0.12166   0.13177   0.13461
  Beta virt. eigenvalues --    0.13721   0.14406   0.15616   0.15698   0.16032

 Mulliken charges and spin densities:
               1          2
     1  C   -0.308011  -0.362540
     2  C   -0.048468   0.238189
     3  C   -0.473226  -0.197216
     4  C    1.728987  -0.250456
     5  C   -0.922128   0.102194
     6  C   -0.139279   0.299764
     7  C   -0.509503   0.011442
     8  N   -0.351560   0.012229
     9  C   -0.547883   0.098251
    10  C   -0.530169   0.272981
    11  H    0.019925   0.117686
    12  H    0.116795   0.015332
    13  H    0.057633   0.047432
    14  H    0.039993   0.110885
    15  H    0.112671   0.005667
    16  H    0.122163   0.007078
    17  H   -0.034301   0.145414
    18  H   -0.022860   0.082093
    19  H   -0.087513   0.135923
    20  H    0.054211   0.036944
    21  H    0.193838   0.039102
    22  H    0.156418   0.079652
    23  H    0.219531  -0.021541
    24  H    0.068432   0.008789
    25  H    0.084306  -0.035294
 Sum of Mulliken charges =  -1.00000   1.00000

 Dipole moment (field-independent basis, Debye):
    X=              2.0237    Y=              0.3022    Z=              0.9462  Tot=              2.2543
 Quadrupole moment (field-independent basis, Debye-Ang):
   XX=           -103.9799   YY=            -85.0391   ZZ=            -79.0247
   XY=             -8.4179   XZ=              0.0295   YZ=              3.1521

 Summary of Natural Population Analysis:

                                       Natural Population
                Natural  -----------------------------------------------
    Atom  No    Charge         Core      Valence    Rydberg      Total
 -----------------------------------------------------------------------
      C    1   -0.28028      0.99965     2.27583    0.00480     3.28028
      C    2   -0.11684      0.99959     2.10632    0.01093     3.11684
      C    3   -0.27828      0.99965     2.27397    0.00467     3.27828
      C    4    0.00599      0.99946     1.98232    0.01223     2.99401
      C    5   -0.06211      0.99946     2.05310    0.00954     3.06211
      C    6    0.07497      0.99950     1.91461    0.01092     2.92503
      C    7   -0.20827      0.99955     2.20000    0.00873     3.20827
      N    8   -0.41065      0.99972     2.90048    0.01045     3.91065
      C    9   -0.11126      0.99954     2.10222    0.00950     3.11126
      C   10   -0.14654      0.99960     2.13882    0.00812     3.14654
      H   11    0.10113      0.00000     0.39759    0.00128     0.39887
      H   12    0.09874      0.00000     0.40039    0.00087     0.40126
      H   13    0.08724      0.00000     0.41178    0.00098     0.41276
      H   14    0.09052      0.00000     0.40737    0.00211     0.40948
      H   15    0.09615      0.00000     0.40282    0.00103     0.40385
      H   16    0.09857      0.00000     0.40052    0.00091     0.40143
      H   17    0.08850      0.00000     0.41018    0.00132     0.41150
      H   18    0.08592      0.00000     0.41247    0.00161     0.41408
      H   19    0.08029      0.00000     0.41873    0.00098     0.41971
      H   20    0.08956      0.00000     0.40963    0.00081     0.41044
      H   21    0.18354      0.00000     0.31493    0.00153     0.31646
      H   22    0.17552      0.00000     0.32288    0.00160     0.32448
      H   23    0.10025      0.00000     0.39766    0.00209     0.39975
      H   24    0.08061      0.00000     0.41820    0.00119     0.41939
      H   25    0.07674      0.00000     0.42191    0.00136     0.42326
 =======================================================================
   * Total *   -0.00000      9.99571    27.89473    0.10956    38.00000

 Normal termination of Gaussian 16 at Tue Dec  8 13:04:42 2020.
