 Gaussian 16, Revision A.03,

 -----------------------------------------------------------
 # opt freq B3LYP/6-31G(d) empiricaldispersion=gd3bj scf=xqc
 -----------------------------------------------------------

 ------------------------------
 CID_84110171_JID_1653_neutraal
 ------------------------------
 Symbolic Z-matrix:
 Charge =  0 Multiplicity = 1

 SCF Done:  E(RB3LYP) =  -931.012485709     A.U. after   14 cycles
 SCF Done:  E(RB3LYP) =  -931.018431061     A.U. after   12 cycles
 SCF Done:  E(RB3LYP) =  -931.018730206     A.U. after   13 cycles
 SCF Done:  E(RB3LYP) =  -931.018522471     A.U. after   12 cycles
 SCF Done:  E(RB3LYP) =  -931.019010362     A.U. after   12 cycles
 SCF Done:  E(RB3LYP) =  -931.019448938     A.U. after   12 cycles
 SCF Done:  E(RB3LYP) =  -931.019568510     A.U. after   11 cycles
 SCF Done:  E(RB3LYP) =  -931.019681674     A.U. after   12 cycles
 SCF Done:  E(RB3LYP) =  -931.019706151     A.U. after   11 cycles
 SCF Done:  E(RB3LYP) =  -931.019714609     A.U. after    9 cycles
 SCF Done:  E(RB3LYP) =  -931.019716968     A.U. after    8 cycles
 SCF Done:  E(RB3LYP) =  -931.019717360     A.U. after    7 cycles
 SCF Done:  E(RB3LYP) =  -931.019717615     A.U. after    8 cycles
 SCF Done:  E(RB3LYP) =  -931.019717657     A.U. after    7 cycles
 Optimization completed.
    -- Stationary point found.
 Normal termination of Gaussian 16 at Tue Dec  8 20:40:44 2020.

 --------------------------------------------------------------------
 #N Geom=AllCheck Guess=TCheck SCRF=Check GenChk RB3LYP/6-31G(d) Freq
 --------------------------------------------------------------------

 Structure from the checkpoint file:  "JID_1653.chk"
 ------------------------------
 CID_84110171_JID_1653_neutraal
 ------------------------------
 Charge =  0 Multiplicity = 1

 SCF Done:  E(RB3LYP) =  -931.019717657     A.U. after    1 cycles

  Exact polarizability:  96.255   2.094  91.387   0.259   1.438  78.074
 Approx polarizability: 130.840  -4.548 136.528   4.931   6.678 122.122

                      1                      2                      3
                      A                      A                      A
 Frequencies --     45.6253                71.7893               121.2134
 Red. masses --      4.6724                 4.9229                 3.2271
 Frc consts  --      0.0057                 0.0149                 0.0279
 IR Inten    --      2.9091                11.1212                 9.3198

                      4                      5                      6
                      A                      A                      A
 Frequencies --    153.4049               195.3569               203.6522
 Red. masses --      3.6980                 1.2732                 1.1980
 Frc consts  --      0.0513                 0.0286                 0.0293
 IR Inten    --      6.7150                 1.3785                88.9284

                      7                      8                      9
                      A                      A                      A
 Frequencies --    218.2768               246.1887               306.6294
 Red. masses --      2.4278                 2.8816                 3.6497
 Frc consts  --      0.0682                 0.1029                 0.2022
 IR Inten    --      0.9157                 4.1500                 1.4050

                     10                     11                     12
                      A                      A                      A
 Frequencies --    331.0121               340.3570               369.9265
 Red. masses --      3.1884                 2.8177                 4.3615
 Frc consts  --      0.2058                 0.1923                 0.3517
 IR Inten    --      6.3987                 3.9834                 9.6205

                     13                     14                     15
                      A                      A                      A
 Frequencies --    418.8282               473.7301               493.2324
 Red. masses --      4.4604                 5.1441                 4.6034
 Frc consts  --      0.4610                 0.6802                 0.6598
 IR Inten    --      6.8264                13.0310                24.8640

                     16                     17                     18
                      A                      A                      A
 Frequencies --    565.4164               574.2724               598.0013
 Red. masses --      7.0975                 2.2383                 4.1438
 Frc consts  --      1.3369                 0.4349                 0.8731
 IR Inten    --     45.5005                 5.9750                12.3973

                     19                     20                     21
                      A                      A                      A
 Frequencies --    712.8029               776.2269               810.9938
 Red. masses --      3.7899                 4.1507                 3.3039
 Frc consts  --      1.1345                 1.4735                 1.2803
 IR Inten    --      2.5468                69.3933                11.6062

                     22                     23                     24
                      A                      A                      A
 Frequencies --    887.3621               914.8992               935.9460
 Red. masses --      2.2019                 3.7532                 2.7507
 Frc consts  --      1.0215                 1.8510                 1.4197
 IR Inten    --      6.8665                 2.2876                90.3649

                     25                     26                     27
                      A                      A                      A
 Frequencies --    963.0691               975.2503               998.0274
 Red. masses --      2.1019                 1.9265                 1.3624
 Frc consts  --      1.1486                 1.0796                 0.7996
 IR Inten    --     76.5754                 6.6091                 4.3905

                     28                     29                     30
                      A                      A                      A
 Frequencies --   1000.1400              1053.7111              1099.0865
 Red. masses --      1.4657                 3.1275                 4.1206
 Frc consts  --      0.8638                 2.0459                 2.9327
 IR Inten    --     24.6817                18.0117                19.3437

                     31                     32                     33
                      A                      A                      A
 Frequencies --   1116.1426              1124.5499              1139.1639
 Red. masses --      3.4395                 4.0855                 2.6975
 Frc consts  --      2.5246                 3.0440                 2.0625
 IR Inten    --     42.3855                89.9906                59.7948

                     34                     35                     36
                      A                      A                      A
 Frequencies --   1220.8779              1226.7160              1247.1167
 Red. masses --      1.4264                 1.3733                 1.2531
 Frc consts  --      1.2527                 1.2176                 1.1483
 IR Inten    --      4.0055                66.7910                27.5202

                     37                     38                     39
                      A                      A                      A
 Frequencies --   1307.0788              1310.3992              1328.7606
 Red. masses --      4.1067                 1.6397                 1.3394
 Frc consts  --      4.1338                 1.6589                 1.3933
 IR Inten    --    154.5130                39.9964                22.4908

                     40                     41                     42
                      A                      A                      A
 Frequencies --   1333.6874              1351.9560              1370.9805
 Red. masses --      1.2528                 1.2333                 1.2299
 Frc consts  --      1.3129                 1.3282                 1.3620
 IR Inten    --      1.3632                 4.2088                 5.7203

                     43                     44                     45
                      A                      A                      A
 Frequencies --   1379.9197              1387.4675              1421.4757
 Red. masses --      1.2184                 1.2757                 1.3085
 Frc consts  --      1.3669                 1.4469                 1.5578
 IR Inten    --      8.7665                 5.0216                35.0088

                     46                     47                     48
                      A                      A                      A
 Frequencies --   1484.4576              1487.1422              1517.6503
 Red. masses --      1.0522                 1.0485                 1.0959
 Frc consts  --      1.3661                 1.3662                 1.4872
 IR Inten    --      6.5741                 5.2876                 5.2728

                     49                     50                     51
                      A                      A                      A
 Frequencies --   1522.8414              1537.0579              1681.2029
 Red. masses --      1.0789                 1.0898                 1.0642
 Frc consts  --      1.4742                 1.5169                 1.7721
 IR Inten    --      8.1264                 5.3894                37.8112

                     52                     53                     54
                      A                      A                      A
 Frequencies --   3063.1530              3071.9674              3082.1687
 Red. masses --      1.0728                 1.0840                 1.0606
 Frc consts  --      5.9309                 6.0273                 5.9364
 IR Inten    --     28.4442                11.3959                12.0156

                     55                     56                     57
                      A                      A                      A
 Frequencies --   3090.2903              3093.8364              3134.3369
 Red. masses --      1.0671                 1.0312                 1.1049
 Frc consts  --      6.0040                 5.8154                 6.3955
 IR Inten    --     43.8661                 2.9853                34.0332

                     58                     59                     60
                      A                      A                      A
 Frequencies --   3159.2639              3171.5408              3190.7434
 Red. masses --      1.1010                 1.0952                 1.1060
 Frc consts  --      6.4744                 6.4907                 6.6339
 IR Inten    --      5.3713                 1.3957                 0.4889

                     61                     62                     63
                      A                      A                      A
 Frequencies --   3205.7951              3397.1483              3527.6435
 Red. masses --      1.1082                 1.0527                 1.0915
 Frc consts  --      6.7102                 7.1579                 8.0025
 IR Inten    --      0.2249                 1.5619                 0.3980

 - Thermochemistry -
 -------------------
 Temperature   298.150 Kelvin.  Pressure   1.00000 Atm.
 Atom     1 has atomic number  6 and mass  12.00000

 Molecular mass:   180.05686 amu.
 Principal axes and moments of inertia in atomic units:
                           1         2         3
     Eigenvalues --  1100.140042345.510092721.55588
           X            0.99951   0.02130  -0.02299
           Y           -0.02204   0.99922  -0.03271
           Z            0.02227   0.03321   0.99920
 This molecule is an asymmetric top.
 Rotational symmetry number  1.
 Warning -- assumption of classical behavior for rotation
           may cause significant error
 Rotational temperatures (Kelvin)      0.07873     0.03693     0.03183
 Rotational constants (GHZ):           1.64046     0.76945     0.66313
 Zero-point vibrational energy     499673.9 (Joules/Mol)
                                  119.42494 (Kcal/Mol)
 Warning -- explicit consideration of  18 degrees of freedom as
           vibrations may cause significant error
 Vibrational temperatures:     65.64   103.29   174.40   220.72   281.07
          (Kelvin)            293.01   314.05   354.21   441.17   476.25
                              489.70   532.24   602.60   681.59   709.65
                              813.51   826.25   860.39  1025.56  1116.82
                             1166.84  1276.72  1316.34  1346.62  1385.64
                             1403.17  1435.94  1438.98  1516.06  1581.34
                             1605.88  1617.98  1639.00  1756.57  1764.97
                             1794.32  1880.59  1885.37  1911.79  1918.88
                             1945.16  1972.54  1985.40  1996.26  2045.19
                             2135.80  2139.67  2183.56  2191.03  2211.48
                             2418.88  4407.19  4419.88  4434.55  4446.24
                             4451.34  4509.61  4545.48  4563.14  4590.77
                             4612.42  4887.74  5075.49

 Zero-point correction=                           0.190316 (Hartree/Particle)
 Thermal correction to Energy=                    0.201904
 Thermal correction to Enthalpy=                  0.202848
 Thermal correction to Gibbs Free Energy=         0.152722
 Sum of electronic and zero-point Energies=           -930.829402
 Sum of electronic and thermal Energies=              -930.817814
 Sum of electronic and thermal Enthalpies=            -930.816870
 Sum of electronic and thermal Free Energies=         -930.866996

                     E (Thermal)             CV                S
                      KCal/Mol        Cal/Mol-Kelvin    Cal/Mol-Kelvin
 Total                  126.697             43.251            105.499
 Electronic               0.000              0.000              0.000
 Translational            0.889              2.981             41.471
 Rotational               0.889              2.981             30.330
 Vibrational            124.919             37.289             33.698
 Vibration     1          0.595              1.979              4.999
 Vibration     2          0.598              1.967              4.104
 Vibration     3          0.609              1.932              3.081
 Vibration     4          0.619              1.899              2.630
 Vibration     5          0.636              1.846              2.176
 Vibration     6          0.639              1.835              2.100
 Vibration     7          0.646              1.813              1.973
 Vibration     8          0.661              1.769              1.758
 Vibration     9          0.697              1.661              1.380
 Vibration    10          0.713              1.614              1.255
 Vibration    11          0.720              1.595              1.210
 Vibration    12          0.742              1.534              1.080
 Vibration    13          0.782              1.429              0.896
 Vibration    14          0.831              1.308              0.727
 Vibration    15          0.849              1.265              0.675
 Vibration    16          0.921              1.106              0.513
 Vibration    17          0.931              1.087              0.496
 Vibration    18          0.956              1.036              0.453

 Optimization completed.
    -- Stationary point found.
 Normal termination of Gaussian 16 at Tue Dec  8 20:46:26 2020.

 ----------------------------------------------------------------------
 # B3LYP/6-311++G(d,p) empiricaldispersion=gd3bj scf=xqc pop=npa geom=c
 heck
 ----------------------------------------------------------------------

 --------------------------------------
 CID_84110171_JID_1653_Energie_neutraal
 --------------------------------------
 Structure from the checkpoint file:  "JID_1653.chk"
 Charge =  0 Multiplicity = 1

 SCF Done:  E(RB3LYP) =  -931.210729835     A.U. after   14 cycles
 Normal termination of Gaussian 16 at Tue Dec  8 20:52:55 2020.

 ----------------------------------------------------------------------
 # B3LYP/6-311++G(d,p) empiricaldispersion=gd3bj scf=xqc pop=npa geom=c
 heck
 ----------------------------------------------------------------------

 ------------------------------------
 CID_84110171_JID_1653_Energie_kation
 ------------------------------------
 Structure from the checkpoint file:  "JID_1653.chk"
 Charge =  1 Multiplicity = 2

 SCF Done:  E(UB3LYP) =  -930.891128563     A.U. after   22 cycles
 Normal termination of Gaussian 16 at Tue Dec  8 21:00:07 2020.
 Gaussian 16:  ES64L-G16RevA.03 25-Dec-2016

 ----------------------------------------------------------------------
 # B3LYP/6-311++G(d,p) empiricaldispersion=gd3bj scf=xqc pop=npa geom=c
 heck
 ----------------------------------------------------------------------

 -----------------------------------
 CID_84110171_JID_1653_Energie_anion
 -----------------------------------
 Structure from the checkpoint file:  "JID_1653.chk"
 Charge = -1 Multiplicity = 2

                         Standard orientation:
 ---------------------------------------------------------------------
 Center     Atomic      Atomic             Coordinates (Angstroms)
 Number     Number       Type             X           Y           Z
 ---------------------------------------------------------------------
      1          6           0       -2.327244   -1.134349    1.051235
      2         16           0       -1.488831   -0.184933   -0.224175
      3          8           0       -0.771160   -1.135252   -1.093355
      4          8           0       -2.442870    0.750694   -0.827619
      5          7           0       -0.435835    0.750992    0.734465
      6          6           0        0.099552    1.928055   -0.001366
      7          6           0        1.388492    1.415279   -0.644938
      8          6           0        1.981749    0.502975    0.450860
      9          6           0        0.747193    0.030100    1.274679
     10          8           0        2.830794   -0.524350   -0.042510
     11          7           0        2.091799   -1.726006   -0.389421
     12          1           0       -3.039714   -1.782812    0.537265
     13          1           0       -2.840093   -0.439154    1.715829
     14          1           0       -1.598409   -1.736278    1.595874
     15          1           0        0.303075    2.706394    0.743785
     16          1           0       -0.648203    2.308551   -0.696780
     17          1           0        1.147754    0.821114   -1.532806
     18          1           0        2.079167    2.210093   -0.939395
     19          1           0        2.648916    1.090149    1.090582
     20          1           0        0.645062   -1.051720    1.183662
     21          1           0        0.849059    0.294628    2.330833
     22          1           0        1.551124   -1.496457   -1.230178
     23          1           0        2.859259   -2.321575   -0.702134
 ---------------------------------------------------------------------

 SCF Done:  E(UB3LYP) =  -931.197640898     A.U. after   28 cycles

 The electronic state is 2-A.
 Alpha  occ. eigenvalues --  -88.95900 -19.05010 -19.01527 -19.01456 -14.24693
 Alpha  occ. eigenvalues --  -14.24329 -10.12586 -10.10632 -10.10455 -10.10069
 Alpha  occ. eigenvalues --  -10.07072  -8.02151  -5.98410  -5.98391  -5.98239
 Alpha  occ. eigenvalues --   -1.01600  -0.96377  -0.90518  -0.84578  -0.73213
 Alpha  occ. eigenvalues --   -0.68879  -0.64932  -0.63011  -0.55349  -0.48818
 Alpha  occ. eigenvalues --   -0.47513  -0.44159  -0.41797  -0.40957  -0.38208
 Alpha  occ. eigenvalues --   -0.37878  -0.36251  -0.34350  -0.33418  -0.33004
 Alpha  occ. eigenvalues --   -0.32269  -0.31152  -0.29504  -0.28440  -0.26125
 Alpha  occ. eigenvalues --   -0.25281  -0.24395  -0.22269  -0.21667  -0.20492
 Alpha  occ. eigenvalues --   -0.19968  -0.15764  -0.13302   0.04582
 Alpha virt. eigenvalues --    0.06773   0.07403   0.08579   0.09647   0.10156
 Alpha virt. eigenvalues --    0.10619   0.11066   0.12047   0.12486   0.13198
 Alpha virt. eigenvalues --    0.14380   0.14856   0.15148   0.16132   0.16536

  Beta  occ. eigenvalues --  -88.95896 -19.05005 -19.01516 -19.01445 -14.24664
  Beta  occ. eigenvalues --  -14.24328 -10.12570 -10.10606 -10.10391 -10.10037
  Beta  occ. eigenvalues --  -10.07054  -8.02147  -5.98404  -5.98388  -5.98234
  Beta  occ. eigenvalues --   -1.01573  -0.96349  -0.90490  -0.84561  -0.73159
  Beta  occ. eigenvalues --   -0.68829  -0.64873  -0.62959  -0.55292  -0.48771
  Beta  occ. eigenvalues --   -0.47448  -0.44120  -0.41734  -0.40914  -0.38175
  Beta  occ. eigenvalues --   -0.37847  -0.36210  -0.34296  -0.33365  -0.32961
  Beta  occ. eigenvalues --   -0.32232  -0.31115  -0.29474  -0.28404  -0.26084
  Beta  occ. eigenvalues --   -0.25243  -0.24370  -0.22247  -0.21638  -0.20472
  Beta  occ. eigenvalues --   -0.19936  -0.15743  -0.13280
  Beta virt. eigenvalues --    0.07084   0.07994   0.08141   0.09326   0.10224
  Beta virt. eigenvalues --    0.10965   0.11431   0.11571   0.12260   0.13139
  Beta virt. eigenvalues --    0.13491   0.14566   0.14936   0.15282   0.16172

 Mulliken charges and spin densities:
               1          2
     1  C    0.830498  -1.286866
     2  S    0.407178  -0.361147
     3  O   -0.168228   0.028106
     4  O   -0.221833   0.028737
     5  N   -0.130990   0.183410
     6  C   -0.068178  -0.343337
     7  C    0.189781  -0.377057
     8  C    0.104686  -0.478938
     9  C    0.263116  -0.751821
    10  O   -0.098893   0.048593
    11  N   -0.239126  -0.211694
    12  H   -0.259023   0.459558
    13  H   -0.344369   0.569977
    14  H   -0.570498   0.776373
    15  H   -0.377632   0.574671
    16  H    0.103369   0.097557
    17  H    0.185547   0.013290
    18  H   -0.334560   0.501657
    19  H   -0.381169   0.602215
    20  H    0.611624  -0.359040
    21  H   -0.779459   0.994491
    22  H    0.207802   0.069062
    23  H    0.070356   0.222204
 Sum of Mulliken charges =  -1.00000   1.00000

 Dipole moment (field-independent basis, Debye):
    X=              0.2775    Y=             -1.1811    Z=             -4.3824  Tot=              4.5472
 Quadrupole moment (field-independent basis, Debye-Ang):
   XX=           -124.1035   YY=           -113.5546   ZZ=           -114.5764
   XY=             -6.8581   XZ=             -2.1036   YZ=             -1.8427

 Summary of Natural Population Analysis:

                                       Natural Population
                Natural  -----------------------------------------------
    Atom  No    Charge         Core      Valence    Rydberg      Total
 -----------------------------------------------------------------------
      C    1   -0.38747      0.99961     2.37755    0.01031     3.38747
      S    2    1.09448      4.99927     1.80906    0.09720     6.90552
      O    3   -0.47372      0.99990     3.46799    0.00583     4.47372
      O    4   -0.46530      0.99991     3.45967    0.00572     4.46530
      N    5   -0.36758      0.99976     2.85016    0.01766     3.86758
      C    6   -0.09343      0.99961     2.08175    0.01206     3.09343
      C    7   -0.21318      0.99961     2.20437    0.00920     3.21318
      C    8    0.06035      0.99954     1.92362    0.01648     2.93965
      C    9   -0.11364      0.99959     2.10078    0.01328     3.11364
      O   10   -0.23514      0.99988     3.22449    0.01076     4.23514
      N   11   -0.25590      0.99976     2.74445    0.01168     3.75590
      H   12    0.11694      0.00000     0.38199    0.00107     0.38306
      H   13    0.12140      0.00000     0.37657    0.00204     0.37860
      H   14    0.11993      0.00000     0.37786    0.00221     0.38007
      H   15    0.10159      0.00000     0.39652    0.00189     0.39841
      H   16    0.11369      0.00000     0.38526    0.00105     0.38631
      H   17    0.10233      0.00000     0.39619    0.00149     0.39767
      H   18    0.10588      0.00000     0.39256    0.00156     0.39412
      H   19    0.09744      0.00000     0.39944    0.00312     0.40256
      H   20    0.12133      0.00000     0.37587    0.00279     0.37867
      H   21    0.10697      0.00000     0.38998    0.00305     0.39303
      H   22    0.17283      0.00000     0.32510    0.00207     0.32717
      H   23    0.17021      0.00000     0.32788    0.00191     0.32979
 =======================================================================
   * Total *    0.00000     14.99644    32.76911    0.23444    48.00000

 Normal termination of Gaussian 16 at Tue Dec  8 21:09:05 2020.
