 Gaussian 16, Revision A.03,

 -----------------------------------------------------------
 # opt freq B3LYP/6-31G(d) empiricaldispersion=gd3bj scf=xqc
 -----------------------------------------------------------

 -------------------------------
 CID_104538425_JID_6574_neutraal
 -------------------------------
 Symbolic Z-matrix:
 Charge =  0 Multiplicity = 1

 SCF Done:  E(RB3LYP) =  -1141.18472930     A.U. after   16 cycles
 SCF Done:  E(RB3LYP) =  -1141.21036528     A.U. after   13 cycles
 SCF Done:  E(RB3LYP) =  -1141.21305825     A.U. after   13 cycles
 SCF Done:  E(RB3LYP) =  -1141.21502343     A.U. after   13 cycles
 SCF Done:  E(RB3LYP) =  -1141.21667460     A.U. after   12 cycles
 SCF Done:  E(RB3LYP) =  -1141.21713965     A.U. after   13 cycles
 SCF Done:  E(RB3LYP) =  -1141.21861354     A.U. after   12 cycles
 SCF Done:  E(RB3LYP) =  -1141.21991183     A.U. after   13 cycles
 SCF Done:  E(RB3LYP) =  -1141.22126370     A.U. after   12 cycles
 SCF Done:  E(RB3LYP) =  -1141.22217882     A.U. after   13 cycles
 SCF Done:  E(RB3LYP) =  -1141.22611198     A.U. after    9 cycles
 SCF Done:  E(RB3LYP) =  -1141.22611206     A.U. after    7 cycles
 SCF Done:  E(RB3LYP) =  -1141.22611212     A.U. after    7 cycles
 SCF Done:  E(RB3LYP) =  -1141.22611214     A.U. after    7 cycles
 SCF Done:  E(RB3LYP) =  -1141.22611214     A.U. after    6 cycles
 Optimization completed.
    -- Stationary point found.
 Normal termination of Gaussian 16 at Fri Dec 11 00:15:19 2020.

 --------------------------------------------------------------------
 #N Geom=AllCheck Guess=TCheck SCRF=Check GenChk RB3LYP/6-31G(d) Freq
 --------------------------------------------------------------------

 Structure from the checkpoint file:  "JID_6574.chk"
 -------------------------------
 CID_104538425_JID_6574_neutraal
 -------------------------------
 Charge =  0 Multiplicity = 1

 SCF Done:  E(RB3LYP) =  -1141.22611214     A.U. after    2 cycles

  Exact polarizability: 162.162  -7.192 126.585   4.094  -1.641 107.716
 Approx polarizability: 205.403 -17.723 190.198   9.838  -4.038 173.247

                      1                      2                      3
                      A                      A                      A
 Frequencies --     18.5377                27.7896                46.0595
 Red. masses --      4.3228                 3.6583                 4.4487
 Frc consts  --      0.0009                 0.0017                 0.0056
 IR Inten    --      0.2117                 3.5835                 3.8176

                      4                      5                      6
                      A                      A                      A
 Frequencies --     63.7801                79.9109                83.9263
 Red. masses --      3.9168                 3.4973                 3.6276
 Frc consts  --      0.0094                 0.0132                 0.0151
 IR Inten    --      2.6612                 0.6407                 2.2214

                      7                      8                      9
                      A                      A                      A
 Frequencies --     92.3713               125.6830               138.8080
 Red. masses --      4.1903                 2.4523                 4.0025
 Frc consts  --      0.0211                 0.0228                 0.0454
 IR Inten    --      3.8723                 6.7222                 6.0966

                     10                     11                     12
                      A                      A                      A
 Frequencies --    166.4916               180.6184               201.1126
 Red. masses --      4.0188                 5.2605                 4.4937
 Frc consts  --      0.0656                 0.1011                 0.1071
 IR Inten    --      3.2953                 2.3871                 5.3618

                     13                     14                     15
                      A                      A                      A
 Frequencies --    237.9188               248.4985               279.8283
 Red. masses --      1.8084                 2.5818                 2.8491
 Frc consts  --      0.0603                 0.0939                 0.1314
 IR Inten    --     10.9894                 1.9215                 0.8358

                     16                     17                     18
                      A                      A                      A
 Frequencies --    281.2272               330.8234               350.1761
 Red. masses --      4.2680                 3.4447                 3.5838
 Frc consts  --      0.1989                 0.2221                 0.2589
 IR Inten    --      0.8813                 1.5249                 0.9109

                     19                     20                     21
                      A                      A                      A
 Frequencies --    361.2092               375.5136               422.8894
 Red. masses --      3.0735                 3.1637                 3.0024
 Frc consts  --      0.2363                 0.2628                 0.3163
 IR Inten    --      1.5303                 7.4175                 7.1644

                     22                     23                     24
                      A                      A                      A
 Frequencies --    473.6514               490.3295               508.1621
 Red. masses --      2.6218                 5.0068                 5.4719
 Frc consts  --      0.3466                 0.7092                 0.8325
 IR Inten    --      0.5988                11.8829                30.8138

                     25                     26                     27
                      A                      A                      A
 Frequencies --    553.1909               556.5833               578.9447
 Red. masses --      3.4900                 3.0209                 3.7328
 Frc consts  --      0.6293                 0.5514                 0.7372
 IR Inten    --      9.1022                10.1885                10.3879

                     28                     29                     30
                      A                      A                      A
 Frequencies --    676.7904               706.4193               783.3530
 Red. masses --      3.8401                 3.3809                 1.2254
 Frc consts  --      1.0364                 0.9940                 0.4430
 IR Inten    --     74.0462               113.1941                20.4061

                     31                     32                     33
                      A                      A                      A
 Frequencies --    818.8788               829.3631               841.7609
 Red. masses --      2.3535                 1.7167                 2.5937
 Frc consts  --      0.9298                 0.6957                 1.0828
 IR Inten    --      2.5884                14.6960                40.7387

                     34                     35                     36
                      A                      A                      A
 Frequencies --    859.7025               885.9968               913.1112
 Red. masses --      1.4956                 2.3898                 2.7294
 Frc consts  --      0.6513                 1.1053                 1.3408
 IR Inten    --      4.2463                72.2434                99.0803

                     37                     38                     39
                      A                      A                      A
 Frequencies --    947.9716               981.0111              1017.1391
 Red. masses --      2.5184                 2.7917                 2.7578
 Frc consts  --      1.3334                 1.5830                 1.6810
 IR Inten    --     22.0544                13.5609                25.4227

                     40                     41                     42
                      A                      A                      A
 Frequencies --   1023.6394              1026.1972              1034.4319
 Red. masses --      2.8397                 2.6207                 2.7565
 Frc consts  --      1.7532                 1.6260                 1.7379
 IR Inten    --     21.2181                 4.7445                38.7624

                     43                     44                     45
                      A                      A                      A
 Frequencies --   1070.6487              1077.5292              1103.5667
 Red. masses --      1.3220                 2.5061                 1.3642
 Frc consts  --      0.8928                 1.7143                 0.9789
 IR Inten    --     11.0777                45.5186                 1.7661

                     46                     47                     48
                      A                      A                      A
 Frequencies --   1131.5750              1142.0564              1143.7340
 Red. masses --      4.6352                 1.7405                 1.4423
 Frc consts  --      3.4969                 1.3375                 1.1116
 IR Inten    --     79.8529                14.4533                23.7542

                     49                     50                     51
                      A                      A                      A
 Frequencies --   1162.0942              1186.9127              1193.6095
 Red. masses --      3.9207                 2.3125                 1.8500
 Frc consts  --      3.1196                 1.9194                 1.5529
 IR Inten    --    123.4593                43.1832                14.6088

                     52                     53                     54
                      A                      A                      A
 Frequencies --   1196.7364              1211.8875              1239.7152
 Red. masses --      1.4217                 1.3645                 1.5811
 Frc consts  --      1.1996                 1.1807                 1.4317
 IR Inten    --     11.8483                 1.6615                14.6743

                     55                     56                     57
                      A                      A                      A
 Frequencies --   1256.6940              1260.1617              1279.4079
 Red. masses --      1.8639                 1.4062                 1.1643
 Frc consts  --      1.7343                 1.3156                 1.1229
 IR Inten    --     12.1995                13.6109                12.3987

                     58                     59                     60
                      A                      A                      A
 Frequencies --   1309.6138              1338.1300              1357.3593
 Red. masses --      5.7656                 1.3730                 1.2864
 Frc consts  --      5.8261                 1.4485                 1.3964
 IR Inten    --    173.2232                36.9885                26.6678

                     61                     62                     63
                      A                      A                      A
 Frequencies --   1386.7387              1401.0522              1412.3316
 Red. masses --      1.2299                 1.4718                 1.2554
 Frc consts  --      1.3935                 1.7022                 1.4754
 IR Inten    --      1.4150                61.1170                31.8705

                     64                     65                     66
                      A                      A                      A
 Frequencies --   1429.6235              1435.5094              1443.6003
 Red. masses --      1.2308                 1.2824                 1.3761
 Frc consts  --      1.4821                 1.5569                 1.6896
 IR Inten    --     12.0099                 4.9230                12.8877

                     67                     68                     69
                      A                      A                      A
 Frequencies --   1476.6972              1490.1546              1492.8333
 Red. masses --      1.0765                 1.0966                 1.0816
 Frc consts  --      1.3831                 1.4347                 1.4202
 IR Inten    --     15.4765                 2.1688                 4.7922

                     70                     71                     72
                      A                      A                      A
 Frequencies --   1504.3115              1510.6881              1515.6386
 Red. masses --      1.1632                 1.0879                 1.0472
 Frc consts  --      1.5509                 1.4628                 1.4173
 IR Inten    --      2.1276                20.5749                 5.5312

                     73                     74                     75
                      A                      A                      A
 Frequencies --   1531.6203              1534.0801              1551.5780
 Red. masses --      1.0628                 1.3701                 1.0875
 Frc consts  --      1.4689                 1.8998                 1.5424
 IR Inten    --     12.5595                 5.1569                 3.1792

                     76                     77                     78
                      A                      A                      A
 Frequencies --   2370.7104              2987.6731              3004.0098
 Red. masses --     12.5893                 1.0591                 1.0390
 Frc consts  --     41.6879                 5.5698                 5.5242
 IR Inten    --     14.2644                41.2003                77.1322

                     79                     80                     81
                      A                      A                      A
 Frequencies --   3035.6994              3052.0694              3078.6800
 Red. masses --      1.0989                 1.1058                 1.0711
 Frc consts  --      5.9668                 6.0689                 5.9813
 IR Inten    --     37.2811                47.3143                 5.5359

                     82                     83                     84
                      A                      A                      A
 Frequencies --   3086.8814              3102.7229              3139.8492
 Red. masses --      1.0677                 1.0606                 1.0866
 Frc consts  --      5.9945                 6.0156                 6.3118
 IR Inten    --     28.2830                23.4339                21.0285

                     85                     86                     87
                      A                      A                      A
 Frequencies --   3142.7868              3153.3549              3156.0727
 Red. masses --      1.0982                 1.1060                 1.0551
 Frc consts  --      6.3906                 6.4795                 6.1919
 IR Inten    --     26.1733                13.0875                13.8292

                     88                     89                     90
                      A                      A                      A
 Frequencies --   3158.0906              3172.8539              3173.1260
 Red. masses --      1.1000                 1.0899                 1.0602
 Frc consts  --      6.4636                 6.4643                 6.2894
 IR Inten    --      2.9075                 1.9762                17.4518

                     91                     92                     93
                      A                      A                      A
 Frequencies --   3239.4394              3269.2587              3495.7841
 Red. masses --      1.1189                 1.1157                 1.0744
 Frc consts  --      6.9178                 7.0259                 7.7356
 IR Inten    --     11.9819                 5.0874                14.9687

 - Thermochemistry -
 -------------------
 Temperature   298.150 Kelvin.  Pressure   1.00000 Atm.
 Atom     1 has atomic number  6 and mass  12.00000

 Molecular mass:   247.09906 amu.
 Principal axes and moments of inertia in atomic units:
                           1         2         3
     Eigenvalues --  2286.201865212.539946467.43331
           X            0.99995   0.00665  -0.00698
           Y           -0.00669   0.99996  -0.00653
           Z            0.00694   0.00658   0.99995
 This molecule is an asymmetric top.
 Rotational symmetry number  1.
 Warning -- assumption of classical behavior for rotation
           may cause significant error
 Rotational temperatures (Kelvin)      0.03789     0.01662     0.01339
 Rotational constants (GHZ):           0.78941     0.34623     0.27905
 Zero-point vibrational energy     719055.9 (Joules/Mol)
                                  171.85848 (Kcal/Mol)
 Warning -- explicit consideration of  27 degrees of freedom as
           vibrations may cause significant error
 Vibrational temperatures:     26.67    39.98    66.27    91.77   114.97
          (Kelvin)            120.75   132.90   180.83   199.71   239.54
                              259.87   289.36   342.31   357.53   402.61
                              404.62   475.98   503.83   519.70   540.28
                              608.44   681.48   705.47   731.13   795.92
                              800.80   832.97   973.75  1016.38  1127.07
                             1178.18  1193.27  1211.11  1236.92  1274.75
                             1313.76  1363.92  1411.46  1463.44  1472.79
                             1476.47  1488.32  1540.42  1550.32  1587.79
                             1628.08  1643.16  1645.58  1671.99  1707.70
                             1717.34  1721.84  1743.64  1783.67  1808.10
                             1813.09  1840.78  1884.24  1925.27  1952.94
                             1995.21  2015.80  2032.03  2056.91  2065.38
                             2077.02  2124.64  2144.00  2147.85  2164.37
                             2173.54  2180.67  2203.66  2207.20  2232.37
                             3410.92  4298.60  4322.10  4367.69  4391.25
                             4429.53  4441.33  4464.13  4517.54  4521.77
                             4536.97  4540.88  4543.79  4565.03  4565.42
                             4660.83  4703.73  5029.65

 Zero-point correction=                           0.273874 (Hartree/Particle)
 Thermal correction to Energy=                    0.291695
 Thermal correction to Enthalpy=                  0.292639
 Thermal correction to Gibbs Free Energy=         0.225957
 Sum of electronic and zero-point Energies=          -1140.952238
 Sum of electronic and thermal Energies=             -1140.934418
 Sum of electronic and thermal Enthalpies=           -1140.933473
 Sum of electronic and thermal Free Energies=        -1141.000155

                     E (Thermal)             CV                S
                      KCal/Mol        Cal/Mol-Kelvin    Cal/Mol-Kelvin
 Total                  183.041             63.973            140.343
 Electronic               0.000              0.000              0.000
 Translational            0.889              2.981             42.414
 Rotational               0.889              2.981             32.711
 Vibrational            181.264             58.011             65.218
 Vibration     1          0.593              1.986              6.785
 Vibration     2          0.593              1.984              5.981
 Vibration     3          0.595              1.979              4.980
 Vibration     4          0.597              1.972              4.337
 Vibration     5          0.600              1.963              3.893
 Vibration     6          0.601              1.960              3.797
 Vibration     7          0.602              1.955              3.609
 Vibration     8          0.611              1.927              3.011
 Vibration     9          0.614              1.915              2.820
 Vibration    10          0.624              1.884              2.475
 Vibration    11          0.630              1.866              2.322
 Vibration    12          0.638              1.838              2.123
 Vibration    13          0.656              1.783              1.818
 Vibration    14          0.662              1.765              1.741
 Vibration    15          0.680              1.711              1.535
 Vibration    16          0.681              1.708              1.526
 Vibration    17          0.713              1.614              1.256
 Vibration    18          0.727              1.575              1.165
 Vibration    19          0.735              1.552              1.117
 Vibration    20          0.746              1.522              1.057
 Vibration    21          0.785              1.420              0.882
 Vibration    22          0.830              1.309              0.727
 Vibration    23          0.846              1.271              0.683
 Vibration    24          0.863              1.232              0.638
 Vibration    25          0.909              1.133              0.538
 Vibration    26          0.912              1.125              0.531
 Vibration    27          0.936              1.077              0.487

 Optimization completed.
    -- Stationary point found.
 Normal termination of Gaussian 16 at Fri Dec 11 00:27:06 2020.

 ----------------------------------------------------------------------
 # B3LYP/6-311++G(d,p) empiricaldispersion=gd3bj scf=xqc pop=npa geom=c
 heck
 ----------------------------------------------------------------------

 ---------------------------------------
 CID_104538425_JID_6574_Energie_neutraal
 ---------------------------------------
 Structure from the checkpoint file:  "JID_6574.chk"
 Charge =  0 Multiplicity = 1

 SCF Done:  E(RB3LYP) =  -1141.47135917     A.U. after   15 cycles
 Normal termination of Gaussian 16 at Fri Dec 11 00:32:06 2020.

 ----------------------------------------------------------------------
 # B3LYP/6-311++G(d,p) empiricaldispersion=gd3bj scf=xqc pop=npa geom=c
 heck
 ----------------------------------------------------------------------

 -------------------------------------
 CID_104538425_JID_6574_Energie_kation
 -------------------------------------
 Structure from the checkpoint file:  "JID_6574.chk"
 Charge =  1 Multiplicity = 2

 SCF Done:  E(UB3LYP) =  -1141.13865627     A.U. after   30 cycles
 Normal termination of Gaussian 16 at Fri Dec 11 00:45:32 2020.
 Gaussian 16:  ES64L-G16RevA.03 25-Dec-2016

 ----------------------------------------------------------------------
 # B3LYP/6-311++G(d,p) empiricaldispersion=gd3bj scf=xqc pop=npa geom=c
 heck
 ----------------------------------------------------------------------

 ------------------------------------
 CID_104538425_JID_6574_Energie_anion
 ------------------------------------
 Structure from the checkpoint file:  "JID_6574.chk"
 Charge = -1 Multiplicity = 2

                         Standard orientation:
 ---------------------------------------------------------------------
 Center     Atomic      Atomic             Coordinates (Angstroms)
 Number     Number       Type             X           Y           Z
 ---------------------------------------------------------------------
      1          6           0        4.278494    0.760915   -0.957266
      2          8           0        3.401728    0.316103    0.059915
      3          6           0        2.908678   -0.990263   -0.179026
      4          6           0        1.928860   -1.355671    0.926841
      5          7           0        0.663574   -0.604957    0.944781
      6          6           0        0.656554    0.773672    1.449357
      7          6           0        0.873115    1.919649    0.416941
      8          6           0       -0.373336    2.580044    0.031370
      9          7           0       -1.365930    3.121380   -0.230810
     10         16           0       -0.445705   -1.024988   -0.243888
     11          8           0       -0.438682   -0.097799   -1.375475
     12          8           0       -0.238742   -2.454555   -0.498508
     13          7           0       -1.849652   -0.717082    0.642379
     14          6           0       -3.092808   -0.778566   -0.104364
     15          6           0       -4.220912    0.082756    0.409038
     16          6           0       -3.518735    0.440303   -0.872149
     17          1           0        4.602042    1.768721   -0.686113
     18          1           0        3.776992    0.793180   -1.936414
     19          1           0        5.161824    0.109106   -1.038686
     20          1           0        2.415340   -1.047656   -1.161314
     21          1           0        3.737796   -1.717948   -0.178854
     22          1           0        1.681746   -2.415216    0.846975
     23          1           0        2.405125   -1.189007    1.898313
     24          1           0       -0.284968    0.937980    1.977742
     25          1           0        1.465749    0.814221    2.179940
     26          1           0        1.531714    2.675775    0.858603
     27          1           0        1.376862    1.538030   -0.470612
     28          1           0       -1.847838   -1.345308    1.446063
     29          1           0       -3.346696   -1.753815   -0.517539
     30          1           0       -5.223736   -0.332713    0.374497
     31          1           0       -4.008125    0.699519    1.276813
     32          1           0       -2.853464    1.295374   -0.859041
     33          1           0       -4.028923    0.267149   -1.814528
 ---------------------------------------------------------------------

 SCF Done:  E(UB3LYP) =  -1141.46192129     A.U. after   33 cycles
 SCF Done:  E(UB3LYP) =  -1141.46192129     a.u. after    1 cycles

 The electronic state is 2-A.
 Alpha  occ. eigenvalues --  -88.98850 -19.04200 -19.02929 -19.02857 -14.26072
 Alpha  occ. eigenvalues --  -14.25917 -14.21413 -10.13222 -10.13170 -10.13041
 Alpha  occ. eigenvalues --  -10.12326 -10.12063 -10.11701 -10.11643 -10.09315
 Alpha  occ. eigenvalues --  -10.08523  -8.04816  -6.01065  -6.01059  -6.01006
 Alpha  occ. eigenvalues --   -1.04066  -0.95543  -0.92183  -0.86161  -0.84663
 Alpha  occ. eigenvalues --   -0.81272  -0.76017  -0.70684  -0.67312  -0.60541
 Alpha  occ. eigenvalues --   -0.59952  -0.55149  -0.52552  -0.51946  -0.49208
 Alpha  occ. eigenvalues --   -0.45134  -0.44255  -0.43828  -0.41499  -0.40960
 Alpha  occ. eigenvalues --   -0.40095  -0.39507  -0.39273  -0.37047  -0.36764
 Alpha  occ. eigenvalues --   -0.35686  -0.33174  -0.32627  -0.32392  -0.30974
 Alpha  occ. eigenvalues --   -0.29916  -0.28900  -0.28638  -0.27083  -0.26907
 Alpha  occ. eigenvalues --   -0.25857  -0.25022  -0.24659  -0.23580  -0.23243
 Alpha  occ. eigenvalues --   -0.22923  -0.21884  -0.21324  -0.18429  -0.17962
 Alpha  occ. eigenvalues --   -0.16691   0.03996
 Alpha virt. eigenvalues --    0.05764   0.06643   0.07172   0.08016   0.08696
 Alpha virt. eigenvalues --    0.09230   0.09548   0.10058   0.10450   0.11233
 Alpha virt. eigenvalues --    0.11519   0.11899   0.11962   0.12378   0.13005

  Beta  occ. eigenvalues --  -88.98846 -19.04187 -19.02920 -19.02852 -14.26074
  Beta  occ. eigenvalues --  -14.25887 -14.21403 -10.13217 -10.13141 -10.13023
  Beta  occ. eigenvalues --  -10.12286 -10.12037 -10.11684 -10.11639 -10.09304
  Beta  occ. eigenvalues --  -10.08521  -8.04812  -6.01061  -6.01049  -6.01003
  Beta  occ. eigenvalues --   -1.04047  -0.95525  -0.92167  -0.86137  -0.84634
  Beta  occ. eigenvalues --   -0.81254  -0.75993  -0.70645  -0.67277  -0.60499
  Beta  occ. eigenvalues --   -0.59889  -0.55085  -0.52520  -0.51899  -0.49152
  Beta  occ. eigenvalues --   -0.45086  -0.44229  -0.43797  -0.41477  -0.40910
  Beta  occ. eigenvalues --   -0.40069  -0.39460  -0.39243  -0.37032  -0.36715
  Beta  occ. eigenvalues --   -0.35642  -0.33149  -0.32593  -0.32353  -0.30933
  Beta  occ. eigenvalues --   -0.29883  -0.28860  -0.28620  -0.27066  -0.26888
  Beta  occ. eigenvalues --   -0.25838  -0.24997  -0.24612  -0.23539  -0.23216
  Beta  occ. eigenvalues --   -0.22904  -0.21871  -0.21308  -0.18405  -0.17939
  Beta  occ. eigenvalues --   -0.16667
  Beta virt. eigenvalues --    0.06245   0.06621   0.07510   0.07910   0.08609
  Beta virt. eigenvalues --    0.08910   0.09388   0.09931   0.10573   0.10795
  Beta virt. eigenvalues --    0.11438   0.11773   0.12059   0.12141   0.12584

 Mulliken charges and spin densities:
               1          2
     1  C    0.782567  -1.028139
     2  O   -0.179817   0.062589
     3  C   -0.578709   0.350981
     4  C    0.629977  -1.152948
     5  N   -0.556248   0.355612
     6  C    0.999070  -1.243637
     7  C   -0.912107   1.012569
     8  C    0.527422  -0.916653
     9  N   -0.319581   0.034530
    10  S    0.977448  -0.848457
    11  O   -0.084607   0.012042
    12  O   -0.092674   0.032700
    13  N   -0.405014   0.077892
    14  C    0.077939  -0.181755
    15  C    0.113948  -0.390616
    16  C   -0.522686   0.121788
    17  H   -0.403624   0.554618
    18  H   -0.024369   0.153250
    19  H   -0.426461   0.560669
    20  H    0.207350   0.033432
    21  H   -0.196302   0.354631
    22  H    0.098565   0.123620
    23  H   -0.494918   0.707110
    24  H   -0.081438   0.305073
    25  H   -0.435833   0.653578
    26  H   -0.254394   0.479735
    27  H    0.320383  -0.142191
    28  H   -0.240257   0.609157
    29  H    0.060883   0.135295
    30  H    0.020589   0.112537
    31  H    0.089501   0.052157
    32  H    0.169619  -0.009632
    33  H    0.133779   0.018464
 Sum of Mulliken charges =  -1.00000   1.00000

 Dipole moment (field-independent basis, Debye):
    X=             -4.8342    Y=             -1.3922    Z=             -2.7218  Tot=              5.7198
 Quadrupole moment (field-independent basis, Debye-Ang):
   XX=           -176.3670   YY=           -153.8038   ZZ=           -143.8132
   XY=              0.2471   XZ=             -2.8640   YZ=              2.0374

 Summary of Natural Population Analysis:

                                       Natural Population
                Natural  -----------------------------------------------
    Atom  No    Charge         Core      Valence    Rydberg      Total
 -----------------------------------------------------------------------
      C    1   -0.09723      0.99962     2.08831    0.00930     3.09723
      O    2   -0.30472      0.99989     3.29324    0.01159     4.30472
      C    3   -0.01663      0.99957     2.00508    0.01198     3.01663
      C    4   -0.09590      0.99958     2.08251    0.01382     3.09590
      N    5   -0.37500      0.99973     2.85680    0.01847     3.87500
      C    6   -0.07991      0.99958     2.06619    0.01413     3.07991
      C    7   -0.25982      0.99952     2.25143    0.00888     3.25982
      C    8    0.17323      0.99965     1.81052    0.01659     2.82677
      N    9   -0.19696      0.99978     2.68677    0.01040     3.69696
      S   10    1.16632      4.99925     1.72930    0.10513     6.83368
      O   11   -0.45670      0.99990     3.45158    0.00522     4.45670
      O   12   -0.46107      0.99990     3.45632    0.00485     4.46107
      N   13   -0.42529      0.99973     2.91166    0.01390     3.92529
      C   14   -0.03192      0.99957     2.01842    0.01393     3.03192
      C   15   -0.19765      0.99962     2.19044    0.00759     3.19765
      C   16   -0.19557      0.99960     2.18676    0.00921     3.19557
      H   17    0.09364      0.00000     0.40475    0.00161     0.40636
      H   18    0.07795      0.00000     0.42087    0.00118     0.42205
      H   19    0.08197      0.00000     0.41607    0.00196     0.41803
      H   20    0.08483      0.00000     0.41380    0.00137     0.41517
      H   21    0.08504      0.00000     0.41346    0.00150     0.41496
      H   22    0.11522      0.00000     0.38360    0.00117     0.38478
      H   23    0.10637      0.00000     0.39119    0.00244     0.39363
      H   24    0.10657      0.00000     0.39128    0.00215     0.39343
      H   25    0.11211      0.00000     0.38505    0.00284     0.38789
      H   26    0.12432      0.00000     0.37383    0.00185     0.37568
      H   27    0.13379      0.00000     0.36380    0.00241     0.36621
      H   28    0.20025      0.00000     0.29554    0.00420     0.29975
      H   29    0.09754      0.00000     0.40130    0.00116     0.40246
      H   30    0.10088      0.00000     0.39830    0.00083     0.39912
      H   31    0.10892      0.00000     0.39008    0.00100     0.39108
      H   32    0.12500      0.00000     0.37341    0.00159     0.37500
      H   33    0.10040      0.00000     0.39891    0.00069     0.39960
 =======================================================================
   * Total *   -0.00000     19.99448    45.70057    0.30495    66.00000

 Normal termination of Gaussian 16 at Fri Dec 11 01:00:30 2020.
