 Gaussian 16, Revision A.03,

 -----------------------------------------------------------
 # opt freq B3LYP/6-31G(d) empiricaldispersion=gd3bj scf=xqc
 -----------------------------------------------------------

 ------------------------------
 CID_64618196_JID_9750_neutraal
 ------------------------------
 Symbolic Z-matrix:
 Charge =  0 Multiplicity = 1

 SCF Done:  E(RB3LYP) =  -859.672279883     A.U. after   14 cycles
 SCF Done:  E(RB3LYP) =  -859.682160811     A.U. after   13 cycles
 SCF Done:  E(RB3LYP) =  -859.682069503     A.U. after   13 cycles
 SCF Done:  E(RB3LYP) =  -859.683615982     A.U. after   12 cycles
 SCF Done:  E(RB3LYP) =  -859.683671399     A.U. after   12 cycles
 SCF Done:  E(RB3LYP) =  -859.684627467     A.U. after   12 cycles
 SCF Done:  E(RB3LYP) =  -859.685538832     A.U. after   13 cycles
 SCF Done:  E(RB3LYP) =  -859.686706338     A.U. after   16 cycles
 SCF Done:  E(RB3LYP) =  -859.687558072     A.U. after   13 cycles
 SCF Done:  E(RB3LYP) =  -859.688230688     A.U. after   13 cycles
 SCF Done:  E(RB3LYP) =  -859.688753844     A.U. after    8 cycles
 SCF Done:  E(RB3LYP) =  -859.688754231     A.U. after    8 cycles
 SCF Done:  E(RB3LYP) =  -859.688754471     A.U. after    8 cycles
 SCF Done:  E(RB3LYP) =  -859.688754584     A.U. after    7 cycles
 SCF Done:  E(RB3LYP) =  -859.688754632     A.U. after    6 cycles
 Optimization completed.
    -- Stationary point found.
 Normal termination of Gaussian 16 at Sun Dec 13 16:27:07 2020.

 --------------------------------------------------------------------
 #N Geom=AllCheck Guess=TCheck SCRF=Check GenChk RB3LYP/6-31G(d) Freq
 --------------------------------------------------------------------

 Structure from the checkpoint file:  "JID_9750.chk"
 ------------------------------
 CID_64618196_JID_9750_neutraal
 ------------------------------
 Charge =  0 Multiplicity = 1

 SCF Done:  E(RB3LYP) =  -859.688754632     A.U. after    1 cycles

  Exact polarizability: 261.578  12.761 161.186  -3.147   2.681 108.136
 Approx polarizability: 342.699  36.686 264.890  -4.115   9.793 162.961

                      1                      2                      3
                      A                      A                      A
 Frequencies --     16.7968                37.1470                39.9378
 Red. masses --      4.2566                 5.3447                 5.6868
 Frc consts  --      0.0007                 0.0043                 0.0053
 IR Inten    --      0.5132                 5.0631                 3.2970

                      4                      5                      6
                      A                      A                      A
 Frequencies --     44.6092                70.0250                71.6194
 Red. masses --      4.6947                 3.0156                 4.0753
 Frc consts  --      0.0055                 0.0087                 0.0123
 IR Inten    --      1.5151                 1.0683                 2.0506

                      7                      8                      9
                      A                      A                      A
 Frequencies --     81.3330                98.3802               120.6773
 Red. masses --      4.0371                 3.5355                 4.2671
 Frc consts  --      0.0157                 0.0202                 0.0366
 IR Inten    --      0.8230                 2.1159                 0.5509

                     10                     11                     12
                      A                      A                      A
 Frequencies --    142.8585               185.2699               206.1296
 Red. masses --      3.8389                 3.2720                 2.3648
 Frc consts  --      0.0462                 0.0662                 0.0592
 IR Inten    --      2.1592                15.6115                 0.3383

                     13                     14                     15
                      A                      A                      A
 Frequencies --    223.3069               253.4588               283.4335
 Red. masses --      1.4582                 2.7696                 3.8643
 Frc consts  --      0.0428                 0.1048                 0.1829
 IR Inten    --      0.5583                 6.0037                 1.6037

                     16                     17                     18
                      A                      A                      A
 Frequencies --    321.9497               347.4970               384.9220
 Red. masses --      7.2011                 3.1349                 4.0444
 Frc consts  --      0.4398                 0.2230                 0.3531
 IR Inten    --      3.2171                 0.8274                 2.9325

                     19                     20                     21
                      A                      A                      A
 Frequencies --    396.0694               427.6356               431.2433
 Red. masses --      3.1808                 3.0413                 3.1836
 Frc consts  --      0.2940                 0.3277                 0.3488
 IR Inten    --      2.6956                 6.0603                 0.1914

                     22                     23                     24
                      A                      A                      A
 Frequencies --    482.2817               504.6721               523.9137
 Red. masses --      6.5484                 2.6456                 2.2497
 Frc consts  --      0.8974                 0.3970                 0.3638
 IR Inten    --     19.5398                 2.8950                30.2731

                     25                     26                     27
                      A                      A                      A
 Frequencies --    548.0405               580.8198               604.6495
 Red. masses --      2.0251                 1.6762                 2.2798
 Frc consts  --      0.3584                 0.3332                 0.4911
 IR Inten    --      2.9718                52.3164                61.3238

                     28                     29                     30
                      A                      A                      A
 Frequencies --    643.4371               657.1137               687.9228
 Red. masses --      2.1915                 3.5948                 4.2650
 Frc consts  --      0.5346                 0.9146                 1.1892
 IR Inten    --     49.8589                15.8140                10.1393

                     31                     32                     33
                      A                      A                      A
 Frequencies --    701.2162               723.7775               750.2019
 Red. masses --      3.8967                 4.1483                 4.4280
 Frc consts  --      1.1289                 1.2803                 1.4683
 IR Inten    --     17.6516                13.4640                 4.6573

                     34                     35                     36
                      A                      A                      A
 Frequencies --    793.0505               813.5563               821.9176
 Red. masses --      3.0887                 1.2812                 3.5397
 Frc consts  --      1.1445                 0.4996                 1.4089
 IR Inten    --      5.9755                13.9237                44.4830

                     37                     38                     39
                      A                      A                      A
 Frequencies --    835.2653               846.0688               856.2377
 Red. masses --      1.3163                 1.8232                 1.6271
 Frc consts  --      0.5411                 0.7689                 0.7028
 IR Inten    --      7.0105                32.9686                67.0071

                     40                     41                     42
                      A                      A                      A
 Frequencies --    859.1364               883.0133               905.7652
 Red. masses --      1.4334                 1.6334                 1.7296
 Frc consts  --      0.6234                 0.7504                 0.8360
 IR Inten    --      1.1372                16.9872                 0.8231

                     43                     44                     45
                      A                      A                      A
 Frequencies --    919.0715               935.7563               951.8403
 Red. masses --      3.2842                 3.8937                 1.3187
 Frc consts  --      1.6345                 2.0088                 0.7039
 IR Inten    --      5.9594                 7.2352                 0.1458

                     46                     47                     48
                      A                      A                      A
 Frequencies --    957.4898               972.0449              1000.3609
 Red. masses --      1.3137                 3.1443                 4.3138
 Frc consts  --      0.7096                 1.7504                 2.5435
 IR Inten    --      0.2212                 1.8229                 8.2251

                     49                     50                     51
                      A                      A                      A
 Frequencies --   1011.9626              1040.1626              1053.2245
 Red. masses --      2.4123                 2.5474                 1.9679
 Frc consts  --      1.4555                 1.6239                 1.2862
 IR Inten    --      0.4750                 0.1498                30.6856

                     52                     53                     54
                      A                      A                      A
 Frequencies --   1093.2052              1099.7469              1106.8836
 Red. masses --      1.3386                 1.8773                 1.5626
 Frc consts  --      0.9425                 1.3377                 1.1280
 IR Inten    --      3.5301                10.1291                45.7897

                     55                     56                     57
                      A                      A                      A
 Frequencies --   1107.1611              1151.2096              1162.3489
 Red. masses --      1.5629                 1.3501                 2.5655
 Frc consts  --      1.1288                 1.0542                 2.0422
 IR Inten    --      8.9374                 2.6736                 7.7356

                     58                     59                     60
                      A                      A                      A
 Frequencies --   1214.6365              1218.1073              1253.1178
 Red. masses --      1.2429                 1.2651                 2.1726
 Frc consts  --      1.0804                 1.1060                 2.0101
 IR Inten    --     31.0295                37.6976                33.3049

                     61                     62                     63
                      A                      A                      A
 Frequencies --   1263.3237              1271.4607              1285.8508
 Red. masses --      1.9984                 1.3221                 1.5421
 Frc consts  --      1.8791                 1.2593                 1.5022
 IR Inten    --     63.3068                 7.7849               144.9595

                     64                     65                     66
                      A                      A                      A
 Frequencies --   1292.8202              1317.2661              1322.8059
 Red. masses --      1.4476                 1.5307                 1.3891
 Frc consts  --      1.4255                 1.5649                 1.4321
 IR Inten    --      6.7607                77.1333                77.5362

                     67                     68                     69
                      A                      A                      A
 Frequencies --   1330.3285              1337.3959              1346.6254
 Red. masses --      1.4580                 1.4383                 4.7035
 Frc consts  --      1.5203                 1.5158                 5.0253
 IR Inten    --     66.8054                12.6838                68.0513

                     70                     71                     72
                      A                      A                      A
 Frequencies --   1348.6646              1376.7519              1406.2874
 Red. masses --      1.6832                 1.8334                 2.0395
 Frc consts  --      1.8039                 2.0475                 2.3764
 IR Inten    --      6.1002               174.1009               147.3921

                     73                     74                     75
                      A                      A                      A
 Frequencies --   1414.2841              1429.6046              1434.8109
 Red. masses --      1.1656                 1.6621                 1.2358
 Frc consts  --      1.3736                 2.0014                 1.4990
 IR Inten    --     10.4229                40.6472                20.8367

                     76                     77                     78
                      A                      A                      A
 Frequencies --   1440.5926              1478.5178              1515.9291
 Red. masses --      2.0935                 2.0418                 2.0681
 Frc consts  --      2.5597                 2.6298                 2.8002
 IR Inten    --      0.7175                16.5800                41.8270

                     79                     80                     81
                      A                      A                      A
 Frequencies --   1517.0796              1518.7734              1527.5045
 Red. masses --      1.1143                 1.1108                 1.0542
 Frc consts  --      1.5110                 1.5096                 1.4493
 IR Inten    --     23.5499                18.0124                 1.2907

                     82                     83                     84
                      A                      A                      A
 Frequencies --   1530.7723              1539.6215              1553.9170
 Red. masses --      1.0812                 1.0720                 1.1163
 Frc consts  --      1.4927                 1.4972                 1.5882
 IR Inten    --      0.5396                15.7100                11.0504

                     85                     86                     87
                      A                      A                      A
 Frequencies --   1570.1653              1637.2756              1675.6419
 Red. masses --      2.8060                 5.9755                 5.9638
 Frc consts  --      4.0759                 9.4378                 9.8658
 IR Inten    --    296.3059                 0.7874                 0.2721

                     88                     89                     90
                      A                      A                      A
 Frequencies --   1779.6413              1789.0456              3043.8015
 Red. masses --      7.7649                 8.1122                 1.0563
 Frc consts  --     14.4894                15.2980                 5.7659
 IR Inten    --    715.2418               204.4035                74.6577

                     91                     92                     93
                      A                      A                      A
 Frequencies --   3052.1651              3055.1007              3069.9503
 Red. masses --      1.0854                 1.0383                 1.0630
 Frc consts  --      5.9573                 5.7100                 5.9026
 IR Inten    --     10.1981                20.3612                34.9958

                     94                     95                     96
                      A                      A                      A
 Frequencies --   3075.2964              3076.0372              3090.6217
 Red. masses --      1.0664                 1.0643                 1.1089
 Frc consts  --      5.9420                 5.9330                 6.2407
 IR Inten    --     26.8199                10.7988                41.1886

                     97                     98                     99
                      A                      A                      A
 Frequencies --   3118.5008              3126.2160              3130.9793
 Red. masses --      1.0967                 1.0998                 1.1021
 Frc consts  --      6.2839                 6.3332                 6.3657
 IR Inten    --     28.9529                18.5655                19.9401

                    100                    101                    102
                      A                      A                      A
 Frequencies --   3137.9747              3149.6544              3193.9351
 Red. masses --      1.1053                 1.1022                 1.0896
 Frc consts  --      6.4126                 6.4424                 6.5486
 IR Inten    --     14.3844                26.5273                14.0583

                    103                    104                    105
                      A                      A                      A
 Frequencies --   3197.0283              3225.8693              3249.2039
 Red. masses --      1.0904                 1.0928                 1.0913
 Frc consts  --      6.5664                 6.7001                 6.7882
 IR Inten    --      4.6879                 6.5815                 2.3625

                    106                    107                    108
                      A                      A                      A
 Frequencies --   3477.9778              3571.8984              3575.0973
 Red. masses --      1.0753                 1.0752                 1.0753
 Frc consts  --      7.6638                 8.0823                 8.0975
 IR Inten    --      3.0184                26.6842                25.0330

 - Thermochemistry -
 -------------------
 Temperature   298.150 Kelvin.  Pressure   1.00000 Atm.
 Atom     1 has atomic number  6 and mass  12.00000

 Molecular mass:   261.14773 amu.
 Principal axes and moments of inertia in atomic units:
                           1         2         3
     Eigenvalues --  1893.95242********************
           X            0.99985  -0.01729  -0.00013
           Y            0.01729   0.99985  -0.00308
           Z            0.00019   0.00308   1.00000
 This molecule is an asymmetric top.
 Rotational symmetry number  1.
 Warning -- assumption of classical behavior for rotation
           may cause significant error
 Rotational temperatures (Kelvin)      0.04573     0.00677     0.00625
 Rotational constants (GHZ):           0.95290     0.14098     0.13032
 Zero-point vibrational energy     845309.8 (Joules/Mol)
                                  202.03388 (Kcal/Mol)
 Warning -- explicit consideration of  27 degrees of freedom as
           vibrations may cause significant error
 Vibrational temperatures:     24.17    53.45    57.46    64.18   100.75
          (Kelvin)            103.04   117.02   141.55   173.63   205.54
                              266.56   296.57   321.29   364.67   407.80
                              463.21   499.97   553.82   569.86   615.27
                              620.46   693.90   726.11   753.79   788.51
                              835.67   869.96   925.76   945.44   989.77
                             1008.89  1041.35  1079.37  1141.02  1170.53
                             1182.56  1201.76  1217.30  1231.94  1236.11
                             1270.46  1303.19  1322.34  1346.34  1369.49
                             1377.61  1398.56  1439.30  1455.99  1496.56
                             1515.36  1572.88  1582.29  1592.56  1592.96
                             1656.33  1672.36  1747.59  1752.58  1802.96
                             1817.64  1829.35  1850.05  1860.08  1895.25
                             1903.22  1914.05  1924.21  1937.49  1940.43
                             1980.84  2023.33  2034.84  2056.88  2064.37
                             2072.69  2127.26  2181.08  2182.74  2185.18
                             2197.74  2202.44  2215.17  2235.74  2259.12
                             2355.67  2410.87  2560.51  2574.04  4379.35
                             4391.38  4395.61  4416.97  4424.67  4425.73
                             4446.72  4486.83  4497.93  4504.78  4514.85
                             4531.65  4595.36  4599.81  4641.31  4674.88
                             5004.03  5139.17  5143.77

 Zero-point correction=                           0.321961 (Hartree/Particle)
 Thermal correction to Energy=                    0.340471
 Thermal correction to Enthalpy=                  0.341415
 Thermal correction to Gibbs Free Energy=         0.272356
 Sum of electronic and zero-point Energies=           -859.366793
 Sum of electronic and thermal Energies=              -859.348283
 Sum of electronic and thermal Enthalpies=            -859.347339
 Sum of electronic and thermal Free Energies=         -859.416398

                     E (Thermal)             CV                S
                      KCal/Mol        Cal/Mol-Kelvin    Cal/Mol-Kelvin
 Total                  213.649             69.304            145.347
 Electronic               0.000              0.000              0.000
 Translational            0.889              2.981             42.579
 Rotational               0.889              2.981             34.173
 Vibrational            211.871             63.342             68.595
 Vibration     1          0.593              1.986              6.981
 Vibration     2          0.594              1.982              5.406
 Vibration     3          0.594              1.981              5.262
 Vibration     4          0.595              1.980              5.043
 Vibration     5          0.598              1.968              4.153
 Vibration     6          0.598              1.968              4.108
 Vibration     7          0.600              1.962              3.858
 Vibration     8          0.604              1.950              3.486
 Vibration     9          0.609              1.932              3.089
 Vibration    10          0.616              1.910              2.765
 Vibration    11          0.631              1.860              2.275
 Vibration    12          0.641              1.831              2.078
 Vibration    13          0.649              1.806              1.932
 Vibration    14          0.665              1.757              1.706
 Vibration    15          0.682              1.704              1.513
 Vibration    16          0.707              1.631              1.300
 Vibration    17          0.725              1.580              1.178
 Vibration    18          0.754              1.502              1.020
 Vibration    19          0.763              1.479              0.977
 Vibration    20          0.789              1.410              0.866
 Vibration    21          0.792              1.402              0.855
 Vibration    22          0.839              1.289              0.704
 Vibration    23          0.860              1.240              0.647
 Vibration    24          0.879              1.197              0.601
 Vibration    25          0.903              1.144              0.548
 Vibration    26          0.938              1.073              0.484
 Vibration    27          0.963              1.022              0.442

                           ! Non-Optimized Parameters !
 Normal termination of Gaussian 16 at Sun Dec 13 16:45:08 2020.

 ----------------------------------------------------------------------
 # B3LYP/6-311++G(d,p) empiricaldispersion=gd3bj scf=xqc pop=npa geom=c
 heck
 ----------------------------------------------------------------------

 --------------------------------------
 CID_64618196_JID_9750_Energie_neutraal
 --------------------------------------
 Structure from the checkpoint file:  "JID_9750.chk"
 Charge =  0 Multiplicity = 1

 SCF Done:  E(RB3LYP) =  -859.937036581     A.U. after   16 cycles
 Normal termination of Gaussian 16 at Sun Dec 13 16:54:11 2020.

 ----------------------------------------------------------------------
 # B3LYP/6-311++G(d,p) empiricaldispersion=gd3bj scf=xqc pop=npa geom=c
 heck
 ----------------------------------------------------------------------

 ------------------------------------
 CID_64618196_JID_9750_Energie_kation
 ------------------------------------
 Structure from the checkpoint file:  "JID_9750.chk"
 Charge =  1 Multiplicity = 2

 SCF Done:  E(UB3LYP) =  -859.649371886     A.U. after   24 cycles
 Normal termination of Gaussian 16 at Sun Dec 13 17:13:40 2020.
 Gaussian 16:  ES64L-G16RevA.03 25-Dec-2016

 ----------------------------------------------------------------------
 # B3LYP/6-311++G(d,p) empiricaldispersion=gd3bj scf=xqc pop=npa geom=c
 heck
 ----------------------------------------------------------------------

 -----------------------------------
 CID_64618196_JID_9750_Energie_anion
 -----------------------------------
 Structure from the checkpoint file:  "JID_9750.chk"
 Charge = -1 Multiplicity = 2

                         Standard orientation:
 ---------------------------------------------------------------------
 Center     Atomic      Atomic             Coordinates (Angstroms)
 Number     Number       Type             X           Y           Z
 ---------------------------------------------------------------------
      1          6           0       -5.557865    1.397555   -0.586640
      2          6           0       -4.606460    0.318109   -1.120664
      3          6           0       -4.564537   -0.882794   -0.188600
      4          8           0       -5.549884   -1.585140   -0.010877
      5          7           0       -3.375667   -1.201445    0.443358
      6          6           0       -2.139840   -0.519408    0.482251
      7          6           0       -0.951533   -1.248020    0.350590
      8          6           0        0.286192   -0.618698    0.433081
      9          6           0        0.364674    0.771154    0.593417
     10          6           0       -0.824672    1.498383    0.735827
     11          6           0       -2.059822    0.860764    0.709630
     12          7           0        1.595659    1.459262    0.681575
     13          6           0        2.736950    1.404879   -0.101078
     14          8           0        3.659751    2.172725    0.138701
     15          6           0        2.803489    0.399245   -1.235259
     16          6           0        3.762670   -0.766128   -0.946273
     17          6           0        5.260941   -0.484373   -0.672708
     18          7           0        5.268964   -1.466692    0.463105
     19          6           0        3.774364   -1.484912    0.429549
     20          1           0       -5.188895    1.833268    0.349427
     21          1           0       -6.540950    0.961439   -0.389130
     22          1           0       -5.671785    2.207588   -1.313745
     23          1           0       -4.997399   -0.064801   -2.069910
     24          1           0       -3.612426    0.727143   -1.314386
     25          1           0       -3.430648   -2.088449    0.931741
     26          1           0       -1.000468   -2.322049    0.195035
     27          1           0        1.190540   -1.211019    0.379109
     28          1           0       -0.776740    2.573824    0.882663
     29          1           0       -2.965618    1.433865    0.872410
     30          1           0        1.628428    2.244635    1.322639
     31          1           0        1.811387    0.022562   -1.495785
     32          1           0        3.184323    0.951484   -2.101780
     33          1           0        3.658256   -1.501820   -1.752613
     34          1           0        5.962153   -0.699111   -1.486622
     35          1           0        5.438046    0.528232   -0.302336
     36          1           0        5.617757   -2.363039    0.125563
     37          1           0        3.374194   -0.869676    1.244589
     38          1           0        3.310913   -2.477168    0.485531
 ---------------------------------------------------------------------

 SCF Done:  E(UB3LYP) =  -859.938495982     A.U. after   33 cycles
 SCF Done:  E(UB3LYP) =  -859.938495981     a.u. after    1 cycles

 The electronic state is 2-A.
 Alpha  occ. eigenvalues --  -18.98753 -18.98579 -14.24544 -14.24531 -14.20158
 Alpha  occ. eigenvalues --  -10.17152 -10.17003 -10.10837 -10.10658 -10.09911
 Alpha  occ. eigenvalues --  -10.09378 -10.08853 -10.08812 -10.08335 -10.08259
 Alpha  occ. eigenvalues --  -10.08015 -10.07830 -10.07561 -10.07352  -0.94194
 Alpha  occ. eigenvalues --   -0.94064  -0.83778  -0.83252  -0.83133  -0.74259
 Alpha  occ. eigenvalues --   -0.69092  -0.68290  -0.65519  -0.64137  -0.58685
 Alpha  occ. eigenvalues --   -0.58053  -0.56980  -0.53736  -0.52508  -0.49264
 Alpha  occ. eigenvalues --   -0.47147  -0.46018  -0.43878  -0.43189  -0.41616
 Alpha  occ. eigenvalues --   -0.39637  -0.38235  -0.37401  -0.36687  -0.35945
 Alpha  occ. eigenvalues --   -0.34829  -0.33538  -0.33359  -0.32694  -0.32483
 Alpha  occ. eigenvalues --   -0.32047  -0.30283  -0.29993  -0.29956  -0.28768
 Alpha  occ. eigenvalues --   -0.28224  -0.27852  -0.27436  -0.27228  -0.26064
 Alpha  occ. eigenvalues --   -0.25400  -0.24129  -0.21880  -0.21218  -0.17301
 Alpha  occ. eigenvalues --   -0.16477  -0.16217  -0.16089  -0.13272  -0.11880
 Alpha  occ. eigenvalues --    0.03619
 Alpha virt. eigenvalues --    0.05474   0.06290   0.07250   0.07412   0.07738
 Alpha virt. eigenvalues --    0.07829   0.08690   0.08802   0.09864   0.10177
 Alpha virt. eigenvalues --    0.10382   0.10700   0.10954   0.11162   0.11954

  Beta  occ. eigenvalues --  -18.98657 -18.98475 -14.24591 -14.24579 -14.20148
  Beta  occ. eigenvalues --  -10.17050 -10.16897 -10.10633 -10.10447 -10.09895
  Beta  occ. eigenvalues --  -10.09371 -10.08834 -10.08816 -10.08318 -10.08264
  Beta  occ. eigenvalues --  -10.08042 -10.07858 -10.07488 -10.07268  -0.94021
  Beta  occ. eigenvalues --   -0.93882  -0.83635  -0.83227  -0.83020  -0.74118
  Beta  occ. eigenvalues --   -0.69043  -0.68229  -0.65374  -0.63854  -0.58607
  Beta  occ. eigenvalues --   -0.58018  -0.56881  -0.53562  -0.52302  -0.49152
  Beta  occ. eigenvalues --   -0.47045  -0.45932  -0.43778  -0.43092  -0.41555
  Beta  occ. eigenvalues --   -0.39544  -0.38121  -0.37238  -0.36600  -0.35809
  Beta  occ. eigenvalues --   -0.34727  -0.33455  -0.33243  -0.32628  -0.32329
  Beta  occ. eigenvalues --   -0.31927  -0.30181  -0.29917  -0.29742  -0.28577
  Beta  occ. eigenvalues --   -0.28143  -0.27714  -0.27343  -0.27093  -0.25843
  Beta  occ. eigenvalues --   -0.25210  -0.24078  -0.21809  -0.20636  -0.17124
  Beta  occ. eigenvalues --   -0.16214  -0.16049  -0.15942  -0.13247  -0.11262
  Beta virt. eigenvalues --    0.05919   0.06164   0.07354   0.07602   0.07635
  Beta virt. eigenvalues --    0.07904   0.08119   0.08727   0.09086   0.09943
  Beta virt. eigenvalues --    0.10178   0.10548   0.11118   0.11144   0.11508

 Mulliken charges and spin densities:
               1          2
     1  C   -0.223016  -0.261682
     2  C   -0.135849   0.037171
     3  C   -0.029307  -0.015591
     4  O   -0.366326   0.042384
     5  N   -0.155625  -0.023745
     6  C    0.233354  -0.356732
     7  C   -0.600551   0.500128
     8  C    0.098726  -0.089407
     9  C    0.112920  -0.290795
    10  C   -0.525679   0.464503
    11  C    0.228351  -0.263781
    12  N   -0.157752  -0.006997
    13  C    0.091293  -0.189233
    14  O   -0.344733   0.045179
    15  C   -0.164631   0.077026
    16  C   -0.111758   0.052476
    17  C   -0.027295  -0.413010
    18  N   -0.163049   0.067705
    19  C    0.016259  -0.599328
    20  H    0.028834   0.097104
    21  H    0.165249  -0.002736
    22  H    0.039131   0.088266
    23  H    0.060407   0.124627
    24  H    0.199891  -0.035229
    25  H    0.185570   0.108298
    26  H   -0.243544   0.420574
    27  H    0.398903  -0.271389
    28  H   -0.044751   0.201425
    29  H    0.035298   0.099958
    30  H    0.227085   0.061773
    31  H    0.163371  -0.015637
    32  H    0.063780   0.124344
    33  H   -0.282981   0.477972
    34  H   -0.060977   0.184042
    35  H    0.248814  -0.024379
    36  H    0.108284   0.121267
    37  H    0.145230   0.095285
    38  H   -0.212930   0.368163
 Sum of Mulliken charges =  -1.00000   1.00000

 Dipole moment (field-independent basis, Debye):
    X=             -1.4346    Y=              2.4115    Z=             -1.2749  Tot=              3.0819
 Quadrupole moment (field-independent basis, Debye-Ang):
   XX=           -237.1642   YY=           -150.7199   ZZ=           -134.9352
   XY=            -13.6990   XZ=             -1.8581   YZ=             -1.1311

 Summary of Natural Population Analysis:

                                       Natural Population
                Natural  -----------------------------------------------
    Atom  No    Charge         Core      Valence    Rydberg      Total
 -----------------------------------------------------------------------
      C    1   -0.28109      0.99966     2.27720    0.00423     3.28109
      C    2   -0.23613      0.99960     2.22948    0.00706     3.23613
      C    3    0.35823      0.99968     1.61980    0.02229     2.64177
      O    4   -0.32088      0.99988     3.31496    0.00604     4.32088
      N    5   -0.31799      0.99965     2.80872    0.00963     3.81799
      C    6    0.09576      0.99946     1.89440    0.01038     2.90424
      C    7   -0.08999      0.99953     2.08121    0.00925     3.08999
      C    8   -0.11575      0.99953     2.10790    0.00832     3.11575
      C    9    0.09764      0.99946     1.89279    0.01011     2.90236
      C   10   -0.09596      0.99953     2.08730    0.00912     3.09596
      C   11   -0.11529      0.99953     2.10717    0.00860     3.11529
      N   12   -0.31788      0.99964     2.80906    0.00917     3.81788
      C   13    0.35976      0.99967     1.61802    0.02255     2.64024
      O   14   -0.31746      0.99988     3.31212    0.00546     4.31746
      C   15   -0.23947      0.99957     2.23138    0.00853     3.23947
      C   16   -0.11739      0.99960     2.10629    0.01150     3.11739
      C   17   -0.08810      0.99963     2.07700    0.01147     3.08810
      N   18   -0.34055      0.99978     2.82818    0.01259     3.84055
      C   19   -0.08996      0.99964     2.07929    0.01103     3.08996
      H   20    0.09544      0.00000     0.40358    0.00098     0.40456
      H   21    0.10399      0.00000     0.39474    0.00126     0.39601
      H   22    0.09566      0.00000     0.40317    0.00118     0.40434
      H   23    0.10803      0.00000     0.39072    0.00125     0.39197
      H   24    0.10687      0.00000     0.39195    0.00118     0.39313
      H   25    0.19731      0.00000     0.29960    0.00309     0.30269
      H   26    0.10086      0.00000     0.39809    0.00105     0.39914
      H   27    0.10397      0.00000     0.39414    0.00189     0.39603
      H   28    0.09865      0.00000     0.40043    0.00092     0.40135
      H   29    0.10056      0.00000     0.39754    0.00191     0.39944
      H   30    0.19544      0.00000     0.30163    0.00294     0.30456
      H   31    0.11054      0.00000     0.38831    0.00115     0.38946
      H   32    0.11229      0.00000     0.38678    0.00093     0.38771
      H   33    0.09960      0.00000     0.39833    0.00207     0.40040
      H   34    0.08688      0.00000     0.41207    0.00104     0.41312
      H   35    0.10366      0.00000     0.39489    0.00145     0.39634
      H   36    0.16777      0.00000     0.32981    0.00242     0.33223
      H   37    0.09271      0.00000     0.40560    0.00169     0.40729
      H   38    0.09229      0.00000     0.40617    0.00154     0.40771
 =======================================================================
   * Total *    0.00000     18.99292    50.77982    0.22726    70.00000

 Normal termination of Gaussian 16 at Sun Dec 13 17:41:06 2020.
