 Gaussian 16, Revision A.03,

 -----------------------------------------------------------
 # opt freq B3LYP/6-31G(d) empiricaldispersion=gd3bj scf=xqc
 -----------------------------------------------------------

 ------------------------------
 CID_105207175_JID_701_neutraal
 ------------------------------
 Symbolic Z-matrix:
 Charge =  0 Multiplicity = 1

 SCF Done:  E(RB3LYP) =  -459.782460243     A.U. after   14 cycles
 SCF Done:  E(RB3LYP) =  -459.806625111     A.U. after   13 cycles
 SCF Done:  E(RB3LYP) =  -459.808835180     A.U. after   12 cycles
 SCF Done:  E(RB3LYP) =  -459.803863137     A.U. after   14 cycles
 SCF Done:  E(RB3LYP) =  -459.809150756     A.U. after   11 cycles
 SCF Done:  E(RB3LYP) =  -459.808438244     A.U. after   12 cycles
 SCF Done:  E(RB3LYP) =  -459.809118708     A.U. after   10 cycles
 SCF Done:  E(RB3LYP) =  -459.809241896     A.U. after    8 cycles
 SCF Done:  E(RB3LYP) =  -459.809267761     A.U. after    9 cycles
 SCF Done:  E(RB3LYP) =  -459.809281247     A.U. after   10 cycles
 SCF Done:  E(RB3LYP) =  -459.813012820     A.U. after   11 cycles
 SCF Done:  E(RB3LYP) =  -459.813016276     A.U. after    9 cycles
 SCF Done:  E(RB3LYP) =  -459.813027031     A.U. after   10 cycles
 SCF Done:  E(RB3LYP) =  -459.813029347     A.U. after   10 cycles
 SCF Done:  E(RB3LYP) =  -459.813029371     A.U. after    7 cycles
 SCF Done:  E(RB3LYP) =  -459.813029368     A.U. after    7 cycles
 Optimization completed.
    -- Stationary point found.
 Normal termination of Gaussian 16 at Tue Dec  8 13:32:07 2020.

 --------------------------------------------------------------------
 #N Geom=AllCheck Guess=TCheck SCRF=Check GenChk RB3LYP/6-31G(d) Freq
 --------------------------------------------------------------------

 Structure from the checkpoint file:  "JID_701.chk"
 ------------------------------
 CID_105207175_JID_701_neutraal
 ------------------------------
 Charge =  0 Multiplicity = 1

 SCF Done:  E(RB3LYP) =  -459.813029368     A.U. after    1 cycles

  Exact polarizability: 120.216  -8.069  81.721   5.780  -1.731  70.830
 Approx polarizability: 153.840 -15.797 107.067  14.768  -4.899 105.572

                      1                      2                      3
                      A                      A                      A
 Frequencies --     17.2180                36.6235                62.3914
 Red. masses --      1.0152                 3.6263                 3.5160
 Frc consts  --      0.0002                 0.0029                 0.0081
 IR Inten    --      0.0089                 0.0830                 3.6500

                      4                      5                      6
                      A                      A                      A
 Frequencies --     83.7030                86.4587               140.7166
 Red. masses --      2.8025                 2.9501                 2.6695
 Frc consts  --      0.0116                 0.0130                 0.0311
 IR Inten    --      2.4503                 5.7942                 3.0500

                      7                      8                      9
                      A                      A                      A
 Frequencies --    195.5398               217.9693               235.8802
 Red. masses --      3.0075                 1.8993                 3.1005
 Frc consts  --      0.0678                 0.0532                 0.1016
 IR Inten    --      6.4472                 7.3662                 2.5018

                     10                     11                     12
                      A                      A                      A
 Frequencies --    236.9589               291.8439               332.0072
 Red. masses --      1.6725                 3.3236                 1.1472
 Frc consts  --      0.0553                 0.1668                 0.0745
 IR Inten    --      3.1247                 9.4777                57.2185

                     13                     14                     15
                      A                      A                      A
 Frequencies --    352.2177               379.8754               388.8111
 Red. masses --      2.4516                 3.8711                 3.4405
 Frc consts  --      0.1792                 0.3291                 0.3064
 IR Inten    --      4.1199                 0.3736                 2.7708

                     16                     17                     18
                      A                      A                      A
 Frequencies --    431.7507               562.3460               629.3698
 Red. masses --      5.4487                 3.2352                 2.7256
 Frc consts  --      0.5984                 0.6028                 0.6361
 IR Inten    --      3.3210                15.7080                 6.1984

                     19                     20                     21
                      A                      A                      A
 Frequencies --    778.1183               826.9450               862.9206
 Red. masses --      3.9993                 2.2657                 2.2906
 Frc consts  --      1.4267                 0.9129                 1.0050
 IR Inten    --      6.5425                41.5112                12.1649

                     22                     23                     24
                      A                      A                      A
 Frequencies --    923.4462               952.9388               987.5075
 Red. masses --      1.8927                 2.1075                 1.9678
 Frc consts  --      0.9509                 1.1276                 1.1306
 IR Inten    --     16.1961                47.6962                27.1764

                     25                     26                     27
                      A                      A                      A
 Frequencies --   1065.8256              1071.5165              1077.5100
 Red. masses --      1.6464                 1.3885                 1.7665
 Frc consts  --      1.1019                 0.9393                 1.2084
 IR Inten    --     20.9146                 2.1607                44.1396

                     28                     29                     30
                      A                      A                      A
 Frequencies --   1122.3723              1135.4317              1165.7488
 Red. masses --      1.7983                 2.2621                 4.0291
 Frc consts  --      1.3347                 1.7183                 3.2261
 IR Inten    --      7.0755                 7.6089               132.2216

                     31                     32                     33
                      A                      A                      A
 Frequencies --   1179.5628              1193.2512              1213.3506
 Red. masses --      3.1015                 1.2811                 2.4685
 Frc consts  --      2.5425                 1.0747                 2.1412
 IR Inten    --      2.0001                 1.9462                27.4626

                     34                     35                     36
                      A                      A                      A
 Frequencies --   1224.4945              1251.8595              1281.0051
 Red. masses --      1.4246                 1.4654                 1.1052
 Frc consts  --      1.2585                 1.3530                 1.0685
 IR Inten    --      7.1341                21.4536                15.4352

                     37                     38                     39
                      A                      A                      A
 Frequencies --   1308.9185              1332.1034              1386.8729
 Red. masses --      1.3073                 1.2098                 1.4831
 Frc consts  --      1.3196                 1.2649                 1.6807
 IR Inten    --     14.7271                 4.8174                 5.9335

                     40                     41                     42
                      A                      A                      A
 Frequencies --   1389.9089              1420.9828              1445.3632
 Red. masses --      1.5151                 1.3598                 1.2470
 Frc consts  --      1.7245                 1.6177                 1.5348
 IR Inten    --      8.8123                10.9180                 7.5301

                     43                     44                     45
                      A                      A                      A
 Frequencies --   1501.7805              1506.9226              1509.9119
 Red. masses --      1.1463                 1.0967                 1.0405
 Frc consts  --      1.5232                 1.4673                 1.3976
 IR Inten    --      8.5894                 3.5449                 5.8247

                     46                     47                     48
                      A                      A                      A
 Frequencies --   1510.4072              1514.5854              1532.4115
 Red. masses --      1.0406                 1.0479                 1.0567
 Frc consts  --      1.3987                 1.4164                 1.4620
 IR Inten    --      5.5224                 4.9020                16.5058

                     49                     50                     51
                      A                      A                      A
 Frequencies --   1542.0306              1558.2578              1702.9806
 Red. masses --      1.1424                 1.0887                 1.0808
 Frc consts  --      1.6004                 1.5575                 1.8467
 IR Inten    --      4.9738                 6.6583                11.8171

                     52                     53                     54
                      A                      A                      A
 Frequencies --   2375.2965              2990.5294              3012.3370
 Red. masses --     11.8056                 1.0379                 1.0545
 Frc consts  --     39.2441                 5.4691                 5.6377
 IR Inten    --      0.0226                56.5902                45.1897

                     55                     56                     57
                      A                      A                      A
 Frequencies --   3036.3487              3037.2978              3039.2101
 Red. masses --      1.0347                 1.1034                 1.0609
 Frc consts  --      5.6202                 5.9976                 5.7737
 IR Inten    --     44.5621                74.2781                15.3673

                     58                     59                     60
                      A                      A                      A
 Frequencies --   3048.4304              3078.9385              3095.5794
 Red. masses --      1.1081                 1.0965                 1.0967
 Frc consts  --      6.0672                 6.1242                 6.1917
 IR Inten    --     32.1715                 7.4969                 1.9818

                     61                     62                     63
                      A                      A                      A
 Frequencies --   3095.8075              3096.6263              3131.6454
 Red. masses --      1.0940                 1.1011                 1.0973
 Frc consts  --      6.1776                 6.2207                 6.3406
 IR Inten    --     42.9875                13.9849                35.1898

                     64                     65                     66
                      A                      A                      A
 Frequencies --   3409.0663              3428.7072              3541.1332
 Red. masses --      1.0580                 1.0686                 1.0893
 Frc consts  --      7.2446                 7.4018                 8.0482
 IR Inten    --     16.7561                 2.1494                 0.3029

 - Thermochemistry -
 -------------------
 Temperature   298.150 Kelvin.  Pressure   1.00000 Atm.
 Atom     1 has atomic number  6 and mass  12.00000

 Molecular mass:   142.11061 amu.
 Principal axes and moments of inertia in atomic units:
                           1         2         3
     Eigenvalues --  1032.388332625.105243333.29273
           X            0.99998   0.00018   0.00559
           Y           -0.00011   0.99993  -0.01195
           Z           -0.00559   0.01195   0.99991
 This molecule is an asymmetric top.
 Rotational symmetry number  1.
 Warning -- assumption of classical behavior for rotation
           may cause significant error
 Rotational temperatures (Kelvin)      0.08390     0.03299     0.02598
 Rotational constants (GHZ):           1.74812     0.68749     0.54143
 Zero-point vibrational energy     553726.7 (Joules/Mol)
                                  132.34386 (Kcal/Mol)
 Warning -- explicit consideration of  17 degrees of freedom as
           vibrations may cause significant error
 Vibrational temperatures:     24.77    52.69    89.77   120.43   124.39
          (Kelvin)            202.46   281.34   313.61   339.38   340.93
                              419.90   477.68   506.76   546.56   559.41
                              621.19   809.09   905.52  1119.54  1189.79
                             1241.55  1328.63  1371.07  1420.80  1533.49
                             1541.67  1550.30  1614.84  1633.63  1677.25
                             1697.13  1716.82  1745.74  1761.77  1801.15
                             1843.08  1883.24  1916.60  1995.40  1999.77
                             2044.48  2079.56  2160.73  2168.13  2172.43
                             2173.14  2179.15  2204.80  2218.64  2241.99
                             2450.21  3417.52  4302.70  4334.08  4368.63
                             4369.99  4372.75  4386.01  4429.91  4453.85
                             4454.18  4455.35  4505.74  4904.89  4933.14
                             5094.90

 Zero-point correction=                           0.210903 (Hartree/Particle)
 Thermal correction to Energy=                    0.223717
 Thermal correction to Enthalpy=                  0.224661
 Thermal correction to Gibbs Free Energy=         0.169716
 Sum of electronic and zero-point Energies=           -459.602126
 Sum of electronic and thermal Energies=              -459.589312
 Sum of electronic and thermal Enthalpies=            -459.588368
 Sum of electronic and thermal Free Energies=         -459.643314

                     E (Thermal)             CV                S
                      KCal/Mol        Cal/Mol-Kelvin    Cal/Mol-Kelvin
 Total                  140.385             43.548            115.643
 Electronic               0.000              0.000              0.000
 Translational            0.889              2.981             40.766
 Rotational               0.889              2.981             30.580
 Vibrational            138.607             37.587             44.297
 Vibration     1          0.593              1.986              6.932
 Vibration     2          0.594              1.982              5.434
 Vibration     3          0.597              1.972              4.380
 Vibration     4          0.601              1.960              3.802
 Vibration     5          0.601              1.959              3.739
 Vibration     6          0.615              1.913              2.794
 Vibration     7          0.636              1.846              2.175
 Vibration     8          0.646              1.814              1.976
 Vibration     9          0.655              1.786              1.834
 Vibration    10          0.656              1.784              1.826
 Vibration    11          0.687              1.689              1.463
 Vibration    12          0.714              1.612              1.250
 Vibration    13          0.729              1.571              1.156
 Vibration    14          0.750              1.513              1.040
 Vibration    15          0.757              1.494              1.005
 Vibration    16          0.793              1.401              0.853
 Vibration    17          0.918              1.113              0.519

 Optimization completed.
    -- Stationary point found.
 Normal termination of Gaussian 16 at Tue Dec  8 13:38:20 2020.

 ----------------------------------------------------------------------
 # B3LYP/6-311++G(d,p) empiricaldispersion=gd3bj scf=xqc pop=npa geom=c
 heck
 ----------------------------------------------------------------------

 --------------------------------------
 CID_105207175_JID_701_Energie_neutraal
 --------------------------------------
 Structure from the checkpoint file:  "JID_701.chk"
 Charge =  0 Multiplicity = 1

 SCF Done:  E(RB3LYP) =  -459.961181412     A.U. after   14 cycles
 Normal termination of Gaussian 16 at Tue Dec  8 13:42:08 2020.

 ----------------------------------------------------------------------
 # B3LYP/6-311++G(d,p) empiricaldispersion=gd3bj scf=xqc pop=npa geom=c
 heck
 ----------------------------------------------------------------------

 ------------------------------------
 CID_105207175_JID_701_Energie_kation
 ------------------------------------
 Structure from the checkpoint file:  "JID_701.chk"
 Charge =  1 Multiplicity = 2

 SCF Done:  E(UB3LYP) =  -459.649124683     A.U. after   30 cycles
 Normal termination of Gaussian 16 at Tue Dec  8 13:51:19 2020.
 Gaussian 16:  ES64L-G16RevA.03 25-Dec-2016

 ----------------------------------------------------------------------
 # B3LYP/6-311++G(d,p) empiricaldispersion=gd3bj scf=xqc pop=npa geom=c
 heck
 ----------------------------------------------------------------------

 -----------------------------------
 CID_105207175_JID_701_Energie_anion
 -----------------------------------
 Structure from the checkpoint file:  "JID_701.chk"
 Charge = -1 Multiplicity = 2

                         Standard orientation:
 ---------------------------------------------------------------------
 Center     Atomic      Atomic             Coordinates (Angstroms)
 Number     Number       Type             X           Y           Z
 ---------------------------------------------------------------------
      1          6           0       -4.284719    0.205204   -0.448262
      2          6           0       -2.967447   -0.213468    0.023491
      3          6           0       -1.883261   -0.568915    0.424474
      4          6           0       -0.558244   -0.987204    0.877065
      5          6           0        0.522482   -0.854287   -0.217555
      6          6           0        0.710173    0.601228   -0.654083
      7          8           0        1.308269    1.301643    0.430030
      8          6           0        1.448558    2.681347    0.176025
      9          7           0        1.749503   -1.462460    0.303538
     10          7           0        2.794313   -1.389401   -0.678513
     11          1           0       -4.530241    1.217887   -0.105494
     12          1           0       -5.070560   -0.467188   -0.082861
     13          1           0       -4.334552    0.205512   -1.544046
     14          1           0       -0.255797   -0.382342    1.742701
     15          1           0       -0.576214   -2.032479    1.208166
     16          1           0        0.219189   -1.432775   -1.096075
     17          1           0        1.363385    0.646925   -1.538356
     18          1           0       -0.259972    1.047878   -0.917780
     19          1           0        2.076094    2.869801   -0.710147
     20          1           0        0.472106    3.164407    0.015205
     21          1           0        1.926746    3.127773    1.052172
     22          1           0        2.015230   -0.927944    1.133481
     23          1           0        3.320034   -0.517966   -0.578413
     24          1           0        3.436429   -2.153035   -0.480901
 ---------------------------------------------------------------------

 SCF Done:  E(UB3LYP) =  -459.946053280     A.U. after   31 cycles

 The electronic state is 2-A.
 Alpha  occ. eigenvalues --  -19.02605 -14.22157 -14.21737 -10.10773 -10.10701
 Alpha  occ. eigenvalues --  -10.10017 -10.08833 -10.08530 -10.06146 -10.05778
 Alpha  occ. eigenvalues --   -0.93867  -0.86096  -0.72242  -0.67696  -0.63835
 Alpha  occ. eigenvalues --   -0.62239  -0.57614  -0.55312  -0.48129  -0.42156
 Alpha  occ. eigenvalues --   -0.39888  -0.39131  -0.38215  -0.36599  -0.36147
 Alpha  occ. eigenvalues --   -0.34660  -0.33055  -0.32593  -0.32138  -0.31041
 Alpha  occ. eigenvalues --   -0.29140  -0.26377  -0.25968  -0.22758  -0.16648
 Alpha  occ. eigenvalues --   -0.16215  -0.15290  -0.15186  -0.14032   0.04507
 Alpha virt. eigenvalues --    0.06072   0.07440   0.08717   0.09423   0.09491
 Alpha virt. eigenvalues --    0.09958   0.10595   0.11451   0.11830   0.12632
 Alpha virt. eigenvalues --    0.12674   0.13506   0.13955   0.14902   0.15265

  Beta  occ. eigenvalues --  -19.02593 -14.22147 -14.21695 -10.10726 -10.10684
  Beta  occ. eigenvalues --  -10.10013 -10.08829 -10.08473 -10.06144 -10.05774
  Beta  occ. eigenvalues --   -0.93852  -0.86058  -0.72204  -0.67649  -0.63777
  Beta  occ. eigenvalues --   -0.62188  -0.57558  -0.55236  -0.48093  -0.42099
  Beta  occ. eigenvalues --   -0.39851  -0.39107  -0.38146  -0.36549  -0.36108
  Beta  occ. eigenvalues --   -0.34622  -0.33014  -0.32538  -0.32092  -0.31011
  Beta  occ. eigenvalues --   -0.29114  -0.26352  -0.25942  -0.22699  -0.16620
  Beta  occ. eigenvalues --   -0.16187  -0.15270  -0.15162  -0.14009
  Beta virt. eigenvalues --    0.06780   0.07263   0.08200   0.09016   0.09644
  Beta virt. eigenvalues --    0.10335   0.10611   0.11047   0.11683   0.12179
  Beta virt. eigenvalues --    0.12752   0.13161   0.13653   0.14322   0.15007

 Mulliken charges and spin densities:
               1          2
     1  C    2.632613  -3.019964
     2  C   -1.786446   1.483013
     3  C    0.607647   0.096762
     4  C   -1.258650   0.307552
     5  C   -0.115666   0.099508
     6  C   -0.114261  -0.583688
     7  O   -0.244039   0.132409
     8  C    1.012840  -1.239104
     9  N   -0.023743   0.012009
    10  N   -0.280456  -0.208124
    11  H   -0.351359   0.510018
    12  H   -0.331456   0.486935
    13  H   -0.316423   0.475924
    14  H    0.121602   0.045716
    15  H    0.078132   0.115213
    16  H    0.070957   0.126216
    17  H   -0.005879   0.180346
    18  H    0.444353  -0.313435
    19  H   -0.437986   0.572925
    20  H   -0.356663   0.492213
    21  H   -0.345831   0.481410
    22  H    0.159390   0.089759
    23  H   -0.130302   0.367050
    24  H   -0.028376   0.289336
 Sum of Mulliken charges =  -1.00000   1.00000

 Dipole moment (field-independent basis, Debye):
    X=              1.1254    Y=             -2.8027    Z=              1.3614  Tot=              3.3129
 Quadrupole moment (field-independent basis, Debye-Ang):
   XX=           -143.7607   YY=           -104.9344   ZZ=            -88.0906
   XY=             -0.4836   XZ=              0.3274   YZ=             -1.5463

 Summary of Natural Population Analysis:

                                       Natural Population
                Natural  -----------------------------------------------
    Atom  No    Charge         Core      Valence    Rydberg      Total
 -----------------------------------------------------------------------
      C    1   -0.31840      0.99962     2.31276    0.00602     3.31840
      C    2   -0.00685      0.99924     2.00147    0.00614     3.00685
      C    3   -0.01670      0.99925     2.00957    0.00788     3.01670
      C    4   -0.23001      0.99955     2.22131    0.00915     3.23001
      C    5   -0.00992      0.99959     1.99623    0.01409     3.00992
      C    6   -0.02199      0.99955     2.01031    0.01213     3.02199
      O    7   -0.30833      0.99988     3.29774    0.01071     4.30833
      C    8   -0.09471      0.99962     2.08561    0.00948     3.09471
      N    9   -0.25634      0.99973     2.74107    0.01555     3.75634
      N   10   -0.33325      0.99977     2.82058    0.01290     3.83325
      H   11    0.11273      0.00000     0.38545    0.00182     0.38727
      H   12    0.11038      0.00000     0.38808    0.00155     0.38962
      H   13    0.11168      0.00000     0.38665    0.00167     0.38832
      H   14    0.11324      0.00000     0.38501    0.00175     0.38676
      H   15    0.11412      0.00000     0.38431    0.00157     0.38588
      H   16    0.09965      0.00000     0.39886    0.00148     0.40035
      H   17    0.08667      0.00000     0.41174    0.00160     0.41333
      H   18    0.09036      0.00000     0.40798    0.00166     0.40964
      H   19    0.07936      0.00000     0.41826    0.00237     0.42064
      H   20    0.07974      0.00000     0.41851    0.00175     0.42026
      H   21    0.09001      0.00000     0.40840    0.00158     0.40999
      H   22    0.16552      0.00000     0.33086    0.00362     0.33448
      H   23    0.16959      0.00000     0.32727    0.00313     0.33041
      H   24    0.17345      0.00000     0.32449    0.00206     0.32655
 =======================================================================
   * Total *    0.00000      9.99580    28.87253    0.13167    39.00000

 Normal termination of Gaussian 16 at Tue Dec  8 14:02:38 2020.
