 Gaussian 16, Revision A.03,

 -----------------------------------------------------------
 # opt freq B3LYP/6-31G(d) empiricaldispersion=gd3bj scf=xqc
 -----------------------------------------------------------

 -------------------------------
 CID_146186454_JID_5479_neutraal
 -------------------------------
 Symbolic Z-matrix:
 Charge =  0 Multiplicity = 1

 SCF Done:  E(RB3LYP) =  -599.695405377     A.U. after   14 cycles
 SCF Done:  E(RB3LYP) =  -599.700130888     A.U. after   12 cycles
 SCF Done:  E(RB3LYP) =  -599.699963373     A.U. after   12 cycles
 SCF Done:  E(RB3LYP) =  -599.700241494     A.U. after   12 cycles
 SCF Done:  E(RB3LYP) =  -599.701023757     A.U. after   12 cycles
 SCF Done:  E(RB3LYP) =  -599.701185369     A.U. after   11 cycles
 SCF Done:  E(RB3LYP) =  -599.701316495     A.U. after   12 cycles
 SCF Done:  E(RB3LYP) =  -599.701411902     A.U. after   11 cycles
 SCF Done:  E(RB3LYP) =  -599.701478538     A.U. after   11 cycles
 SCF Done:  E(RB3LYP) =  -599.701510718     A.U. after   11 cycles
 SCF Done:  E(RB3LYP) =  -599.701559557     A.U. after   10 cycles
 SCF Done:  E(RB3LYP) =  -599.701562186     A.U. after   10 cycles
 SCF Done:  E(RB3LYP) =  -599.701563476     A.U. after   10 cycles
 SCF Done:  E(RB3LYP) =  -599.701563618     A.U. after    8 cycles
 SCF Done:  E(RB3LYP) =  -599.701563645     A.U. after    7 cycles
 Optimization completed.
    -- Stationary point found.
 Normal termination of Gaussian 16 at Thu Dec 10 16:22:31 2020.

 --------------------------------------------------------------------
 #N Geom=AllCheck Guess=TCheck SCRF=Check GenChk RB3LYP/6-31G(d) Freq
 --------------------------------------------------------------------

 Structure from the checkpoint file:  "JID_5479.chk"
 -------------------------------
 CID_146186454_JID_5479_neutraal
 -------------------------------
 Charge =  0 Multiplicity = 1

 SCF Done:  E(RB3LYP) =  -599.701563645     A.U. after    1 cycles

  Exact polarizability: 200.620 -14.043 140.733   9.639   8.056 116.008
 Approx polarizability: 261.812 -27.840 230.700  20.663  17.960 187.279

                      1                      2                      3
                      A                      A                      A
 Frequencies --     15.4284                20.6224                58.0987
 Red. masses --      3.8168                 3.3201                 3.6441
 Frc consts  --      0.0005                 0.0008                 0.0072
 IR Inten    --      1.0685                 0.2324                 0.7197

                      4                      5                      6
                      A                      A                      A
 Frequencies --     75.7501               102.7280               135.5591
 Red. masses --      3.6268                 2.3644                 3.2505
 Frc consts  --      0.0123                 0.0147                 0.0352
 IR Inten    --      0.4121                 0.7866                 4.6198

                      7                      8                      9
                      A                      A                      A
 Frequencies --    161.1078               170.1521               221.2291
 Red. masses --      2.5996                 3.1254                 1.3200
 Frc consts  --      0.0398                 0.0533                 0.0381
 IR Inten    --      0.6792                 1.6584                 0.3611

                     10                     11                     12
                      A                      A                      A
 Frequencies --    228.5853               232.6078               281.4617
 Red. masses --      1.6275                 1.6074                 3.7529
 Frc consts  --      0.0501                 0.0512                 0.1752
 IR Inten    --      0.4798                 0.0038                 0.6904

                     13                     14                     15
                      A                      A                      A
 Frequencies --    340.9646               368.0185               378.8473
 Red. masses --      2.8950                 2.3970                 2.8730
 Frc consts  --      0.1983                 0.1913                 0.2430
 IR Inten    --      0.7457                 0.4626                 1.6723

                     16                     17                     18
                      A                      A                      A
 Frequencies --    420.9219               423.5986               439.5092
 Red. masses --      3.0897                 2.6169                 2.8751
 Frc consts  --      0.3225                 0.2767                 0.3272
 IR Inten    --      1.0853                 0.5783                 3.0567

                     19                     20                     21
                      A                      A                      A
 Frequencies --    486.8715               538.4494               555.0265
 Red. masses --      2.4367                 2.4133                 3.1240
 Frc consts  --      0.3403                 0.4122                 0.5670
 IR Inten    --      6.3427                 2.0029                15.3865

                     22                     23                     24
                      A                      A                      A
 Frequencies --    578.9099               634.7452               676.3754
 Red. masses --      3.7766                 6.2455                 3.7583
 Frc consts  --      0.7457                 1.4826                 1.0130
 IR Inten    --      4.0268                 0.1332                 4.0545

                     25                     26                     27
                      A                      A                      A
 Frequencies --    711.5879               717.5188               728.3680
 Red. masses --      1.8095                 1.5102                 1.2022
 Frc consts  --      0.5399                 0.4581                 0.3758
 IR Inten    --     26.1085                 1.8240                22.7932

                     28                     29                     30
                      A                      A                      A
 Frequencies --    749.0741               777.9532               806.6543
 Red. masses --      2.5357                 1.9134                 1.5883
 Frc consts  --      0.8383                 0.6823                 0.6089
 IR Inten    --      0.1380                30.1198                 1.8370

                     31                     32                     33
                      A                      A                      A
 Frequencies --    813.2506               841.9348               855.3895
 Red. masses --      1.4571                 1.2720                 1.3400
 Frc consts  --      0.5678                 0.5312                 0.5777
 IR Inten    --     10.1429                 7.5299                33.6223

                     34                     35                     36
                      A                      A                      A
 Frequencies --    906.0206               913.1610               921.8917
 Red. masses --      2.0107                 1.5740                 1.5040
 Frc consts  --      0.9725                 0.7733                 0.7531
 IR Inten    --     18.2465                17.3188                22.9828

                     37                     38                     39
                      A                      A                      A
 Frequencies --    950.9535               960.9700               972.1028
 Red. masses --      1.9976                 1.3473                 1.6924
 Frc consts  --      1.0643                 0.7331                 0.9423
 IR Inten    --      5.6596                 0.2241                 3.2008

                     40                     41                     42
                      A                      A                      A
 Frequencies --    984.4980               989.0654              1019.5565
 Red. masses --      1.2724                 1.8027                 5.8842
 Frc consts  --      0.7266                 1.0390                 3.6038
 IR Inten    --      0.3011                 8.2793                 0.5813

                     43                     44                     45
                      A                      A                      A
 Frequencies --   1028.8223              1060.6333              1091.3637
 Red. masses --      2.0395                 2.1882                 1.7320
 Frc consts  --      1.2719                 1.4503                 1.2155
 IR Inten    --      0.3991                 7.6452                 3.5289

                     46                     47                     48
                      A                      A                      A
 Frequencies --   1114.9282              1117.0299              1143.2326
 Red. masses --      1.6085                 1.5515                 2.1178
 Frc consts  --      1.1780                 1.1406                 1.6308
 IR Inten    --      2.6217                 1.1318                46.2781

                     49                     50                     51
                      A                      A                      A
 Frequencies --   1157.1830              1185.9131              1192.8927
 Red. masses --      1.4169                 1.6576                 1.0892
 Frc consts  --      1.1178                 1.3735                 0.9132
 IR Inten    --     12.9001                32.5199                 0.4719

                     52                     53                     54
                      A                      A                      A
 Frequencies --   1216.1116              1234.6524              1283.0060
 Red. masses --      1.1397                 1.5400                 1.8730
 Frc consts  --      0.9931                 1.3831                 1.8166
 IR Inten    --      2.1554                27.6908                 5.5858

                     55                     56                     57
                      A                      A                      A
 Frequencies --   1302.5467              1327.7252              1338.8122
 Red. masses --      2.4552                 1.4882                 1.7396
 Frc consts  --      2.4543                 1.5457                 1.8371
 IR Inten    --     14.3769                16.7801                30.4686

                     58                     59                     60
                      A                      A                      A
 Frequencies --   1348.7139              1373.4828              1375.9349
 Red. masses --      2.0841                 1.8618                 1.5206
 Frc consts  --      2.2336                 2.0693                 1.6961
 IR Inten    --      6.0616                 1.5816                 2.1208

                     61                     62                     63
                      A                      A                      A
 Frequencies --   1392.8173              1433.1328              1463.0013
 Red. masses --      3.5140                 1.2252                 1.2380
 Frc consts  --      4.0164                 1.4826                 1.5612
 IR Inten    --    158.3660                 3.1314                 5.3188

                     64                     65                     66
                      A                      A                      A
 Frequencies --   1475.7533              1492.0132              1503.9191
 Red. masses --      1.1831                 1.1703                 2.0548
 Frc consts  --      1.5181                 1.5350                 2.7382
 IR Inten    --      1.0794                14.6963                 0.3105

                     67                     68                     69
                      A                      A                      A
 Frequencies --   1510.9374              1514.9836              1519.3615
 Red. masses --      1.1290                 1.0816                 1.0571
 Frc consts  --      1.5185                 1.4627                 1.4378
 IR Inten    --     12.4951                 4.8908                19.8390

                     70                     71                     72
                      A                      A                      A
 Frequencies --   1529.5501              1538.2614              1549.4039
 Red. masses --      1.0490                 1.0708                 1.9946
 Frc consts  --      1.4459                 1.4929                 2.8213
 IR Inten    --      8.7882                 1.9549                44.2092

                     73                     74                     75
                      A                      A                      A
 Frequencies --   1550.0169              1640.9440              1663.5409
 Red. masses --      1.1353                 5.5684                 5.4365
 Frc consts  --      1.6070                 8.8342                 8.8642
 IR Inten    --     61.1445                 8.6702                68.9202

                     76                     77                     78
                      A                      A                      A
 Frequencies --   1697.3864              1729.1916              2998.7346
 Red. masses --      4.9556                 5.0883                 1.0596
 Frc consts  --      8.4121                 8.9641                 5.6138
 IR Inten    --     87.9372                 8.6665                59.2444

                     79                     80                     81
                      A                      A                      A
 Frequencies --   3048.5806              3050.6292              3055.5388
 Red. masses --      1.0580                 1.0596                 1.0373
 Frc consts  --      5.7934                 5.8102                 5.7062
 IR Inten    --     27.0079                 1.3587                33.2566

                     82                     83                     84
                      A                      A                      A
 Frequencies --   3088.3164              3090.7177              3119.4359
 Red. masses --      1.1028                 1.1027                 1.0809
 Frc consts  --      6.1969                 6.2062                 6.1973
 IR Inten    --     13.9754                20.0026                25.1942

                     85                     86                     87
                      A                      A                      A
 Frequencies --   3121.4608              3132.9318              3152.3429
 Red. masses --      1.1029                 1.1016                 1.0600
 Frc consts  --      6.3317                 6.3708                 6.2060
 IR Inten    --     33.3757                43.8841                11.4047

                     88                     89                     90
                      A                      A                      A
 Frequencies --   3182.3681              3190.1384              3193.2993
 Red. masses --      1.0850                 1.0894                 1.0965
 Frc consts  --      6.4742                 6.5323                 6.5876
 IR Inten    --      3.4649                17.5858                 7.4826

                     91                     92                     93
                      A                      A                      A
 Frequencies --   3193.8180              3207.3383              3218.6074
 Red. masses --      1.0597                 1.0936                 1.0925
 Frc consts  --      6.3686                 6.6280                 6.6682
 IR Inten    --      1.8554                37.6201                16.6893

                     94                     95                     96
                      A                      A                      A
 Frequencies --   3221.6375              3228.5360              3274.5932
 Red. masses --      1.0943                 1.1157                 1.1164
 Frc consts  --      6.6919                 6.8517                 7.0530
 IR Inten    --      2.1532                20.4006                14.3535

 - Thermochemistry -
 -------------------
 Temperature   298.150 Kelvin.  Pressure   1.00000 Atm.
 Atom     1 has atomic number  6 and mass  12.00000

 Molecular mass:   201.15175 amu.
 Principal axes and moments of inertia in atomic units:
                           1         2         3
     Eigenvalues --  1275.838926104.771676475.15684
           X            0.99999   0.00292  -0.00286
           Y           -0.00291   0.99999   0.00295
           Z            0.00287  -0.00294   0.99999
 This molecule is an asymmetric top.
 Rotational symmetry number  1.
 Warning -- assumption of classical behavior for rotation
           may cause significant error
 Rotational temperatures (Kelvin)      0.06789     0.01419     0.01338
 Rotational constants (GHZ):           1.41455     0.29563     0.27872
 Zero-point vibrational energy     783743.9 (Joules/Mol)
                                  187.31928 (Kcal/Mol)
 Warning -- explicit consideration of  22 degrees of freedom as
           vibrations may cause significant error
 Vibrational temperatures:     22.20    29.67    83.59   108.99   147.80
          (Kelvin)            195.04   231.80   244.81   318.30   328.88
                              334.67   404.96   490.57   529.50   545.08
                              605.61   609.46   632.36   700.50   774.71
                              798.56   832.92   913.26   973.15  1023.82
                             1032.35  1047.96  1077.75  1119.30  1160.60
                             1170.09  1211.36  1230.71  1303.56  1313.84
                             1326.40  1368.21  1382.62  1398.64  1416.47
                             1423.04  1466.91  1480.25  1526.01  1570.23
                             1604.13  1607.16  1644.86  1664.93  1706.26
                             1716.31  1749.71  1776.39  1845.96  1874.07
                             1910.30  1926.25  1940.50  1976.14  1979.66
                             2003.95  2061.96  2104.93  2123.28  2146.67
                             2163.80  2173.90  2179.72  2186.02  2200.68
                             2213.22  2229.25  2230.13  2360.95  2393.46
                             2442.16  2487.92  4314.51  4386.23  4389.17
                             4396.24  4443.40  4446.85  4488.17  4491.09
                             4507.59  4535.52  4578.72  4589.90  4594.45
                             4595.19  4614.64  4630.86  4635.22  4645.14
                             4711.41

 Zero-point correction=                           0.298512 (Hartree/Particle)
 Thermal correction to Energy=                    0.313887
 Thermal correction to Enthalpy=                  0.314831
 Thermal correction to Gibbs Free Energy=         0.254125
 Sum of electronic and zero-point Energies=           -599.403051
 Sum of electronic and thermal Energies=              -599.387677
 Sum of electronic and thermal Enthalpies=            -599.386733
 Sum of electronic and thermal Free Energies=         -599.447439

                     E (Thermal)             CV                S
                      KCal/Mol        Cal/Mol-Kelvin    Cal/Mol-Kelvin
 Total                  196.967             58.884            127.767
 Electronic               0.000              0.000              0.000
 Translational            0.889              2.981             41.801
 Rotational               0.889              2.981             32.289
 Vibrational            195.190             52.922             53.676
 Vibration     1          0.593              1.986              7.150
 Vibration     2          0.593              1.986              6.573
 Vibration     3          0.596              1.974              4.521
 Vibration     4          0.599              1.965              3.998
 Vibration     5          0.605              1.947              3.402
 Vibration     6          0.613              1.918              2.866
 Vibration     7          0.622              1.890              2.537
 Vibration     8          0.625              1.879              2.434
 Vibration     9          0.648              1.809              1.949
 Vibration    10          0.651              1.797              1.890
 Vibration    11          0.653              1.791              1.859
 Vibration    12          0.681              1.708              1.525
 Vibration    13          0.720              1.594              1.208
 Vibration    14          0.741              1.538              1.088
 Vibration    15          0.749              1.515              1.044
 Vibration    16          0.783              1.425              0.889
 Vibration    17          0.786              1.419              0.880
 Vibration    18          0.800              1.384              0.828
 Vibration    19          0.843              1.279              0.692
 Vibration    20          0.893              1.165              0.569
 Vibration    21          0.910              1.129              0.534
 Vibration    22          0.935              1.077              0.487

 Optimization completed.
    -- Stationary point found.
 Normal termination of Gaussian 16 at Thu Dec 10 16:33:23 2020.

 ----------------------------------------------------------------------
 # B3LYP/6-311++G(d,p) empiricaldispersion=gd3bj scf=xqc pop=npa geom=c
 heck
 ----------------------------------------------------------------------

 ---------------------------------------
 CID_146186454_JID_5479_Energie_neutraal
 ---------------------------------------
 Structure from the checkpoint file:  "JID_5479.chk"
 Charge =  0 Multiplicity = 1

 SCF Done:  E(RB3LYP) =  -599.862028595     A.U. after   15 cycles
 Normal termination of Gaussian 16 at Thu Dec 10 16:39:03 2020.

 ----------------------------------------------------------------------
 # B3LYP/6-311++G(d,p) empiricaldispersion=gd3bj scf=xqc pop=npa geom=c
 heck
 ----------------------------------------------------------------------

 -------------------------------------
 CID_146186454_JID_5479_Energie_kation
 -------------------------------------
 Structure from the checkpoint file:  "JID_5479.chk"
 Charge =  1 Multiplicity = 2

 SCF Done:  E(UB3LYP) =  -599.604549736     A.U. after   21 cycles
 Normal termination of Gaussian 16 at Thu Dec 10 16:50:29 2020.
 Gaussian 16:  ES64L-G16RevA.03 25-Dec-2016

 ----------------------------------------------------------------------
 # B3LYP/6-311++G(d,p) empiricaldispersion=gd3bj scf=xqc pop=npa geom=c
 heck
 ----------------------------------------------------------------------

 ------------------------------------
 CID_146186454_JID_5479_Energie_anion
 ------------------------------------
 Structure from the checkpoint file:  "JID_5479.chk"
 Charge = -1 Multiplicity = 2

                         Standard orientation:
 ---------------------------------------------------------------------
 Center     Atomic      Atomic             Coordinates (Angstroms)
 Number     Number       Type             X           Y           Z
 ---------------------------------------------------------------------
      1          6           0       -3.946570   -1.494617    1.022246
      2          6           0       -3.256609   -0.121861    1.086965
      3          6           0       -2.967754    0.460433   -0.276569
      4          6           0       -3.659562    1.498255   -0.756871
      5          6           0       -1.900937   -0.224387   -1.121049
      6          6           0       -0.580436   -0.533879   -0.430953
      7          6           0       -0.339022   -1.769766    0.040359
      8          7           0        0.363443    0.514438   -0.370528
      9          6           0       -0.100237    1.853804   -0.023020
     10          6           0        1.727606    0.226456   -0.110151
     11          6           0        2.441363    0.897056    0.891674
     12          6           0        3.803437    0.648235    1.078938
     13          6           0        4.470578   -0.278000    0.282726
     14          6           0        3.760690   -0.952703   -0.716790
     15          6           0        2.409550   -0.701247   -0.917568
     16          1           0       -4.887794   -1.430008    0.465248
     17          1           0       -4.168919   -1.862587    2.029763
     18          1           0       -3.312255   -2.238950    0.531370
     19          1           0       -3.890089    0.575210    1.647232
     20          1           0       -2.317620   -0.227806    1.644421
     21          1           0       -3.465011    1.910063   -1.744708
     22          1           0       -4.450995    1.970827   -0.180625
     23          1           0       -2.304707   -1.186020   -1.459922
     24          1           0       -1.715291    0.370785   -2.022585
     25          1           0        0.576155   -2.027277    0.559270
     26          1           0       -1.054455   -2.565951   -0.128085
     27          1           0       -0.322009    1.966626    1.050059
     28          1           0        0.671283    2.577252   -0.297305
     29          1           0       -1.010343    2.088386   -0.571426
     30          1           0        1.935969    1.609684    1.534085
     31          1           0        4.337459    1.181011    1.861180
     32          1           0        5.528552   -0.472218    0.431779
     33          1           0        4.269295   -1.669985   -1.355321
     34          1           0        1.864096   -1.216789   -1.700359
 ---------------------------------------------------------------------

 SCF Done:  E(UB3LYP) =  -599.846538457     A.U. after   33 cycles
 SCF Done:  E(UB3LYP) =  -599.846538457     a.u. after    1 cycles

 The electronic state is 2-A.
 Alpha  occ. eigenvalues --  -14.24176 -10.11985 -10.11864 -10.09860 -10.09160
 Alpha  occ. eigenvalues --  -10.08660 -10.08126 -10.08118 -10.07738 -10.07736
 Alpha  occ. eigenvalues --  -10.07649 -10.07567 -10.07021 -10.06472 -10.05359
 Alpha  occ. eigenvalues --   -0.86156  -0.75794  -0.73151  -0.68207  -0.65743
 Alpha  occ. eigenvalues --   -0.64844  -0.64412  -0.59635  -0.57534  -0.53661
 Alpha  occ. eigenvalues --   -0.52287  -0.51084  -0.46358  -0.43754  -0.41710
 Alpha  occ. eigenvalues --   -0.39819  -0.38508  -0.37809  -0.36761  -0.35797
 Alpha  occ. eigenvalues --   -0.35109  -0.33492  -0.32973  -0.32766  -0.31754
 Alpha  occ. eigenvalues --   -0.31290  -0.30001  -0.29664  -0.27972  -0.27584
 Alpha  occ. eigenvalues --   -0.26934  -0.25546  -0.25332  -0.24853  -0.24658
 Alpha  occ. eigenvalues --   -0.20984  -0.16899  -0.16154  -0.16050  -0.10206
 Alpha  occ. eigenvalues --    0.04290
 Alpha virt. eigenvalues --    0.05895   0.06462   0.06833   0.07315   0.07683
 Alpha virt. eigenvalues --    0.07780   0.08176   0.08570   0.09582   0.09698
 Alpha virt. eigenvalues --    0.09836   0.10046   0.10456   0.11333   0.11912

  Beta  occ. eigenvalues --  -14.24175 -10.11983 -10.11862 -10.09829 -10.09159
  Beta  occ. eigenvalues --  -10.08644 -10.08113 -10.08106 -10.07732 -10.07719
  Beta  occ. eigenvalues --  -10.07636 -10.07550 -10.07000 -10.06445 -10.05339
  Beta  occ. eigenvalues --   -0.86144  -0.75771  -0.73130  -0.68183  -0.65715
  Beta  occ. eigenvalues --   -0.64812  -0.64383  -0.59598  -0.57488  -0.53600
  Beta  occ. eigenvalues --   -0.52259  -0.51044  -0.46322  -0.43707  -0.41663
  Beta  occ. eigenvalues --   -0.39791  -0.38472  -0.37783  -0.36735  -0.35762
  Beta  occ. eigenvalues --   -0.35076  -0.33461  -0.32951  -0.32735  -0.31728
  Beta  occ. eigenvalues --   -0.31261  -0.29973  -0.29637  -0.27926  -0.27560
  Beta  occ. eigenvalues --   -0.26901  -0.25523  -0.25304  -0.24827  -0.24631
  Beta  occ. eigenvalues --   -0.20956  -0.16868  -0.16124  -0.16019  -0.10169
  Beta virt. eigenvalues --    0.06225   0.06713   0.06762   0.07402   0.07682
  Beta virt. eigenvalues --    0.08003   0.08133   0.08419   0.09084   0.09778
  Beta virt. eigenvalues --    0.10043   0.10294   0.10344   0.10742   0.11441

 Mulliken charges and spin densities:
               1          2
     1  C    0.497613  -1.092668
     2  C   -1.084784   0.691184
     3  C   -1.115992   2.247946
     4  C    1.497407  -2.101450
     5  C    0.779243  -2.213411
     6  C   -0.284785   0.905406
     7  C   -0.090379  -0.496769
     8  N    0.306134   0.068482
     9  C    0.800393  -1.209902
    10  C   -0.453480  -0.026271
    11  C   -0.328256   0.657492
    12  C   -0.177232   0.038760
    13  C    1.134115  -1.575591
    14  C    0.469094  -0.705722
    15  C   -0.627725   0.524618
    16  H   -0.018835   0.160479
    17  H   -0.191478   0.332028
    18  H    0.010048   0.114583
    19  H   -0.404887   0.566248
    20  H    0.124482   0.046157
    21  H   -0.140366   0.265586
    22  H   -0.082676   0.213833
    23  H   -0.017275   0.212471
    24  H   -0.088294   0.305247
    25  H    0.205040  -0.077829
    26  H   -0.050221   0.172282
    27  H   -0.323424   0.480190
    28  H   -0.049192   0.214119
    29  H   -0.094661   0.264612
    30  H   -0.070082   0.223686
    31  H   -0.556265   0.740192
    32  H   -0.208410   0.351711
    33  H   -0.402208   0.582125
    34  H    0.037337   0.120176
 Sum of Mulliken charges =  -1.00000   1.00000

 Dipole moment (field-independent basis, Debye):
    X=             -0.8068    Y=             -1.6853    Z=             -1.5482  Tot=              2.4265
 Quadrupole moment (field-independent basis, Debye-Ang):
   XX=           -190.8124   YY=           -133.8222   ZZ=           -131.5065
   XY=              2.7935   XZ=              1.4551   YZ=             -2.7282

 Summary of Natural Population Analysis:

                                       Natural Population
                Natural  -----------------------------------------------
    Atom  No    Charge         Core      Valence    Rydberg      Total
 -----------------------------------------------------------------------
      C    1   -0.27941      0.99966     2.27556    0.00419     3.27941
      C    2   -0.20889      0.99958     2.19950    0.00981     3.20889
      C    3    0.00687      0.99951     1.98120    0.01242     2.99313
      C    4   -0.19892      0.99947     2.19091    0.00854     3.19892
      C    5   -0.22531      0.99953     2.21486    0.01092     3.22531
      C    6    0.10395      0.99948     1.88143    0.01515     2.89605
      C    7   -0.23242      0.99950     2.22525    0.00767     3.23242
      N    8   -0.26118      0.99962     2.74677    0.01479     3.76118
      C    9   -0.17740      0.99963     2.16947    0.00830     3.17740
      C   10    0.08387      0.99949     1.90290    0.01374     2.91613
      C   11   -0.12047      0.99952     2.11106    0.00989     3.12047
      C   12   -0.09571      0.99957     2.08548    0.01067     3.09571
      C   13   -0.11383      0.99956     2.10376    0.01052     3.11383
      C   14   -0.10837      0.99959     2.09529    0.01349     3.10837
      C   15   -0.08491      0.99952     2.07958    0.00582     3.08491
      H   16    0.09628      0.00000     0.40257    0.00114     0.40372
      H   17    0.09901      0.00000     0.39996    0.00103     0.40099
      H   18    0.09598      0.00000     0.40279    0.00123     0.40402
      H   19    0.10036      0.00000     0.39818    0.00147     0.39964
      H   20    0.10568      0.00000     0.39237    0.00195     0.39432
      H   21    0.09267      0.00000     0.40603    0.00130     0.40733
      H   22    0.09513      0.00000     0.40368    0.00119     0.40487
      H   23    0.11172      0.00000     0.38689    0.00138     0.38828
      H   24    0.10804      0.00000     0.39007    0.00189     0.39196
      H   25    0.10169      0.00000     0.39720    0.00111     0.39831
      H   26    0.09494      0.00000     0.40399    0.00107     0.40506
      H   27    0.08920      0.00000     0.40924    0.00157     0.41080
      H   28    0.10026      0.00000     0.39844    0.00130     0.39974
      H   29    0.10659      0.00000     0.39151    0.00190     0.39341
      H   30    0.10647      0.00000     0.39201    0.00152     0.39353
      H   31    0.10153      0.00000     0.39717    0.00130     0.39847
      H   32    0.10113      0.00000     0.39767    0.00120     0.39887
      H   33    0.10057      0.00000     0.39829    0.00114     0.39943
      H   34    0.10491      0.00000     0.39348    0.00161     0.39509
 =======================================================================
   * Total *    0.00004     14.99322    39.82453    0.18221    54.99996

 Normal termination of Gaussian 16 at Thu Dec 10 17:16:34 2020.
