 Gaussian 16, Revision A.03,

 -----------------------------------------------------------
 # opt freq B3LYP/6-31G(d) empiricaldispersion=gd3bj scf=xqc
 -----------------------------------------------------------

 -------------------------------
 CID_129605826_JID_3097_neutraal
 -------------------------------
 Symbolic Z-matrix:
 Charge =  0 Multiplicity = 1

 SCF Done:  E(RB3LYP) =  -1049.43751258     A.U. after   14 cycles
 SCF Done:  E(RB3LYP) =  -1049.44122307     A.U. after   12 cycles
 SCF Done:  E(RB3LYP) =  -1049.44184139     A.U. after   11 cycles
 SCF Done:  E(RB3LYP) =  -1049.44195325     A.U. after   12 cycles
 SCF Done:  E(RB3LYP) =  -1049.44204492     A.U. after   11 cycles
 SCF Done:  E(RB3LYP) =  -1049.44209335     A.U. after   11 cycles
 SCF Done:  E(RB3LYP) =  -1049.44212981     A.U. after   10 cycles
 SCF Done:  E(RB3LYP) =  -1049.44214726     A.U. after    9 cycles
 SCF Done:  E(RB3LYP) =  -1049.44215430     A.U. after    9 cycles
 SCF Done:  E(RB3LYP) =  -1049.44215931     A.U. after    9 cycles
 SCF Done:  E(RB3LYP) =  -1049.44216179     A.U. after    8 cycles
 SCF Done:  E(RB3LYP) =  -1049.44216537     A.U. after    9 cycles
 SCF Done:  E(RB3LYP) =  -1049.44217202     A.U. after   10 cycles
 SCF Done:  E(RB3LYP) =  -1049.44217527     A.U. after   10 cycles
 SCF Done:  E(RB3LYP) =  -1049.44217591     A.U. after    8 cycles
 SCF Done:  E(RB3LYP) =  -1049.44217603     A.U. after    7 cycles
 Optimization completed.
    -- Stationary point found.
 Normal termination of Gaussian 16 at Wed Dec  9 22:27:16 2020.

 --------------------------------------------------------------------
 #N Geom=AllCheck Guess=TCheck SCRF=Check GenChk RB3LYP/6-31G(d) Freq
 --------------------------------------------------------------------

 Structure from the checkpoint file:  "JID_3097.chk"
 -------------------------------
 CID_129605826_JID_3097_neutraal
 -------------------------------
 Charge =  0 Multiplicity = 1

 SCF Done:  E(RB3LYP) =  -1049.44217603     A.U. after    1 cycles

  Exact polarizability: 109.104   0.929  95.291  -0.195   0.028  99.108
 Approx polarizability: 145.815   3.987 151.461  -3.619  -0.181 149.766

                      1                      2                      3
                      A                      A                      A
 Frequencies --     55.1437                84.2910                98.9294
 Red. masses --      7.8232                 4.4882                 4.4797
 Frc consts  --      0.0140                 0.0188                 0.0258
 IR Inten    --      2.2567                 0.8922                 1.9329

                      4                      5                      6
                      A                      A                      A
 Frequencies --    116.7501               156.2904               183.9511
 Red. masses --      4.6355                 1.5185                 3.3929
 Frc consts  --      0.0372                 0.0219                 0.0676
 IR Inten    --      4.1786                90.7104                12.1955

                      7                      8                      9
                      A                      A                      A
 Frequencies --    192.7174               240.6471               254.9016
 Red. masses --      3.9874                 3.9076                 5.7201
 Frc consts  --      0.0873                 0.1333                 0.2190
 IR Inten    --      1.3863                 2.8297                 6.2007

                     10                     11                     12
                      A                      A                      A
 Frequencies --    264.6632               319.4909               326.8087
 Red. masses --      1.9905                 2.3479                 1.3111
 Frc consts  --      0.0821                 0.1412                 0.0825
 IR Inten    --     24.5720                 1.4884               118.9006

                     13                     14                     15
                      A                      A                      A
 Frequencies --    340.3889               356.1156               404.3128
 Red. masses --      2.1334                 2.4254                 2.1394
 Frc consts  --      0.1456                 0.1812                 0.2061
 IR Inten    --      4.5883                 4.7239                10.4904

                     16                     17                     18
                      A                      A                      A
 Frequencies --    414.5243               466.6279               478.3307
 Red. masses --      4.2856                 7.2998                 2.8819
 Frc consts  --      0.4339                 0.9365                 0.3885
 IR Inten    --     19.0246                19.5000                18.1186

                     19                     20                     21
                      A                      A                      A
 Frequencies --    499.3604               528.3066               573.4983
 Red. masses --      3.9100                 4.7210                 3.6610
 Frc consts  --      0.5745                 0.7764                 0.7094
 IR Inten    --     23.3611                11.7145                27.7400

                     22                     23                     24
                      A                      A                      A
 Frequencies --    643.4787               701.2873               745.0435
 Red. masses --      2.3965                 4.9021                 5.1730
 Frc consts  --      0.5847                 1.4204                 1.6918
 IR Inten    --     15.7655                12.3047                61.7506

                     25                     26                     27
                      A                      A                      A
 Frequencies --    803.3476               826.2251               863.4021
 Red. masses --      3.1112                 1.8348                 2.4230
 Frc consts  --      1.1830                 0.7380                 1.0642
 IR Inten    --     66.6002                20.3936                23.6609

                     28                     29                     30
                      A                      A                      A
 Frequencies --    868.2424               929.6358               956.5280
 Red. masses --      2.7510                 1.6952                 2.1122
 Frc consts  --      1.2219                 0.8632                 1.1386
 IR Inten    --     26.8951                18.6131                13.9356

                     31                     32                     33
                      A                      A                      A
 Frequencies --    965.8122              1025.3608              1032.5935
 Red. masses --      2.1400                 2.0768                 2.1920
 Frc consts  --      1.1761                 1.2864                 1.3770
 IR Inten    --      2.7641                 2.5537                12.3922

                     34                     35                     36
                      A                      A                      A
 Frequencies --   1067.3024              1082.7940              1114.3018
 Red. masses --      1.9421                 3.4588                 3.0087
 Frc consts  --      1.3034                 2.3893                 2.2010
 IR Inten    --     37.5645                66.3875                66.6426

                     37                     38                     39
                      A                      A                      A
 Frequencies --   1129.3666              1143.6208              1157.0714
 Red. masses --      2.0659                 2.0728                 2.9169
 Frc consts  --      1.5525                 1.5973                 2.3009
 IR Inten    --     30.7283                 1.8198                35.7672

                     40                     41                     42
                      A                      A                      A
 Frequencies --   1183.8804              1206.0655              1238.4513
 Red. masses --      2.0236                 2.2324                 1.1956
 Frc consts  --      1.6711                 1.9132                 1.0804
 IR Inten    --     34.5368               170.1360                 1.5675

                     43                     44                     45
                      A                      A                      A
 Frequencies --   1242.1027              1273.4078              1297.6041
 Red. masses --      1.3398                 1.3710                 1.6585
 Frc consts  --      1.2179                 1.3099                 1.6453
 IR Inten    --      7.3233                34.2409                51.1999

                     46                     47                     48
                      A                      A                      A
 Frequencies --   1319.8306              1338.5950              1353.7351
 Red. masses --      1.4505                 1.2939                 2.6988
 Frc consts  --      1.4887                 1.3660                 2.9139
 IR Inten    --      3.3658                 7.0872               124.7313

                     49                     50                     51
                      A                      A                      A
 Frequencies --   1366.7678              1383.4792              1404.5722
 Red. masses --      1.8834                 1.3458                 1.2512
 Frc consts  --      2.0729                 1.5177                 1.4544
 IR Inten    --     59.9777                 0.5363                25.0833

                     52                     53                     54
                      A                      A                      A
 Frequencies --   1408.6239              1416.2034              1434.8112
 Red. masses --      1.2410                 1.3974                 1.2791
 Frc consts  --      1.4509                 1.6513                 1.5515
 IR Inten    --      9.5690                 9.3766                17.1589

                     55                     56                     57
                      A                      A                      A
 Frequencies --   1450.1922              1482.5255              1506.5661
 Red. masses --      1.3236                 1.0831                 1.0843
 Frc consts  --      1.6400                 1.4025                 1.4500
 IR Inten    --     16.7273                 8.3660                 7.5982

                     58                     59                     60
                      A                      A                      A
 Frequencies --   1520.9990              1524.4232              1535.5514
 Red. masses --      1.0953                 1.0842                 1.0867
 Frc consts  --      1.4930                 1.4844                 1.5096
 IR Inten    --      3.9865                 1.5313                 0.5823

                     61                     62                     63
                      A                      A                      A
 Frequencies --   1545.8094              2970.8496              2986.0301
 Red. masses --      1.0913                 1.0728                 1.0727
 Frc consts  --      1.5364                 5.5786                 5.6351
 IR Inten    --      4.4455                49.5987                67.0749

                     64                     65                     66
                      A                      A                      A
 Frequencies --   3041.8009              3057.0335              3060.3860
 Red. masses --      1.0686                 1.0597                 1.0688
 Frc consts  --      5.8256                 5.8347                 5.8977
 IR Inten    --     22.8745                66.6243                19.8294

                     67                     68                     69
                      A                      A                      A
 Frequencies --   3085.8459              3102.0163              3109.2269
 Red. masses --      1.0612                 1.1046                 1.0907
 Frc consts  --      5.9539                 6.2624                 6.2126
 IR Inten    --      1.6109                41.3201                39.8288

                     70                     71                     72
                      A                      A                      A
 Frequencies --   3113.6627              3127.2171              3135.9904
 Red. masses --      1.0924                 1.0951                 1.0939
 Frc consts  --      6.2401                 6.3097                 6.3383
 IR Inten    --     21.5196                 6.7650                15.2249

                     73                     74                     75
                      A                      A                      A
 Frequencies --   3147.9586              3694.8744              3758.8627
 Red. masses --      1.1036                 1.0658                 1.0662
 Frc consts  --      6.4432                 8.5727                 8.8756
 IR Inten    --      3.2207               101.3390                15.2268

 - Thermochemistry -
 -------------------
 Temperature   298.150 Kelvin.  Pressure   1.00000 Atm.
 Atom     1 has atomic number  6 and mass  12.00000

 Molecular mass:   210.05620 amu.
 Principal axes and moments of inertia in atomic units:
                           1         2         3
     Eigenvalues --  1724.348613549.226564134.66578
           X            0.99997  -0.00015   0.00776
           Y            0.00015   1.00000   0.00024
           Z           -0.00776  -0.00023   0.99997
 This molecule is an asymmetric top.
 Rotational symmetry number  1.
 Warning -- assumption of classical behavior for rotation
           may cause significant error
 Rotational temperatures (Kelvin)      0.05023     0.02440     0.02095
 Rotational constants (GHZ):           1.04662     0.50849     0.43649
 Zero-point vibrational energy     587590.2 (Joules/Mol)
                                  140.43744 (Kcal/Mol)
 Warning -- explicit consideration of  21 degrees of freedom as
           vibrations may cause significant error
 Vibrational temperatures:     79.34   121.28   142.34   167.98   224.87
          (Kelvin)            264.66   277.28   346.24   366.75   380.79
                              459.68   470.20   489.74   512.37   581.72
                              596.41   671.37   688.21   718.47   760.12
                              825.14   925.82  1009.00  1071.95  1155.84
                             1188.75  1242.24  1249.21  1337.54  1376.23
                             1389.59  1475.27  1485.67  1535.61  1557.90
                             1603.23  1624.91  1645.42  1664.77  1703.34
                             1735.26  1781.86  1787.11  1832.15  1866.96
                             1898.94  1925.94  1947.72  1966.47  1990.52
                             2020.87  2026.70  2037.60  2064.37  2086.50
                             2133.02  2167.61  2188.38  2193.31  2209.32
                             2224.07  4274.39  4296.23  4376.47  4398.39
                             4403.21  4439.84  4463.11  4473.48  4479.87
                             4499.37  4511.99  4529.21  5316.10  5408.17

 Zero-point correction=                           0.223801 (Hartree/Particle)
 Thermal correction to Energy=                    0.237257
 Thermal correction to Enthalpy=                  0.238201
 Thermal correction to Gibbs Free Energy=         0.184142
 Sum of electronic and zero-point Energies=          -1049.218375
 Sum of electronic and thermal Energies=             -1049.204919
 Sum of electronic and thermal Enthalpies=           -1049.203975
 Sum of electronic and thermal Free Energies=        -1049.258034

                     E (Thermal)             CV                S
                      KCal/Mol        Cal/Mol-Kelvin    Cal/Mol-Kelvin
 Total                  148.881             51.217            113.776
 Electronic               0.000              0.000              0.000
 Translational            0.889              2.981             41.930
 Rotational               0.889              2.981             31.604
 Vibrational            147.103             45.255             40.242
 Vibration     1          0.596              1.976              4.624
 Vibration     2          0.601              1.960              3.788
 Vibration     3          0.604              1.950              3.475
 Vibration     4          0.608              1.935              3.153
 Vibration     5          0.620              1.896              2.594
 Vibration     6          0.631              1.862              2.288
 Vibration     7          0.635              1.850              2.202
 Vibration     8          0.658              1.778              1.798
 Vibration     9          0.665              1.755              1.696
 Vibration    10          0.671              1.738              1.631
 Vibration    11          0.705              1.636              1.313
 Vibration    12          0.710              1.622              1.276
 Vibration    13          0.720              1.595              1.210
 Vibration    14          0.732              1.563              1.139
 Vibration    15          0.769              1.461              0.947
 Vibration    16          0.778              1.439              0.911
 Vibration    17          0.824              1.324              0.747
 Vibration    18          0.835              1.298              0.715
 Vibration    19          0.855              1.251              0.660
 Vibration    20          0.883              1.187              0.591
 Vibration    21          0.930              1.089              0.498

 Optimization completed.
    -- Stationary point found.
 Normal termination of Gaussian 16 at Wed Dec  9 22:34:23 2020.

 ----------------------------------------------------------------------
 # B3LYP/6-311++G(d,p) empiricaldispersion=gd3bj scf=xqc pop=npa geom=c
 heck
 ----------------------------------------------------------------------

 ---------------------------------------
 CID_129605826_JID_3097_Energie_neutraal
 ---------------------------------------
 Structure from the checkpoint file:  "JID_3097.chk"
 Charge =  0 Multiplicity = 1

 SCF Done:  E(RB3LYP) =  -1049.67757662     A.U. after   15 cycles
 Normal termination of Gaussian 16 at Wed Dec  9 22:37:37 2020.

 ----------------------------------------------------------------------
 # B3LYP/6-311++G(d,p) empiricaldispersion=gd3bj scf=xqc pop=npa geom=c
 heck
 ----------------------------------------------------------------------

 -------------------------------------
 CID_129605826_JID_3097_Energie_kation
 -------------------------------------
 Structure from the checkpoint file:  "JID_3097.chk"
 Charge =  1 Multiplicity = 2

 SCF Done:  E(UB3LYP) =  -1049.33220812     A.U. after   25 cycles
 Normal termination of Gaussian 16 at Wed Dec  9 22:45:14 2020.
 Gaussian 16:  ES64L-G16RevA.03 25-Dec-2016

 ----------------------------------------------------------------------
 # B3LYP/6-311++G(d,p) empiricaldispersion=gd3bj scf=xqc pop=npa geom=c
 heck
 ----------------------------------------------------------------------

 ------------------------------------
 CID_129605826_JID_3097_Energie_anion
 ------------------------------------
 Structure from the checkpoint file:  "JID_3097.chk"
 Charge = -1 Multiplicity = 2

                         Standard orientation:
 ---------------------------------------------------------------------
 Center     Atomic      Atomic             Coordinates (Angstroms)
 Number     Number       Type             X           Y           Z
 ---------------------------------------------------------------------
      1          6           0       -0.906068   -0.041214    1.122660
      2          6           0       -2.327452   -0.582143    1.293621
      3          8           0       -2.590930   -1.636785    0.383401
      4          6           0       -2.492971   -1.203960   -0.965910
      5          6           0       -1.097545   -0.662901   -1.295237
      6          6           0       -0.650138    0.449843   -0.319606
      7          6           0       -1.447048    1.748292   -0.612763
      8          8           0       -1.085393    2.838767    0.224212
      9          6           0        0.817580    0.846644   -0.570057
     10         16           0        2.135188   -0.287609   -0.085146
     11          8           0        1.733213   -1.696540   -0.144513
     12          8           0        3.358147    0.151829   -0.745141
     13          8           0        2.220785    0.106096    1.519239
     14          1           0       -0.219175   -0.859358    1.349499
     15          1           0       -0.702512    0.755470    1.849189
     16          1           0       -2.454259   -1.004721    2.294396
     17          1           0       -3.080531    0.216738    1.173970
     18          1           0       -3.271509   -0.450286   -1.171836
     19          1           0       -2.712730   -2.080545   -1.581358
     20          1           0       -1.084043   -0.287825   -2.328161
     21          1           0       -0.382828   -1.488104   -1.235256
     22          1           0       -1.230856    2.076543   -1.635123
     23          1           0       -2.524886    1.555045   -0.558515
     24          1           0       -1.462319    2.681046    1.102677
     25          1           0        0.996994    0.989275   -1.640844
     26          1           0        1.055743    1.783763   -0.059562
     27          1           0        2.445178   -0.719584    1.989436
 ---------------------------------------------------------------------

 SCF Done:  E(UB3LYP) =  -1049.67224817     A.U. after   27 cycles

 The electronic state is 2-A.
 Alpha  occ. eigenvalues --  -88.98255 -19.07385 -19.03272 -19.03145 -19.02885
 Alpha  occ. eigenvalues --  -19.02761 -10.12460 -10.12453 -10.11885 -10.11535
 Alpha  occ. eigenvalues --  -10.10758 -10.07815 -10.06878  -8.04394  -6.00788
 Alpha  occ. eigenvalues --   -6.00586  -6.00408  -1.05196  -0.94391  -0.94260
 Alpha  occ. eigenvalues --   -0.93126  -0.92428  -0.75003  -0.67280  -0.66693
 Alpha  occ. eigenvalues --   -0.60493  -0.55540  -0.54990  -0.51962  -0.46303
 Alpha  occ. eigenvalues --   -0.45022  -0.42726  -0.40459  -0.39770  -0.38552
 Alpha  occ. eigenvalues --   -0.38172  -0.37440  -0.36190  -0.35415  -0.33855
 Alpha  occ. eigenvalues --   -0.33622  -0.30973  -0.30097  -0.29171  -0.28320
 Alpha  occ. eigenvalues --   -0.27927  -0.26484  -0.25122  -0.24259  -0.23209
 Alpha  occ. eigenvalues --   -0.22785  -0.22409  -0.21423  -0.20833  -0.18496
 Alpha  occ. eigenvalues --   -0.16104   0.04073
 Alpha virt. eigenvalues --    0.06480   0.06829   0.08169   0.09007   0.09799
 Alpha virt. eigenvalues --    0.10645   0.11084   0.11667   0.12284   0.13023
 Alpha virt. eigenvalues --    0.13534   0.14083   0.14291   0.14509   0.14668

  Beta  occ. eigenvalues --  -88.98242 -19.07310 -19.03251 -19.03130 -19.02836
  Beta  occ. eigenvalues --  -19.02751 -10.12449 -10.12420 -10.11853 -10.11498
  Beta  occ. eigenvalues --  -10.10760 -10.07808 -10.06844  -8.04378  -6.00769
  Beta  occ. eigenvalues --   -6.00575  -6.00398  -1.05116  -0.94371  -0.94110
  Beta  occ. eigenvalues --   -0.93025  -0.92375  -0.74963  -0.67240  -0.66622
  Beta  occ. eigenvalues --   -0.60404  -0.55445  -0.54930  -0.51884  -0.46234
  Beta  occ. eigenvalues --   -0.44968  -0.42667  -0.40381  -0.39721  -0.38503
  Beta  occ. eigenvalues --   -0.38138  -0.37401  -0.36140  -0.35364  -0.33810
  Beta  occ. eigenvalues --   -0.33562  -0.30937  -0.30062  -0.29116  -0.28267
  Beta  occ. eigenvalues --   -0.27900  -0.26433  -0.25058  -0.24211  -0.23170
  Beta  occ. eigenvalues --   -0.22751  -0.22356  -0.21382  -0.20800  -0.18450
  Beta  occ. eigenvalues --   -0.16041
  Beta virt. eigenvalues --    0.06612   0.07650   0.07997   0.08529   0.09716
  Beta virt. eigenvalues --    0.10309   0.11029   0.11337   0.11806   0.12451
  Beta virt. eigenvalues --    0.13464   0.13756   0.14316   0.14518   0.14832

 Mulliken charges and spin densities:
               1          2
     1  C   -0.854726   0.334446
     2  C    1.302372  -1.823092
     3  O   -0.147717   0.054274
     4  C    0.227465  -0.700923
     5  C   -0.660085   0.247079
     6  C   -0.031044   0.981210
     7  C    1.369453  -1.798687
     8  O   -0.232132   0.030320
     9  C   -0.934514   0.042239
    10  S    0.714524  -0.471987
    11  O   -0.262792   0.019492
    12  O   -0.080194   0.000471
    13  O   -0.230414   0.039317
    14  H    0.103555   0.070760
    15  H   -0.355425   0.544824
    16  H   -0.347845   0.552581
    17  H   -0.316729   0.468664
    18  H   -0.024628   0.165717
    19  H    0.101822   0.086573
    20  H   -0.032876   0.163329
    21  H    0.146159   0.076280
    22  H   -0.078350   0.276874
    23  H   -0.249640   0.390530
    24  H   -0.153319   0.423423
    25  H    0.085920   0.154895
    26  H    0.255664   0.052718
    27  H   -0.314504   0.618674
 Sum of Mulliken charges =  -1.00000   1.00000

 Dipole moment (field-independent basis, Debye):
    X=              0.2285    Y=             -1.5909    Z=             -4.5599  Tot=              4.8348
 Quadrupole moment (field-independent basis, Debye-Ang):
   XX=           -144.9646   YY=           -127.8650   ZZ=           -122.1583
   XY=              7.3444   XZ=              4.6245   YZ=             -0.6682

 Summary of Natural Population Analysis:

                                       Natural Population
                Natural  -----------------------------------------------
    Atom  No    Charge         Core      Valence    Rydberg      Total
 -----------------------------------------------------------------------
      C    1   -0.21440      0.99958     2.20149    0.01333     3.21440
      C    2   -0.00919      0.99957     1.99538    0.01424     3.00919
      O    3   -0.29822      0.99989     3.28952    0.00881     4.29822
      C    4   -0.00596      0.99958     1.99501    0.01137     3.00596
      C    5   -0.21070      0.99958     2.20255    0.00857     3.21070
      C    6   -0.05885      0.99954     2.04282    0.01648     3.05885
      C    7   -0.00924      0.99952     1.99413    0.01559     3.00924
      O    8   -0.37172      0.99990     3.36494    0.00688     4.37172
      C    9   -0.28883      0.99949     2.27495    0.01439     3.28883
      S   10    1.12153      4.99936     1.77885    0.10026     6.87847
      O   11   -0.45859      0.99990     3.45290    0.00579     4.45859
      O   12   -0.45225      0.99990     3.44680    0.00555     4.45225
      O   13   -0.43462      0.99992     3.42807    0.00664     4.43462
      H   14    0.11017      0.00000     0.38755    0.00228     0.38983
      H   15    0.10936      0.00000     0.38783    0.00281     0.39064
      H   16    0.09505      0.00000     0.40354    0.00140     0.40495
      H   17    0.07805      0.00000     0.41971    0.00224     0.42195
      H   18    0.07643      0.00000     0.42201    0.00156     0.42357
      H   19    0.09030      0.00000     0.40857    0.00113     0.40970
      H   20    0.09942      0.00000     0.39939    0.00119     0.40058
      H   21    0.11571      0.00000     0.38280    0.00149     0.38429
      H   22    0.08702      0.00000     0.41165    0.00133     0.41298
      H   23    0.08857      0.00000     0.40930    0.00213     0.41143
      H   24    0.23607      0.00000     0.25728    0.00664     0.26393
      H   25    0.11841      0.00000     0.38057    0.00102     0.38159
      H   26    0.13507      0.00000     0.36335    0.00158     0.36493
      H   27    0.25139      0.00000     0.23691    0.01170     0.24861
 =======================================================================
   * Total *    0.00000     16.99573    38.73787    0.26639    56.00000

 Normal termination of Gaussian 16 at Wed Dec  9 22:53:23 2020.
