 Gaussian 16, Revision A.03,

 -----------------------------------------------------------
 # opt freq B3LYP/6-31G(d) empiricaldispersion=gd3bj scf=xqc
 -----------------------------------------------------------

 -------------------------------
 CID_134987266_JID_4277_neutraal
 -------------------------------
 Symbolic Z-matrix:
 Charge =  0 Multiplicity = 1

 SCF Done:  E(RB3LYP) =  -943.915337271     A.U. after   14 cycles
 SCF Done:  E(RB3LYP) =  -943.933099436     A.U. after   13 cycles
 SCF Done:  E(RB3LYP) =  -943.935283435     A.U. after   12 cycles
 SCF Done:  E(RB3LYP) =  -943.935222543     A.U. after   12 cycles
 SCF Done:  E(RB3LYP) =  -943.935547377     A.U. after   12 cycles
 SCF Done:  E(RB3LYP) =  -943.935650025     A.U. after   11 cycles
 SCF Done:  E(RB3LYP) =  -943.935674820     A.U. after   11 cycles
 SCF Done:  E(RB3LYP) =  -943.935739506     A.U. after   13 cycles
 SCF Done:  E(RB3LYP) =  -943.936185051     A.U. after   15 cycles
 SCF Done:  E(RB3LYP) =  -943.936661363     A.U. after   15 cycles
 SCF Done:  E(RB3LYP) =  -943.937407895     A.U. after   10 cycles
 SCF Done:  E(RB3LYP) =  -943.937411105     A.U. after    9 cycles
 SCF Done:  E(RB3LYP) =  -943.937412785     A.U. after    9 cycles
 SCF Done:  E(RB3LYP) =  -943.937413331     A.U. after    9 cycles
 SCF Done:  E(RB3LYP) =  -943.937413476     A.U. after    8 cycles
 SCF Done:  E(RB3LYP) =  -943.937413496     A.U. after    6 cycles
 Optimization completed.
    -- Stationary point found.
 Normal termination of Gaussian 16 at Thu Dec 10 09:32:33 2020.

 --------------------------------------------------------------------
 #N Geom=AllCheck Guess=TCheck SCRF=Check GenChk RB3LYP/6-31G(d) Freq
 --------------------------------------------------------------------

 Structure from the checkpoint file:  "JID_4277.chk"
 -------------------------------
 CID_134987266_JID_4277_neutraal
 -------------------------------
 Charge =  0 Multiplicity = 1

 SCF Done:  E(RB3LYP) =  -943.937413496     A.U. after    1 cycles

  Exact polarizability: 192.559 -12.188 145.186  -2.529   0.328 115.705
 Approx polarizability: 255.800 -25.210 197.922  -1.510   0.628 173.013

                      1                      2                      3
                      A                      A                      A
 Frequencies --     17.0120                21.4956                44.8437
 Red. masses --      3.5665                 4.2865                 3.0380
 Frc consts  --      0.0006                 0.0012                 0.0036
 IR Inten    --      0.8699                 0.1812                 0.2494

                      4                      5                      6
                      A                      A                      A
 Frequencies --     57.9829                63.3013                81.2075
 Red. masses --      3.4505                 3.6056                 2.9464
 Frc consts  --      0.0068                 0.0085                 0.0114
 IR Inten    --      0.4356                 0.2730                 0.8420

                      7                      8                      9
                      A                      A                      A
 Frequencies --     92.5056               128.5884               150.1201
 Red. masses --      2.5505                 2.6783                 3.1499
 Frc consts  --      0.0129                 0.0261                 0.0418
 IR Inten    --      0.5317                 0.8302                 0.5518

                     10                     11                     12
                      A                      A                      A
 Frequencies --    166.2269               210.0662               256.4479
 Red. masses --      2.2110                 1.5631                 2.0557
 Frc consts  --      0.0360                 0.0406                 0.0797
 IR Inten    --      0.2043                 0.3875                11.9356

                     13                     14                     15
                      A                      A                      A
 Frequencies --    261.7433               264.9292               275.5571
 Red. masses --      1.2557                 1.2324                 1.3482
 Frc consts  --      0.0507                 0.0510                 0.0603
 IR Inten    --      4.7977                15.7043                41.9939

                     16                     17                     18
                      A                      A                      A
 Frequencies --    295.9881               316.0835               318.1733
 Red. masses --      2.3741                 2.6813                 2.1995
 Frc consts  --      0.1225                 0.1578                 0.1312
 IR Inten    --     17.9146                 0.8844                11.1787

                     19                     20                     21
                      A                      A                      A
 Frequencies --    332.8969               363.9444               378.5833
 Red. masses --      3.6132                 2.8966                 2.2128
 Frc consts  --      0.2359                 0.2261                 0.1869
 IR Inten    --     31.4490                 2.1709                 8.2867

                     22                     23                     24
                      A                      A                      A
 Frequencies --    397.2053               422.1773               457.0015
 Red. masses --      2.3953                 2.7991                 2.5356
 Frc consts  --      0.2227                 0.2939                 0.3120
 IR Inten    --      0.5844                 2.0522                 3.8560

                     25                     26                     27
                      A                      A                      A
 Frequencies --    523.2123               527.2663               561.4900
 Red. masses --      4.3601                 2.7710                 4.8856
 Frc consts  --      0.7032                 0.4539                 0.9075
 IR Inten    --      3.4688                 3.3988                 3.9205

                     28                     29                     30
                      A                      A                      A
 Frequencies --    629.1559               648.0378               724.8059
 Red. masses --      4.1296                 3.1952                 1.3666
 Frc consts  --      0.9631                 0.7906                 0.4230
 IR Inten    --      2.2555                 9.4961                20.1913

                     31                     32                     33
                      A                      A                      A
 Frequencies --    767.2126               784.8829               791.1360
 Red. masses --      1.7308                 2.5207                 1.3287
 Frc consts  --      0.6003                 0.9149                 0.4900
 IR Inten    --      3.8845                 2.6485                 6.0058

                     34                     35                     36
                      A                      A                      A
 Frequencies --    838.6950               857.1296               914.9632
 Red. masses --      1.7646                 2.1681                 1.7477
 Frc consts  --      0.7313                 0.9385                 0.8620
 IR Inten    --      1.1748                 6.5302                 6.3915

                     37                     38                     39
                      A                      A                      A
 Frequencies --    924.6121               954.3770               986.4200
 Red. masses --      1.8238                 2.0452                 1.9874
 Frc consts  --      0.9187                 1.0976                 1.1394
 IR Inten    --      5.5882                28.7050                 0.7008

                     40                     41                     42
                      A                      A                      A
 Frequencies --    990.0397              1009.2372              1012.2097
 Red. masses --      1.8561                 1.8596                 1.6504
 Frc consts  --      1.0719                 1.1160                 0.9963
 IR Inten    --      8.1457                12.5531                 2.9008

                     43                     44                     45
                      A                      A                      A
 Frequencies --   1061.2502              1075.4403              1082.8869
 Red. masses --      1.6904                 1.3315                 1.7896
 Frc consts  --      1.1217                 0.9073                 1.2364
 IR Inten    --      0.7676                 1.9195                16.4047

                     46                     47                     48
                      A                      A                      A
 Frequencies --   1090.8401              1099.1051              1135.0054
 Red. masses --      1.8822                 1.7479                 1.6642
 Frc consts  --      1.3196                 1.2440                 1.2631
 IR Inten    --      5.9100                 7.2862                17.4684

                     49                     50                     51
                      A                      A                      A
 Frequencies --   1140.1705              1172.6258              1200.2244
 Red. masses --      2.1317                 2.2479                 1.9573
 Frc consts  --      1.6327                 1.8211                 1.6612
 IR Inten    --     11.0680                24.8068                34.8106

                     52                     53                     54
                      A                      A                      A
 Frequencies --   1243.7341              1258.4163              1290.8869
 Red. masses --      1.5661                 1.6449                 1.2053
 Frc consts  --      1.4273                 1.5348                 1.1834
 IR Inten    --     25.5557                23.4555                 1.0342

                     55                     56                     57
                      A                      A                      A
 Frequencies --   1301.3226              1319.1720              1323.1813
 Red. masses --      1.2780                 1.2783                 1.2140
 Frc consts  --      1.2751                 1.3107                 1.2523
 IR Inten    --      1.5248                36.6447                 2.1125

                     58                     59                     60
                      A                      A                      A
 Frequencies --   1347.6336              1362.4302              1385.7195
 Red. masses --      1.2456                 1.2105                 1.4115
 Frc consts  --      1.3329                 1.3239                 1.5969
 IR Inten    --     17.1671                53.5368                 8.4907

                     61                     62                     63
                      A                      A                      A
 Frequencies --   1394.5216              1408.9610              1424.5228
 Red. masses --      1.4721                 1.4536                 1.4038
 Frc consts  --      1.6867                 1.7002                 1.6784
 IR Inten    --      5.7963                 7.4464                15.2580

                     64                     65                     66
                      A                      A                      A
 Frequencies --   1427.2779              1432.9707              1438.8965
 Red. masses --      1.3670                 1.3150                 1.2252
 Frc consts  --      1.6407                 1.5909                 1.4945
 IR Inten    --      8.0842                 6.7164                 3.9537

                     67                     68                     69
                      A                      A                      A
 Frequencies --   1442.2399              1498.8828              1501.3804
 Red. masses --      1.2735                 1.0912                 1.0767
 Frc consts  --      1.5607                 1.4445                 1.4299
 IR Inten    --      2.9668                 2.2456                 1.4828

                     70                     71                     72
                      A                      A                      A
 Frequencies --   1511.0193              1516.2611              1518.9344
 Red. masses --      1.0729                 1.0687                 1.0401
 Frc consts  --      1.4432                 1.4476                 1.4138
 IR Inten    --      9.1674                 3.0561                 6.6149

                     73                     74                     75
                      A                      A                      A
 Frequencies --   1521.3205              1524.8683              1529.5158
 Red. masses --      1.0671                 1.0575                 1.0705
 Frc consts  --      1.4551                 1.4488                 1.4756
 IR Inten    --      2.1029                 5.2267                 2.1499

                     76                     77                     78
                      A                      A                      A
 Frequencies --   1533.3043              1536.6607              1537.8084
 Red. masses --      1.0467                 1.0568                 1.0673
 Frc consts  --      1.4499                 1.4703                 1.4871
 IR Inten    --      2.2958                 1.5839                 7.7494

                     79                     80                     81
                      A                      A                      A
 Frequencies --   1543.7518              2279.0579              3027.8245
 Red. masses --      1.0845                11.9834                 1.0716
 Frc consts  --      1.5227                36.6725                 5.7881
 IR Inten    --      2.3816                23.3223                21.3567

                     82                     83                     84
                      A                      A                      A
 Frequencies --   3032.1274              3034.7451              3042.1236
 Red. masses --      1.0617                 1.0635                 1.0454
 Frc consts  --      5.7511                 5.7708                 5.7002
 IR Inten    --     21.7938                29.3427                 1.0198

                     85                     86                     87
                      A                      A                      A
 Frequencies --   3046.5662              3055.5042              3058.0149
 Red. masses --      1.0593                 1.0366                 1.0568
 Frc consts  --      5.7927                 5.7018                 5.8227
 IR Inten    --     71.2247                23.3504                 7.2878

                     88                     89                     90
                      A                      A                      A
 Frequencies --   3062.1908              3063.9254              3069.3846
 Red. masses --      1.0901                 1.0554                 1.0911
 Frc consts  --      6.0228                 5.8373                 6.0565
 IR Inten    --     66.3122                 4.8469                29.6881

                     91                     92                     93
                      A                      A                      A
 Frequencies --   3078.5678              3092.6341              3104.6270
 Red. masses --      1.0594                 1.0935                 1.1012
 Frc consts  --      5.9155                 6.1618                 6.2535
 IR Inten    --     19.9695                33.6374                38.9448

                     94                     95                     96
                      A                      A                      A
 Frequencies --   3107.1225              3108.0537              3113.8991
 Red. masses --      1.1017                 1.0950                 1.1015
 Frc consts  --      6.2666                 6.2324                 6.2930
 IR Inten    --     46.2607                61.7338                39.3055

                     97                     98                     99
                      A                      A                      A
 Frequencies --   3122.6491              3126.8607              3128.9322
 Red. masses --      1.1019                 1.1032                 1.1024
 Frc consts  --      6.3308                 6.3551                 6.3589
 IR Inten    --     13.8205                 8.1479                23.1182

                    100                    101                    102
                      A                      A                      A
 Frequencies --   3147.9308              3150.8264              3735.7130
 Red. masses --      1.1057                 1.1027                 1.0662
 Frc consts  --      6.4557                 6.4502                 8.7670
 IR Inten    --     22.1951                25.0862                12.7548

 - Thermochemistry -
 -------------------
 Temperature   298.150 Kelvin.  Pressure   1.00000 Atm.
 Atom     1 has atomic number  6 and mass  12.00000

 Molecular mass:   214.13914 amu.
 Principal axes and moments of inertia in atomic units:
                           1         2         3
     Eigenvalues --  1992.054517566.636608769.07414
           X            0.99999  -0.00415  -0.00041
           Y            0.00415   0.99998   0.00571
           Z            0.00039  -0.00571   0.99998
 This molecule is an asymmetric top.
 Rotational symmetry number  1.
 Warning -- assumption of classical behavior for rotation
           may cause significant error
 Rotational temperatures (Kelvin)      0.04348     0.01145     0.00988
 Rotational constants (GHZ):           0.90597     0.23851     0.20581
 Zero-point vibrational energy     841820.4 (Joules/Mol)
                                  201.19992 (Kcal/Mol)
 Warning -- explicit consideration of  27 degrees of freedom as
           vibrations may cause significant error
 Vibrational temperatures:     24.48    30.93    64.52    83.42    91.08
          (Kelvin)            116.84   133.09   185.01   215.99   239.16
                              302.24   368.97   376.59   381.17   396.47
                              425.86   454.77   457.78   478.96   523.63
                              544.70   571.49   607.42   657.52   752.79
                              758.62   807.86   905.21   932.38  1042.83
                             1103.85  1129.27  1138.27  1206.70  1233.22
                             1316.43  1330.31  1373.14  1419.24  1424.45
                             1452.07  1456.34  1526.90  1547.32  1558.03
                             1569.48  1581.37  1633.02  1640.45  1687.15
                             1726.86  1789.46  1810.58  1857.30  1872.31
                             1897.99  1903.76  1938.94  1960.23  1993.74
                             2006.41  2027.18  2049.57  2053.53  2061.73
                             2070.25  2075.06  2156.56  2160.15  2174.02
                             2181.56  2185.41  2188.84  2193.95  2200.63
                             2206.08  2210.91  2212.56  2221.11  3279.06
                             4356.36  4362.56  4366.32  4376.94  4383.33
                             4396.19  4399.80  4405.81  4408.31  4416.16
                             4429.37  4449.61  4466.87  4470.46  4471.80
                             4480.21  4492.80  4498.86  4501.84  4529.17
                             4533.34  5374.86

 Zero-point correction=                           0.320632 (Hartree/Particle)
 Thermal correction to Energy=                    0.338812
 Thermal correction to Enthalpy=                  0.339756
 Thermal correction to Gibbs Free Energy=         0.272098
 Sum of electronic and zero-point Energies=           -943.616781
 Sum of electronic and thermal Energies=              -943.598602
 Sum of electronic and thermal Enthalpies=            -943.597658
 Sum of electronic and thermal Free Energies=         -943.665316

                     E (Thermal)             CV                S
                      KCal/Mol        Cal/Mol-Kelvin    Cal/Mol-Kelvin
 Total                  212.608             65.625            142.399
 Electronic               0.000              0.000              0.000
 Translational            0.889              2.981             41.988
 Rotational               0.889              2.981             33.246
 Vibrational            210.830             59.663             67.165
 Vibration     1          0.593              1.986              6.956
 Vibration     2          0.593              1.985              6.491
 Vibration     3          0.595              1.979              5.033
 Vibration     4          0.596              1.974              4.525
 Vibration     5          0.597              1.972              4.352
 Vibration     6          0.600              1.962              3.861
 Vibration     7          0.602              1.955              3.606
 Vibration     8          0.611              1.925              2.967
 Vibration     9          0.618              1.903              2.671
 Vibration    10          0.624              1.884              2.478
 Vibration    11          0.642              1.825              2.043
 Vibration    12          0.666              1.752              1.686
 Vibration    13          0.669              1.743              1.650
 Vibration    14          0.671              1.737              1.629
 Vibration    15          0.677              1.719              1.561
 Vibration    16          0.690              1.681              1.439
 Vibration    17          0.703              1.643              1.330
 Vibration    18          0.705              1.639              1.319
 Vibration    19          0.715              1.610              1.246
 Vibration    20          0.737              1.546              1.105
 Vibration    21          0.749              1.516              1.045
 Vibration    22          0.764              1.476              0.973
 Vibration    23          0.785              1.422              0.885
 Vibration    24          0.815              1.345              0.775
 Vibration    25          0.878              1.199              0.603
 Vibration    26          0.882              1.190              0.593
 Vibration    27          0.917              1.115              0.521

 Optimization completed.
    -- Stationary point found.
 Normal termination of Gaussian 16 at Thu Dec 10 09:43:14 2020.

 ----------------------------------------------------------------------
 # B3LYP/6-311++G(d,p) empiricaldispersion=gd3bj scf=xqc pop=npa geom=c
 heck
 ----------------------------------------------------------------------

 ---------------------------------------
 CID_134987266_JID_4277_Energie_neutraal
 ---------------------------------------
 Structure from the checkpoint file:  "JID_4277.chk"
 Charge =  0 Multiplicity = 1

 SCF Done:  E(RB3LYP) =  -944.127486138     A.U. after   14 cycles
 Normal termination of Gaussian 16 at Thu Dec 10 09:48:55 2020.

 ----------------------------------------------------------------------
 # B3LYP/6-311++G(d,p) empiricaldispersion=gd3bj scf=xqc pop=npa geom=c
 heck
 ----------------------------------------------------------------------

 -------------------------------------
 CID_134987266_JID_4277_Energie_kation
 -------------------------------------
 Structure from the checkpoint file:  "JID_4277.chk"
 Charge =  1 Multiplicity = 2

 SCF Done:  E(UB3LYP) =  -943.827471861     A.U. after   22 cycles
 Normal termination of Gaussian 16 at Thu Dec 10 10:01:58 2020.
 Gaussian 16:  ES64L-G16RevA.03 25-Dec-2016

 ----------------------------------------------------------------------
 # B3LYP/6-311++G(d,p) empiricaldispersion=gd3bj scf=xqc pop=npa geom=c
 heck
 ----------------------------------------------------------------------

 ------------------------------------
 CID_134987266_JID_4277_Energie_anion
 ------------------------------------
 Structure from the checkpoint file:  "JID_4277.chk"
 Charge = -1 Multiplicity = 2

                         Standard orientation:
 ---------------------------------------------------------------------
 Center     Atomic      Atomic             Coordinates (Angstroms)
 Number     Number       Type             X           Y           Z
 ---------------------------------------------------------------------
      1          6           0       -4.943632   -1.812937    0.323818
      2          6           0       -3.572862   -1.798770   -0.359502
      3          6           0       -3.229007   -0.466548   -1.042500
      4          6           0       -3.200110    0.759826   -0.117191
      5          6           0       -2.262883    0.635837    1.094940
      6          6           0       -0.790578    0.304044    0.804175
      7          6           0        0.024531    1.348570    0.006177
      8          6           0       -0.057843    2.756780    0.621807
      9          6           0        1.432599    0.923146   -0.034067
     10          6           0        2.600355    0.588903   -0.077132
     11         16           0        4.227365    0.132682   -0.125159
     12          6           0        4.061358   -1.688362   -0.422450
     13          6           0        3.300060   -2.415126    0.677401
     14          8           0       -0.519025    1.368444   -1.328058
     15          1           0       -4.992410   -1.093432    1.148906
     16          1           0       -5.173266   -2.802416    0.735259
     17          1           0       -5.738535   -1.553202   -0.386465
     18          1           0       -2.798098   -2.052183    0.376899
     19          1           0       -3.539121   -2.595954   -1.114055
     20          1           0       -2.257864   -0.552124   -1.542272
     21          1           0       -3.964673   -0.279128   -1.837632
     22          1           0       -2.908576    1.628513   -0.715028
     23          1           0       -4.211558    0.961920    0.260105
     24          1           0       -2.319116    1.560093    1.683813
     25          1           0       -2.637929   -0.153719    1.759609
     26          1           0       -0.272093    0.158502    1.758899
     27          1           0       -0.714544   -0.643376    0.259716
     28          1           0        0.273954    2.750706    1.664951
     29          1           0        0.582238    3.450343    0.066225
     30          1           0       -1.087274    3.120500    0.573754
     31          1           0        3.587870   -1.823737   -1.398587
     32          1           0        5.097844   -2.033918   -0.495899
     33          1           0        2.285522   -2.015724    0.769861
     34          1           0        3.227997   -3.483253    0.440483
     35          1           0        3.802177   -2.305900    1.643548
     36          1           0        0.099891    1.874840   -1.877930
 ---------------------------------------------------------------------

 SCF Done:  E(UB3LYP) =  -944.115168729     A.U. after   31 cycles

 The electronic state is 2-A.
 Alpha  occ. eigenvalues --  -88.77253 -19.02993 -10.15901 -10.10966 -10.08955
 Alpha  occ. eigenvalues --  -10.07466 -10.07247 -10.07095 -10.07087 -10.07076
 Alpha  occ. eigenvalues --  -10.06981 -10.06813 -10.06232 -10.06195  -7.85750
 Alpha  occ. eigenvalues --   -5.82174  -5.81746  -5.81149  -0.93483  -0.73119
 Alpha  occ. eigenvalues --   -0.72030  -0.70011  -0.66576  -0.64957  -0.61139
 Alpha  occ. eigenvalues --   -0.60843  -0.57260  -0.53556  -0.52029  -0.48958
 Alpha  occ. eigenvalues --   -0.45155  -0.44374  -0.39048  -0.38240  -0.36752
 Alpha  occ. eigenvalues --   -0.36139  -0.35501  -0.34915  -0.33033  -0.32907
 Alpha  occ. eigenvalues --   -0.31758  -0.30819  -0.30200  -0.29090  -0.28767
 Alpha  occ. eigenvalues --   -0.28308  -0.27646  -0.26843  -0.25592  -0.25412
 Alpha  occ. eigenvalues --   -0.25256  -0.23961  -0.23018  -0.22076  -0.21605
 Alpha  occ. eigenvalues --   -0.21494  -0.19262  -0.17087  -0.12720   0.04130
 Alpha virt. eigenvalues --    0.05772   0.06444   0.07319   0.07465   0.08452
 Alpha virt. eigenvalues --    0.08836   0.08844   0.09201   0.09702   0.10070
 Alpha virt. eigenvalues --    0.10599   0.10899   0.11187   0.11903   0.12208

  Beta  occ. eigenvalues --  -88.77248 -19.02973 -10.15903 -10.10904 -10.08952
  Beta  occ. eigenvalues --  -10.07457 -10.07207 -10.07065 -10.07062 -10.07054
  Beta  occ. eigenvalues --  -10.06964 -10.06791 -10.06226 -10.06187  -7.85745
  Beta  occ. eigenvalues --   -5.82161  -5.81740  -5.81145  -0.93441  -0.73055
  Beta  occ. eigenvalues --   -0.71996  -0.69976  -0.66531  -0.64910  -0.61100
  Beta  occ. eigenvalues --   -0.60775  -0.57218  -0.53488  -0.51912  -0.48915
  Beta  occ. eigenvalues --   -0.45105  -0.44331  -0.39022  -0.38191  -0.36728
  Beta  occ. eigenvalues --   -0.36105  -0.35458  -0.34873  -0.33000  -0.32839
  Beta  occ. eigenvalues --   -0.31720  -0.30793  -0.30170  -0.29018  -0.28741
  Beta  occ. eigenvalues --   -0.28273  -0.27621  -0.26792  -0.25560  -0.25335
  Beta  occ. eigenvalues --   -0.25227  -0.23927  -0.22992  -0.22050  -0.21580
  Beta  occ. eigenvalues --   -0.21467  -0.19225  -0.16981  -0.12681
  Beta virt. eigenvalues --    0.05956   0.06689   0.07077   0.07654   0.07771
  Beta virt. eigenvalues --    0.08658   0.08998   0.09132   0.09562   0.09924
  Beta virt. eigenvalues --    0.10365   0.10924   0.11138   0.11332   0.11937

 Mulliken charges and spin densities:
               1          2
     1  C    0.268684  -0.886143
     2  C   -0.431345   0.245609
     3  C   -0.018204  -0.226702
     4  C   -0.290208   0.096064
     5  C    0.159725  -0.585125
     6  C    0.032142  -0.424883
     7  C   -0.775183   0.492042
     8  C    0.579065  -1.302399
     9  C    0.528845   0.366549
    10  C   -0.065761   0.284684
    11  S   -0.356874  -0.264411
    12  C    0.235506  -0.458052
    13  C    0.391442  -0.896660
    14  O   -0.141655   0.025131
    15  H   -0.076041   0.211453
    16  H   -0.081420   0.212254
    17  H   -0.026972   0.156089
    18  H    0.041709   0.081362
    19  H   -0.072624   0.211099
    20  H    0.095126   0.107634
    21  H    0.017033   0.123863
    22  H    0.049628   0.116757
    23  H    0.014915   0.142846
    24  H    0.045461   0.109799
    25  H   -0.054782   0.236549
    26  H   -0.094282   0.283814
    27  H    0.232878  -0.152307
    28  H   -0.118530   0.299697
    29  H   -0.052509   0.204084
    30  H   -0.088324   0.222342
    31  H   -0.055399   0.252666
    32  H   -0.544221   0.713600
    33  H   -0.077702   0.200270
    34  H   -0.266870   0.405901
    35  H   -0.073937   0.209226
    36  H    0.070680   0.185298
 Sum of Mulliken charges =  -1.00000   1.00000

 Dipole moment (field-independent basis, Debye):
    X=             -2.6241    Y=              2.5560    Z=             -0.2390  Tot=              3.6710
 Quadrupole moment (field-independent basis, Debye-Ang):
   XX=           -194.2883   YY=           -146.1530   ZZ=           -127.9891
   XY=              9.1537   XZ=              3.4524   YZ=             -1.9340

 Summary of Natural Population Analysis:

                                       Natural Population
                Natural  -----------------------------------------------
    Atom  No    Charge         Core      Valence    Rydberg      Total
 -----------------------------------------------------------------------
      C    1   -0.28638      0.99967     2.28230    0.00441     3.28638
      C    2   -0.19208      0.99964     2.18570    0.00674     3.19208
      C    3   -0.19205      0.99962     2.18497    0.00746     3.19205
      C    4   -0.19263      0.99962     2.18533    0.00768     3.19263
      C    5   -0.19446      0.99962     2.18482    0.01001     3.19446
      C    6   -0.18888      0.99958     2.17832    0.01098     3.18888
      C    7    0.09521      0.99948     1.89029    0.01502     2.90479
      C    8   -0.28675      0.99963     2.28133    0.00579     3.28675
      C    9   -0.01821      0.99920     2.00780    0.01121     3.01821
      C   10   -0.11981      0.99908     2.11228    0.00845     3.11981
      S   11    0.14439      4.99946     2.83432    0.02183     7.85561
      C   12   -0.23620      0.99960     2.22595    0.01065     3.23620
      C   13   -0.29304      0.99965     2.28657    0.00682     3.29304
      O   14   -0.37087      0.99989     3.36410    0.00687     4.37087
      H   15    0.09629      0.00000     0.40253    0.00119     0.40371
      H   16    0.09676      0.00000     0.40209    0.00115     0.40324
      H   17    0.09328      0.00000     0.40550    0.00122     0.40672
      H   18    0.09366      0.00000     0.40491    0.00143     0.40634
      H   19    0.09402      0.00000     0.40478    0.00120     0.40598
      H   20    0.10586      0.00000     0.39249    0.00165     0.39414
      H   21    0.09191      0.00000     0.40693    0.00116     0.40809
      H   22    0.10494      0.00000     0.39356    0.00150     0.39506
      H   23    0.09194      0.00000     0.40683    0.00122     0.40806
      H   24    0.09781      0.00000     0.40102    0.00117     0.40219
      H   25    0.09813      0.00000     0.40073    0.00114     0.40187
      H   26    0.10469      0.00000     0.39415    0.00116     0.39531
      H   27    0.10365      0.00000     0.39460    0.00175     0.39635
      H   28    0.10416      0.00000     0.39461    0.00123     0.39584
      H   29    0.10175      0.00000     0.39706    0.00119     0.39825
      H   30    0.10411      0.00000     0.39463    0.00126     0.39589
      H   31    0.10288      0.00000     0.39550    0.00162     0.39712
      H   32    0.10617      0.00000     0.39076    0.00307     0.39383
      H   33    0.10546      0.00000     0.39313    0.00142     0.39454
      H   34    0.10278      0.00000     0.39594    0.00127     0.39722
      H   35    0.09983      0.00000     0.39870    0.00147     0.40017
      H   36    0.23166      0.00000     0.26553    0.00281     0.26834
 =======================================================================
   * Total *    0.00000     17.99376    40.84004    0.16620    59.00000

 Normal termination of Gaussian 16 at Thu Dec 10 10:20:59 2020.
