 Gaussian 16, Revision A.03,

 -----------------------------------------------------------
 # opt freq B3LYP/6-31G(d) empiricaldispersion=gd3bj scf=xqc
 -----------------------------------------------------------

 -------------------------------
 CID_143492570_JID_8358_neutraal
 -------------------------------
 Symbolic Z-matrix:
 Charge =  0 Multiplicity = 1

 SCF Done:  E(RB3LYP) =  -798.985197397     A.U. after   15 cycles
 SCF Done:  E(RB3LYP) =  -799.002203331     A.U. after   12 cycles
 SCF Done:  E(RB3LYP) =  -799.004444421     A.U. after   12 cycles
 SCF Done:  E(RB3LYP) =  -799.005533776     A.U. after   12 cycles
 SCF Done:  E(RB3LYP) =  -799.006393917     A.U. after   12 cycles
 SCF Done:  E(RB3LYP) =  -799.006748923     A.U. after   11 cycles
 SCF Done:  E(RB3LYP) =  -799.006926817     A.U. after   12 cycles
 SCF Done:  E(RB3LYP) =  -799.006941575     A.U. after   11 cycles
 SCF Done:  E(RB3LYP) =  -799.006977224     A.U. after   10 cycles
 SCF Done:  E(RB3LYP) =  -799.006990105     A.U. after   10 cycles
 SCF Done:  E(RB3LYP) =  -799.006992450     A.U. after   10 cycles
 SCF Done:  E(RB3LYP) =  -799.006997318     A.U. after    9 cycles
 SCF Done:  E(RB3LYP) =  -799.006998109     A.U. after    7 cycles
 SCF Done:  E(RB3LYP) =  -799.006998247     A.U. after    7 cycles
 SCF Done:  E(RB3LYP) =  -799.006998272     A.U. after    6 cycles
 Optimization completed.
    -- Stationary point found.
 Normal termination of Gaussian 16 at Fri Dec 11 20:17:21 2020.

 --------------------------------------------------------------------
 #N Geom=AllCheck Guess=TCheck SCRF=Check GenChk RB3LYP/6-31G(d) Freq
 --------------------------------------------------------------------

 Structure from the checkpoint file:  "JID_8358.chk"
 -------------------------------
 CID_143492570_JID_8358_neutraal
 -------------------------------
 Charge =  0 Multiplicity = 1

 SCF Done:  E(RB3LYP) =  -799.006998272     A.U. after    1 cycles

  Exact polarizability: 208.394   8.383 166.648  -6.501  -8.704 122.684
 Approx polarizability: 269.538  22.555 231.136 -13.491 -16.909 188.578

                      1                      2                      3
                      A                      A                      A
 Frequencies --     25.2592                31.3952                46.5999
 Red. masses --      3.3286                 3.1208                 3.2022
 Frc consts  --      0.0013                 0.0018                 0.0041
 IR Inten    --      0.0062                 0.8070                 0.2837

                      4                      5                      6
                      A                      A                      A
 Frequencies --     70.4065                74.9815                91.6961
 Red. masses --      3.2940                 3.5276                 3.1998
 Frc consts  --      0.0096                 0.0117                 0.0159
 IR Inten    --      1.5648                 0.9605                 1.7649

                      7                      8                      9
                      A                      A                      A
 Frequencies --    121.5865               136.4179               143.7635
 Red. masses --      3.2851                 2.6940                 3.6613
 Frc consts  --      0.0286                 0.0295                 0.0446
 IR Inten    --      0.3679                 0.6426                 2.2960

                     10                     11                     12
                      A                      A                      A
 Frequencies --    194.0737               210.2056               233.7890
 Red. masses --      3.0859                 2.6377                 1.5278
 Frc consts  --      0.0685                 0.0687                 0.0492
 IR Inten    --      0.5878                 1.5783                 0.9000

                     13                     14                     15
                      A                      A                      A
 Frequencies --    257.0818               267.2507               304.8930
 Red. masses --      2.3260                 2.9411                 2.5087
 Frc consts  --      0.0906                 0.1238                 0.1374
 IR Inten    --      0.5160                 3.9441                11.9090

                     16                     17                     18
                      A                      A                      A
 Frequencies --    316.2745               344.0288               359.9919
 Red. masses --      1.2922                 2.9267                 3.3431
 Frc consts  --      0.0762                 0.2041                 0.2553
 IR Inten    --     39.2843                 2.2241                 3.4356

                     19                     20                     21
                      A                      A                      A
 Frequencies --    370.5152               388.2517               410.6678
 Red. masses --      1.6195                 1.5225                 3.1020
 Frc consts  --      0.1310                 0.1352                 0.3082
 IR Inten    --     19.3239                29.2983                16.3250

                     22                     23                     24
                      A                      A                      A
 Frequencies --    422.5954               453.0361               469.7300
 Red. masses --      3.1660                 2.6155                 2.7973
 Frc consts  --      0.3331                 0.3163                 0.3637
 IR Inten    --      5.6768                10.7436                13.4133

                     25                     26                     27
                      A                      A                      A
 Frequencies --    509.9413               553.4082               566.1806
 Red. masses --      2.8805                 3.9703                 2.9961
 Frc consts  --      0.4413                 0.7164                 0.5659
 IR Inten    --     40.5529                 3.4013                 6.1894

                     28                     29                     30
                      A                      A                      A
 Frequencies --    599.9778               623.2833               652.3769
 Red. masses --      1.6897                 3.4714                 3.8448
 Frc consts  --      0.3584                 0.7946                 0.9641
 IR Inten    --     91.4525                31.3689                16.7195

                     31                     32                     33
                      A                      A                      A
 Frequencies --    722.4050               773.4148               774.6156
 Red. masses --      2.7413                 1.4970                 1.3705
 Frc consts  --      0.8429                 0.5276                 0.4845
 IR Inten    --    127.3014                51.6236                 1.6321

                     34                     35                     36
                      A                      A                      A
 Frequencies --    782.7230               787.6918               810.3530
 Red. masses --      2.1724                 1.4423                 1.8474
 Frc consts  --      0.7842                 0.5272                 0.7148
 IR Inten    --      9.6268               113.6574               221.2568

                     37                     38                     39
                      A                      A                      A
 Frequencies --    821.9435               845.3631               852.3423
 Red. masses --      1.9126                 1.6483                 2.1120
 Frc consts  --      0.7613                 0.6940                 0.9040
 IR Inten    --     16.3568                15.0711                 1.2432

                     40                     41                     42
                      A                      A                      A
 Frequencies --    892.5709               899.1427               907.4895
 Red. masses --      1.7662                 4.0996                 1.5220
 Frc consts  --      0.8291                 1.9528                 0.7385
 IR Inten    --     55.7033                 7.6803                 4.3322

                     43                     44                     45
                      A                      A                      A
 Frequencies --    929.9219               939.0731               959.1028
 Red. masses --      2.2272                 3.1969                 2.3684
 Frc consts  --      1.1348                 1.6611                 1.2836
 IR Inten    --     40.6469                12.6072                31.4335

                     46                     47                     48
                      A                      A                      A
 Frequencies --    962.4026              1015.0204              1020.7903
 Red. masses --      2.5909                 2.3523                 1.8107
 Frc consts  --      1.4139                 1.4279                 1.1116
 IR Inten    --     65.2096                 4.1578                 7.3191

                     49                     50                     51
                      A                      A                      A
 Frequencies --   1027.9822              1047.2809              1060.7891
 Red. masses --      2.6451                 1.9907                 2.0913
 Frc consts  --      1.6469                 1.2864                 1.3865
 IR Inten    --      0.1457                14.1859                 8.6094

                     52                     53                     54
                      A                      A                      A
 Frequencies --   1066.0813              1071.8240              1096.8461
 Red. masses --      1.7812                 1.4117                 2.1333
 Frc consts  --      1.1928                 0.9555                 1.5121
 IR Inten    --      5.4799                 2.2486                10.7533

                     55                     56                     57
                      A                      A                      A
 Frequencies --   1109.6891              1140.1795              1148.5983
 Red. masses --      1.7995                 2.9321                 1.4010
 Frc consts  --      1.3056                 2.2459                 1.0890
 IR Inten    --     12.2115                37.3305                23.3876

                     58                     59                     60
                      A                      A                      A
 Frequencies --   1149.7285              1157.2250              1159.4029
 Red. masses --      1.2100                 1.6189                 1.2434
 Frc consts  --      0.9424                 1.2773                 0.9848
 IR Inten    --      6.9630                 7.1827                 6.3631

                     61                     62                     63
                      A                      A                      A
 Frequencies --   1180.4069              1197.8490              1208.5240
 Red. masses --      1.6283                 1.4657                 1.8855
 Frc consts  --      1.3368                 1.2390                 1.6225
 IR Inten    --     20.8218                22.9651                19.9234

                     64                     65                     66
                      A                      A                      A
 Frequencies --   1210.5423              1216.6905              1241.1465
 Red. masses --      1.7450                 2.3020                 1.8363
 Frc consts  --      1.5066                 2.0078                 1.6666
 IR Inten    --     13.7737                15.4216                 1.6511

                     67                     68                     69
                      A                      A                      A
 Frequencies --   1244.6474              1285.0447              1297.7864
 Red. masses --      1.5819                 1.4895                 1.6654
 Frc consts  --      1.4439                 1.4492                 1.6527
 IR Inten    --     14.7155                 7.2645                 2.4606

                     70                     71                     72
                      A                      A                      A
 Frequencies --   1308.1208              1309.0416              1317.0119
 Red. masses --      1.4681                 1.4181                 2.0304
 Frc consts  --      1.4801                 1.4318                 2.0750
 IR Inten    --     11.8861                 4.6911               117.7594

                     73                     74                     75
                      A                      A                      A
 Frequencies --   1352.6638              1357.6487              1398.0929
 Red. masses --      1.4392                 1.4616                 2.1165
 Frc consts  --      1.5515                 1.5872                 2.4375
 IR Inten    --     32.4084                38.6367                15.7179

                     76                     77                     78
                      A                      A                      A
 Frequencies --   1406.0779              1426.2771              1437.1898
 Red. masses --      1.6375                 4.7956                 1.6662
 Frc consts  --      1.9075                 5.7478                 2.0277
 IR Inten    --     22.5665                82.8274                 0.1701

                     79                     80                     81
                      A                      A                      A
 Frequencies --   1483.3362              1495.2872              1498.1186
 Red. masses --      1.2189                 1.2172                 1.0882
 Frc consts  --      1.5801                 1.6035                 1.4390
 IR Inten    --      3.1408                 5.8699                 1.1907

                     82                     83                     84
                      A                      A                      A
 Frequencies --   1503.4174              1504.9545              1519.3795
 Red. masses --      1.1019                 2.3845                 1.0805
 Frc consts  --      1.4674                 3.1820                 1.4697
 IR Inten    --      0.7574               381.4051                 3.9973

                     85                     86                     87
                      A                      A                      A
 Frequencies --   1521.7352              1539.3188              1541.1025
 Red. masses --      1.0537                 1.3670                 1.1155
 Frc consts  --      1.4377                 1.9084                 1.5610
 IR Inten    --      7.3068                 0.5022                20.7276

                     88                     89                     90
                      A                      A                      A
 Frequencies --   1547.3193              1658.7638              1691.7150
 Red. masses --      1.0701                 1.1972                 1.0937
 Frc consts  --      1.5096                 1.9409                 1.8443
 IR Inten    --      1.3603                47.3944                37.6496

                     91                     92                     93
                      A                      A                      A
 Frequencies --   1734.2866              1782.5526              2956.3106
 Red. masses --      5.4429                 8.0005                 1.0611
 Frc consts  --      9.6454                14.9780                 5.4640
 IR Inten    --     98.3412               505.7205                87.5283

                     94                     95                     96
                      A                      A                      A
 Frequencies --   2975.3961              3026.6800              3032.1290
 Red. masses --      1.0842                 1.0613                 1.0626
 Frc consts  --      5.6550                 5.7281                 5.7560
 IR Inten    --     70.7837                48.1187                30.2159

                     97                     98                     99
                      A                      A                      A
 Frequencies --   3044.5805              3077.9087              3080.2529
 Red. masses --      1.0598                 1.0999                 1.0741
 Frc consts  --      5.7879                 6.1393                 6.0042
 IR Inten    --     46.4818                31.4606                28.5014

                    100                    101                    102
                      A                      A                      A
 Frequencies --   3091.5728              3101.6553              3127.8099
 Red. masses --      1.1028                 1.1077                 1.1021
 Frc consts  --      6.2104                 6.2787                 6.3525
 IR Inten    --     34.9740                48.7051                32.2633

                    103                    104                    105
                      A                      A                      A
 Frequencies --   3137.0450              3146.6277              3155.1996
 Red. masses --      1.0536                 1.0824                 1.0641
 Frc consts  --      6.1087                 6.3142                 6.2414
 IR Inten    --     31.8287                25.4513                13.2530

                    106                    107                    108
                      A                      A                      A
 Frequencies --   3212.7364              3239.2409              3240.2215
 Red. masses --      1.1179                 1.0915                 1.1125
 Frc consts  --      6.7985                 6.7480                 6.8819
 IR Inten    --     11.6140                 3.0959                23.6660

                    109                    110                    111
                      A                      A                      A
 Frequencies --   3438.6283              3489.3932              3520.0010
 Red. masses --      1.0499                 1.0741                 1.0493
 Frc consts  --      7.3145                 7.7056                 7.6603
 IR Inten    --      3.4802                 0.4151                 9.4820

                    112                    113                    114
                      A                      A                      A
 Frequencies --   3526.5373              3553.9644              3627.8601
 Red. masses --      1.0908                 1.0750                 1.0951
 Frc consts  --      7.9929                 8.0002                 8.4917
 IR Inten    --      3.1663                11.9063                13.2984

 - Thermochemistry -
 -------------------
 Temperature   298.150 Kelvin.  Pressure   1.00000 Atm.
 Atom     1 has atomic number  6 and mass  12.00000

 Molecular mass:   250.19059 amu.
 Principal axes and moments of inertia in atomic units:
                           1         2         3
     Eigenvalues --  3064.050237997.07840**********
           X            0.99999   0.00438  -0.00291
           Y           -0.00439   0.99999  -0.00264
           Z            0.00290   0.00265   0.99999
 This molecule is an asymmetric top.
 Rotational symmetry number  1.
 Warning -- assumption of classical behavior for rotation
           may cause significant error
 Rotational temperatures (Kelvin)      0.02827     0.01083     0.00852
 Rotational constants (GHZ):           0.58901     0.22568     0.17752
 Zero-point vibrational energy     923513.8 (Joules/Mol)
                                  220.72510 (Kcal/Mol)
 Warning -- explicit consideration of  28 degrees of freedom as
           vibrations may cause significant error
 Vibrational temperatures:     36.34    45.17    67.05   101.30   107.88
          (Kelvin)            131.93   174.94   196.27   206.84   279.23
                              302.44   336.37   369.88   384.51   438.67
                              455.05   494.98   517.95   533.09   558.61
                              590.86   608.02   651.82   675.84   733.69
                              796.23   814.61   863.23   896.77   938.62
                             1039.38  1112.77  1114.50  1126.16  1133.31
                             1165.92  1182.59  1216.29  1226.33  1284.21
                             1293.67  1305.68  1337.95  1351.12  1379.94
                             1384.68  1460.39  1468.69  1479.04  1506.80
                             1526.24  1533.85  1542.12  1578.12  1596.60
                             1640.46  1652.58  1654.20  1664.99  1668.12
                             1698.34  1723.44  1738.80  1741.70  1750.55
                             1785.73  1790.77  1848.89  1867.23  1882.09
                             1883.42  1894.89  1946.18  1953.35  2011.54
                             2023.03  2052.09  2067.80  2134.19  2151.38
                             2155.46  2163.08  2165.29  2186.05  2189.44
                             2214.74  2217.30  2226.25  2386.59  2434.00
                             2495.25  2564.70  4253.47  4280.93  4354.72
                             4362.56  4380.47  4428.42  4431.80  4448.08
                             4462.59  4500.22  4513.51  4527.30  4539.63
                             4622.41  4660.55  4661.96  4947.42  5020.46
                             5064.50  5073.90  5113.36  5219.68

 Zero-point correction=                           0.351748 (Hartree/Particle)
 Thermal correction to Energy=                    0.370104
 Thermal correction to Enthalpy=                  0.371048
 Thermal correction to Gibbs Free Energy=         0.304166
 Sum of electronic and zero-point Energies=           -798.655250
 Sum of electronic and thermal Energies=              -798.636895
 Sum of electronic and thermal Enthalpies=            -798.635951
 Sum of electronic and thermal Free Energies=         -798.702833

                     E (Thermal)             CV                S
                      KCal/Mol        Cal/Mol-Kelvin    Cal/Mol-Kelvin
 Total                  232.243             70.777            140.765
 Electronic               0.000              0.000              0.000
 Translational            0.889              2.981             42.452
 Rotational               0.889              2.981             33.876
 Vibrational            230.466             64.815             64.437
 Vibration     1          0.593              1.985              6.171
 Vibration     2          0.594              1.983              5.739
 Vibration     3          0.595              1.979              4.957
 Vibration     4          0.598              1.968              4.142
 Vibration     5          0.599              1.966              4.018
 Vibration     6          0.602              1.955              3.624
 Vibration     7          0.609              1.931              3.075
 Vibration     8          0.614              1.917              2.854
 Vibration     9          0.616              1.909              2.753
 Vibration    10          0.635              1.848              2.189
 Vibration    11          0.642              1.825              2.042
 Vibration    12          0.654              1.789              1.850
 Vibration    13          0.667              1.751              1.682
 Vibration    14          0.672              1.733              1.614
 Vibration    15          0.696              1.664              1.390
 Vibration    16          0.703              1.643              1.329
 Vibration    17          0.723              1.587              1.193
 Vibration    18          0.734              1.555              1.122
 Vibration    19          0.743              1.533              1.078
 Vibration    20          0.756              1.495              1.007
 Vibration    21          0.775              1.447              0.924
 Vibration    22          0.785              1.421              0.883
 Vibration    23          0.812              1.354              0.787
 Vibration    24          0.827              1.317              0.738
 Vibration    25          0.865              1.228              0.634
 Vibration    26          0.909              1.132              0.537
 Vibration    27          0.922              1.104              0.512
 Vibration    28          0.958              1.032              0.450

 Optimization completed.
    -- Stationary point found.
 Normal termination of Gaussian 16 at Fri Dec 11 20:36:40 2020.

 ----------------------------------------------------------------------
 # B3LYP/6-311++G(d,p) empiricaldispersion=gd3bj scf=xqc pop=npa geom=c
 heck
 ----------------------------------------------------------------------

 ---------------------------------------
 CID_143492570_JID_8358_Energie_neutraal
 ---------------------------------------
 Structure from the checkpoint file:  "JID_8358.chk"
 Charge =  0 Multiplicity = 1

 SCF Done:  E(RB3LYP) =  -799.246387215     A.U. after   15 cycles
 Normal termination of Gaussian 16 at Fri Dec 11 20:46:02 2020.

 ----------------------------------------------------------------------
 # B3LYP/6-311++G(d,p) empiricaldispersion=gd3bj scf=xqc pop=npa geom=c
 heck
 ----------------------------------------------------------------------

 -------------------------------------
 CID_143492570_JID_8358_Energie_kation
 -------------------------------------
 Structure from the checkpoint file:  "JID_8358.chk"
 Charge =  1 Multiplicity = 2

 SCF Done:  E(UB3LYP) =  -798.984757660     A.U. after   22 cycles
 Normal termination of Gaussian 16 at Fri Dec 11 21:05:30 2020.
 Gaussian 16:  ES64L-G16RevA.03 25-Dec-2016

 ----------------------------------------------------------------------
 # B3LYP/6-311++G(d,p) empiricaldispersion=gd3bj scf=xqc pop=npa geom=c
 heck
 ----------------------------------------------------------------------

 ------------------------------------
 CID_143492570_JID_8358_Energie_anion
 ------------------------------------
 Structure from the checkpoint file:  "JID_8358.chk"
 Charge = -1 Multiplicity = 2

                         Standard orientation:
 ---------------------------------------------------------------------
 Center     Atomic      Atomic             Coordinates (Angstroms)
 Number     Number       Type             X           Y           Z
 ---------------------------------------------------------------------
      1          6           0        5.799943   -0.790265   -0.311852
      2          7           0        4.611514   -0.993561    0.508654
      3          6           0        3.399364   -1.120634   -0.278420
      4          6           0        2.131344   -1.306577    0.587806
      5          7           0        1.797934    0.108291    0.378545
      6          6           0        2.803067    0.247849   -0.702694
      7          6           0        0.487466    0.544561    0.236562
      8          6           0       -0.624817   -0.153973    0.512124
      9          6           0       -1.997854    0.464903    0.401120
     10          7           0       -1.966641    1.892020    0.026329
     11          6           0       -0.855279    2.476533   -0.192868
     12          7           0        0.410529    1.875172   -0.226121
     13          7           0       -0.790754    3.859446   -0.400631
     14          6           0       -2.852110   -0.241001   -0.684616
     15          6           0       -2.858546   -1.753483   -0.638316
     16          6           0       -3.694335   -2.494986    0.370892
     17          6           0       -4.083589   -2.517406   -1.086666
     18          7           0       -2.679423    0.303154    1.695919
     19          1           0        5.725573    0.173692   -0.827889
     20          1           0        5.955677   -1.568648   -1.082127
     21          1           0        6.685449   -0.754557    0.329889
     22          1           0        4.728029   -1.834846    1.070797
     23          1           0        3.491797   -1.839231   -1.110115
     24          1           0        1.402098   -1.992978    0.134989
     25          1           0        2.291392   -1.580877    1.636454
     26          1           0        3.470378    1.108618   -0.591157
     27          1           0        2.361818    0.243902   -1.707618
     28          1           0       -0.566279   -1.182730    0.842040
     29          1           0        1.159524    2.470904    0.111520
     30          1           0       -1.725798    4.237762   -0.507858
     31          1           0       -0.197021    4.121275   -1.182195
     32          1           0       -3.878470    0.142656   -0.600212
     33          1           0       -2.476951    0.092150   -1.659826
     34          1           0       -1.904159   -2.210371   -0.893298
     35          1           0       -3.287915   -3.401768    0.810949
     36          1           0       -4.280566   -1.895743    1.059170
     37          1           0       -4.953681   -1.941415   -1.392960
     38          1           0       -3.944597   -3.437957   -1.647675
     39          1           0       -2.113114    0.774936    2.401158
     40          1           0       -3.553217    0.830448    1.648666
 ---------------------------------------------------------------------

 SCF Done:  E(UB3LYP) =  -799.237762234     A.U. after   31 cycles

 The electronic state is 2-A.
 Alpha  occ. eigenvalues --  -14.24885 -14.23301 -14.22617 -14.21010 -14.19646
 Alpha  occ. eigenvalues --  -14.18433 -10.17718 -10.14519 -10.13973 -10.11412
 Alpha  occ. eigenvalues --  -10.11238 -10.10764 -10.09333 -10.08713 -10.08660
 Alpha  occ. eigenvalues --  -10.08141 -10.07269 -10.05285  -0.91132  -0.87448
 Alpha  occ. eigenvalues --   -0.82098  -0.81603  -0.79482  -0.77125  -0.74791
 Alpha  occ. eigenvalues --   -0.68508  -0.64704  -0.62057  -0.59787  -0.57356
 Alpha  occ. eigenvalues --   -0.53505  -0.52421  -0.51534  -0.48138  -0.47102
 Alpha  occ. eigenvalues --   -0.45858  -0.44280  -0.42735  -0.41572  -0.40947
 Alpha  occ. eigenvalues --   -0.40425  -0.38717  -0.38231  -0.36957  -0.36386
 Alpha  occ. eigenvalues --   -0.35303  -0.33638  -0.33093  -0.32626  -0.31614
 Alpha  occ. eigenvalues --   -0.30790  -0.29996  -0.28907  -0.28603  -0.27931
 Alpha  occ. eigenvalues --   -0.27355  -0.26075  -0.25990  -0.23756  -0.23709
 Alpha  occ. eigenvalues --   -0.21227  -0.19574  -0.17792  -0.16872  -0.16487
 Alpha  occ. eigenvalues --   -0.14353  -0.13541  -0.10803   0.03826
 Alpha virt. eigenvalues --    0.05489   0.06362   0.07322   0.07358   0.07942
 Alpha virt. eigenvalues --    0.07963   0.08655   0.09185   0.09842   0.10113
 Alpha virt. eigenvalues --    0.10481   0.10714   0.11164   0.11270   0.11546

  Beta  occ. eigenvalues --  -14.24863 -14.23300 -14.22563 -14.20986 -14.19643
  Beta  occ. eigenvalues --  -14.18425 -10.17716 -10.14519 -10.13972 -10.11397
  Beta  occ. eigenvalues --  -10.11227 -10.10736 -10.09292 -10.08710 -10.08659
  Beta  occ. eigenvalues --  -10.08139 -10.07266 -10.05279  -0.91110  -0.87428
  Beta  occ. eigenvalues --   -0.82078  -0.81568  -0.79435  -0.77119  -0.74764
  Beta  occ. eigenvalues --   -0.68482  -0.64690  -0.62033  -0.59744  -0.57282
  Beta  occ. eigenvalues --   -0.53474  -0.52380  -0.51527  -0.48117  -0.47056
  Beta  occ. eigenvalues --   -0.45808  -0.44241  -0.42698  -0.41529  -0.40938
  Beta  occ. eigenvalues --   -0.40390  -0.38676  -0.38197  -0.36901  -0.36378
  Beta  occ. eigenvalues --   -0.35286  -0.33607  -0.33063  -0.32599  -0.31588
  Beta  occ. eigenvalues --   -0.30768  -0.29968  -0.28900  -0.28556  -0.27926
  Beta  occ. eigenvalues --   -0.27339  -0.26046  -0.25979  -0.23724  -0.23676
  Beta  occ. eigenvalues --   -0.21222  -0.19569  -0.17768  -0.16848  -0.16471
  Beta  occ. eigenvalues --   -0.14303  -0.13516  -0.10782
  Beta virt. eigenvalues --    0.05991   0.06543   0.06743   0.07558   0.07617
  Beta virt. eigenvalues --    0.08340   0.08421   0.08863   0.09432   0.10068
  Beta virt. eigenvalues --    0.10334   0.10652   0.11012   0.11519   0.11572

 Mulliken charges and spin densities:
               1          2
     1  C    0.965799  -1.310970
     2  N   -0.055277   0.017633
     3  C   -1.618103   1.324882
     4  C    1.063827  -1.339542
     5  N    0.052137   0.051813
     6  C    0.953606  -1.338684
     7  C   -0.770116   0.063924
     8  C    0.206427  -0.384562
     9  C    0.236891  -0.165040
    10  N    0.028705  -0.110792
    11  C   -0.065371  -0.014078
    12  N   -0.227469   0.113431
    13  N   -0.499695   0.214436
    14  C   -0.475803  -0.355873
    15  C    0.395062   0.174193
    16  C   -0.504548  -0.026843
    17  C   -0.162129  -0.183221
    18  N   -0.193214  -0.011225
    19  H   -0.221387   0.349977
    20  H   -0.329130   0.445053
    21  H   -0.322473   0.457715
    22  H   -0.021711   0.241566
    23  H   -0.300795   0.496964
    24  H   -0.031685   0.123447
    25  H    0.025063   0.153380
    26  H   -0.072903   0.250544
    27  H   -0.109525   0.262578
    28  H    0.189134  -0.015374
    29  H   -0.034577   0.340968
    30  H   -0.018809   0.286547
    31  H   -0.389431   0.650161
    32  H    0.127871   0.027493
    33  H    0.084836   0.065834
    34  H    0.197178   0.036577
    35  H    0.089565   0.034172
    36  H    0.149261   0.001210
    37  H    0.118295  -0.005145
    38  H    0.098457   0.036923
    39  H    0.220941   0.026085
    40  H    0.221100   0.013839
 Sum of Mulliken charges =  -1.00000   1.00000

 Dipole moment (field-independent basis, Debye):
    X=             -7.8867    Y=             -3.2032    Z=              2.1377  Tot=              8.7767
 Quadrupole moment (field-independent basis, Debye-Ang):
   XX=           -207.0933   YY=           -169.6510   ZZ=           -143.5113
   XY=              6.2247   XZ=              4.9707   YZ=              6.6919

 Summary of Natural Population Analysis:

                                       Natural Population
                Natural  -----------------------------------------------
    Atom  No    Charge         Core      Valence    Rydberg      Total
 -----------------------------------------------------------------------
      C    1   -0.17768      0.99966     2.17090    0.00712     3.17768
      N    2   -0.33433      0.99973     2.82258    0.01202     3.83433
      C    3   -0.01649      0.99958     2.00269    0.01422     3.01649
      C    4   -0.07584      0.99963     2.06482    0.01140     3.07584
      N    5   -0.26543      0.99966     2.75381    0.01196     3.76543
      C    6   -0.07758      0.99962     2.06659    0.01137     3.07758
      C    7    0.19874      0.99944     1.78907    0.01275     2.80126
      C    8   -0.18477      0.99945     2.17665    0.00868     3.18477
      C    9    0.13594      0.99957     1.84818    0.01632     2.86406
      N   10   -0.30541      0.99963     2.79450    0.01128     3.80541
      C   11    0.30954      0.99959     1.67415    0.01672     2.69046
      N   12   -0.32802      0.99964     2.81680    0.01158     3.82802
      N   13   -0.40744      0.99972     2.89743    0.01029     3.90744
      C   14   -0.18915      0.99956     2.17667    0.01292     3.18915
      C   15   -0.11665      0.99959     2.10591    0.01115     3.11665
      C   16   -0.19516      0.99962     2.18842    0.00712     3.19516
      C   17   -0.20068      0.99963     2.19436    0.00670     3.20068
      N   18   -0.42027      0.99975     2.91164    0.00889     3.92027
      H   19    0.09262      0.00000     0.40560    0.00178     0.40738
      H   20    0.07965      0.00000     0.41765    0.00270     0.42035
      H   21    0.09573      0.00000     0.40293    0.00133     0.40427
      H   22    0.17287      0.00000     0.32356    0.00356     0.32713
      H   23    0.08430      0.00000     0.41373    0.00197     0.41570
      H   24    0.09271      0.00000     0.40595    0.00133     0.40729
      H   25    0.09668      0.00000     0.40193    0.00139     0.40332
      H   26    0.09873      0.00000     0.39940    0.00187     0.40127
      H   27    0.09486      0.00000     0.40352    0.00162     0.40514
      H   28    0.10996      0.00000     0.38880    0.00125     0.39004
      H   29    0.19938      0.00000     0.29746    0.00316     0.30062
      H   30    0.19084      0.00000     0.30687    0.00229     0.30916
      H   31    0.19075      0.00000     0.30187    0.00738     0.30925
      H   32    0.09541      0.00000     0.40343    0.00116     0.40459
      H   33    0.10557      0.00000     0.39345    0.00098     0.39443
      H   34    0.10482      0.00000     0.39395    0.00123     0.39518
      H   35    0.09893      0.00000     0.40011    0.00096     0.40107
      H   36    0.10551      0.00000     0.39341    0.00108     0.39449
      H   37    0.09746      0.00000     0.40162    0.00093     0.40254
      H   38    0.09845      0.00000     0.40064    0.00091     0.40155
      H   39    0.17429      0.00000     0.32403    0.00167     0.32571
      H   40    0.17118      0.00000     0.32712    0.00170     0.32882
 =======================================================================
   * Total *   -0.00000     17.99307    49.76219    0.24474    68.00000

 Normal termination of Gaussian 16 at Fri Dec 11 21:33:26 2020.
