 Gaussian 16, Revision A.03,

 -----------------------------------------------------------
 # opt freq B3LYP/6-31G(d) empiricaldispersion=gd3bj scf=xqc
 -----------------------------------------------------------

 -----------------------------
 CID_54120507_JID_449_neutraal
 -----------------------------
 Symbolic Z-matrix:
 Charge =  0 Multiplicity = 1

 SCF Done:  E(RB3LYP) =  -429.036211210     A.U. after   13 cycles
 SCF Done:  E(RB3LYP) =  -429.037964315     A.U. after   11 cycles
 SCF Done:  E(RB3LYP) =  -429.038135010     A.U. after   10 cycles
 SCF Done:  E(RB3LYP) =  -429.038159638     A.U. after   11 cycles
 SCF Done:  E(RB3LYP) =  -429.038172861     A.U. after   10 cycles
 SCF Done:  E(RB3LYP) =  -429.038177058     A.U. after    9 cycles
 SCF Done:  E(RB3LYP) =  -429.038178308     A.U. after    9 cycles
 SCF Done:  E(RB3LYP) =  -429.038178890     A.U. after    8 cycles
 SCF Done:  E(RB3LYP) =  -429.038178918     A.U. after    6 cycles
 Optimization completed.
    -- Stationary point found.

 1\1\GINC-NODE373\FOpt\RB3LYP\6-31G(d)\C9H18O1\VSC10255\08-Dec-2020\0\\
 # opt freq B3LYP/6-31G(d) empiricaldispersion=gd3bj scf=xqc\\CID_54120
 507_JID_449_neutraal\\0,1\C,0.8357631609,0.1463965108,-0.0117704057\C,
 0.6405279433,0.7298225732,1.3969194071\C,1.056588732,2.1715277575,1.47
 96337624\C,0.2452832534,3.1939261112,1.7596502879\C,0.6609322105,4.638
 663285,1.7883672546\C,0.0966433181,5.4609106386,0.6109768364\C,-1.4346
 187619,5.4571976518,0.4700872335\C,-2.1398211197,5.9762326798,1.728503
 707\C,-1.8716311547,6.2885488704,-0.7448924549\O,-1.3656341399,5.80903

 Normal termination of Gaussian 16 at Tue Dec  8 10:44:57 2020.

 --------------------------------------------------------------------
 #N Geom=AllCheck Guess=TCheck SCRF=Check GenChk RB3LYP/6-31G(d) Freq
 --------------------------------------------------------------------

 Structure from the checkpoint file:  "JID_449.chk"
 -----------------------------
 CID_54120507_JID_449_neutraal
 -----------------------------
 Charge =  0 Multiplicity = 1

 SCF Done:  E(RB3LYP) =  -429.038178918     A.U. after    1 cycles

  Exact polarizability: 123.931   9.638  88.423   2.646   0.208  90.020
 Approx polarizability: 153.530  14.770 121.373   6.304   1.109 131.491

                      1                      2                      3
                      A                      A                      A
 Frequencies --     25.4737                37.1262                86.1523
 Red. masses --      3.5285                 3.1729                 2.3513
 Frc consts  --      0.0013                 0.0026                 0.0103
 IR Inten    --      0.1752                 0.2285                 0.0670

                      4                      5                      6
                      A                      A                      A
 Frequencies --    106.6579               127.0581               144.4732
 Red. masses --      2.7549                 2.3147                 2.2805
 Frc consts  --      0.0185                 0.0220                 0.0280
 IR Inten    --      0.7822                 2.9758                 4.0500

                      7                      8                      9
                      A                      A                      A
 Frequencies --    203.1242               211.9144               234.3552
 Red. masses --      1.5807                 1.2982                 2.3478
 Frc consts  --      0.0384                 0.0343                 0.0760
 IR Inten    --      0.1725                 0.7068                 0.1586

                     10                     11                     12
                      A                      A                      A
 Frequencies --    269.9500               289.0773               322.4921
 Red. masses --      1.6860                 1.5723                 1.1758
 Frc consts  --      0.0724                 0.0774                 0.0720
 IR Inten    --      1.0610                10.2956               153.4308

                     13                     14                     15
                      A                      A                      A
 Frequencies --    367.3719               395.1620               414.9170
 Red. masses --      2.6542                 2.2900                 2.1949
 Frc consts  --      0.2111                 0.2107                 0.2226
 IR Inten    --      0.7814                 3.1109                 1.1166

                     16                     17                     18
                      A                      A                      A
 Frequencies --    467.7631               503.4475               559.8041
 Red. masses --      2.7366                 2.4624                 2.8780
 Frc consts  --      0.3528                 0.3677                 0.5314
 IR Inten    --      4.3864                 0.8132                 2.4789

                     19                     20                     21
                      A                      A                      A
 Frequencies --    766.5833               793.1939               839.7829
 Red. masses --      1.8149                 1.3293                 1.6901
 Frc consts  --      0.6284                 0.4927                 0.7023
 IR Inten    --      4.9668                 5.5714                 0.0881

                     22                     23                     24
                      A                      A                      A
 Frequencies --    843.4952               905.0384               925.4278
 Red. masses --      1.6062                 1.8204                 1.5373
 Frc consts  --      0.6733                 0.8785                 0.7757
 IR Inten    --      3.6793                 7.6272                 2.0357

                     25                     26                     27
                      A                      A                      A
 Frequencies --    947.9429               970.2663               984.0062
 Red. masses --      1.4314                 1.7269                 1.7985
 Frc consts  --      0.7578                 0.9578                 1.0260
 IR Inten    --      6.9810                 2.8872                 3.5264

                     28                     29                     30
                      A                      A                      A
 Frequencies --   1016.9799              1035.1176              1079.9421
 Red. masses --      1.1557                 2.0014                 3.5802
 Frc consts  --      0.7042                 1.2635                 2.4602
 IR Inten    --     14.4150                 6.2978                72.3541

                     31                     32                     33
                      A                      A                      A
 Frequencies --   1090.9201              1097.5702              1117.6977
 Red. masses --      2.5158                 1.7430                 2.0906
 Frc consts  --      1.7641                 1.2371                 1.5388
 IR Inten    --     36.3635                12.5934                 1.3145

                     34                     35                     36
                      A                      A                      A
 Frequencies --   1135.9782              1162.6255              1182.6253
 Red. masses --      1.7312                 1.9483                 1.8297
 Frc consts  --      1.3162                 1.5517                 1.5077
 IR Inten    --      6.2515                 1.9919                 1.8545

                     37                     38                     39
                      A                      A                      A
 Frequencies --   1208.0758              1239.6160              1288.6023
 Red. masses --      1.3115                 1.3356                 1.3055
 Frc consts  --      1.1277                 1.2092                 1.2772
 IR Inten    --      7.5006                 0.9058                 1.5199

                     40                     41                     42
                      A                      A                      A
 Frequencies --   1302.6441              1335.2884              1340.4699
 Red. masses --      1.2751                 1.2733                 1.2673
 Frc consts  --      1.2748                 1.3377                 1.3416
 IR Inten    --      5.0002                13.1022                 6.7344

                     43                     44                     45
                      A                      A                      A
 Frequencies --   1346.0529              1371.4386              1383.1950
 Red. masses --      1.2710                 1.3873                 1.2457
 Frc consts  --      1.3568                 1.5374                 1.4042
 IR Inten    --      0.4403                 1.8369                 3.5315

                     46                     47                     48
                      A                      A                      A
 Frequencies --   1397.5217              1408.2872              1418.9865
 Red. masses --      1.4629                 1.2051                 1.4736
 Frc consts  --      1.6834                 1.4082                 1.7482
 IR Inten    --      4.6267                 3.9129                 6.9642

                     49                     50                     51
                      A                      A                      A
 Frequencies --   1435.9296              1436.9825              1446.6911
 Red. masses --      1.2274                 1.3057                 1.2406
 Frc consts  --      1.4911                 1.5886                 1.5298
 IR Inten    --      2.3202                 6.9670                34.0027

                     52                     53                     54
                      A                      A                      A
 Frequencies --   1510.8949              1512.2214              1520.0919
 Red. masses --      1.0812                 1.0734                 1.0910
 Frc consts  --      1.4542                 1.4462                 1.4853
 IR Inten    --      3.3945                 2.0231                 6.2051

                     55                     56                     57
                      A                      A                      A
 Frequencies --   1526.4162              1527.7331              1533.9920
 Red. masses --      1.0729                 1.0409                 1.0757
 Frc consts  --      1.4729                 1.4314                 1.4914
 IR Inten    --      0.3791                 5.3374                 2.5333

                     58                     59                     60
                      A                      A                      A
 Frequencies --   1537.4170              1538.7030              1758.7492
 Red. masses --      1.0675                 1.0523                 6.0499
 Frc consts  --      1.4866                 1.4680                11.0257
 IR Inten    --      2.6558                 5.8359                 0.4835

                     61                     62                     63
                      A                      A                      A
 Frequencies --   2976.3144              3009.4676              3021.3204
 Red. masses --      1.0715                 1.0624                 1.0651
 Frc consts  --      5.5923                 5.6694                 5.7285
 IR Inten    --     53.1038                40.8739                38.8851

                     64                     65                     66
                      A                      A                      A
 Frequencies --   3033.1074              3041.1499              3044.9013
 Red. masses --      1.0628                 1.0563                 1.0655
 Frc consts  --      5.7605                 5.7560                 5.8203
 IR Inten    --     19.2899                17.3735                23.7883

                     67                     68                     69
                      A                      A                      A
 Frequencies --   3046.6345              3060.9721              3068.3401
 Red. masses --      1.0352                 1.0949                 1.0964
 Frc consts  --      5.6615                 6.0445                 6.0818
 IR Inten    --     29.6853                57.8753                13.6349

                     70                     71                     72
                      A                      A                      A
 Frequencies --   3077.2944              3092.9861              3104.6848
 Red. masses --      1.1016                 1.0937                 1.0997
 Frc consts  --      6.1463                 6.1648                 6.2452
 IR Inten    --     45.9597                19.2453                54.7904

                     73                     74                     75
                      A                      A                      A
 Frequencies --   3112.6014              3121.4415              3121.6670
 Red. masses --      1.1014                 1.0996                 1.1001
 Frc consts  --      6.2870                 6.3125                 6.3161
 IR Inten    --     28.4350                38.4292                32.6505

                     76                     77                     78
                      A                      A                      A
 Frequencies --   3124.2793              3140.0809              3759.2883
 Red. masses --      1.0936                 1.0873                 1.0660
 Frc consts  --      6.2892                 6.3167                 8.8758
 IR Inten    --     39.7700                39.9629                 9.3139

 - Thermochemistry -
 -------------------
 Temperature   298.150 Kelvin.  Pressure   1.00000 Atm.
 Atom     1 has atomic number  6 and mass  12.00000

 Molecular mass:   142.13577 amu.
 Principal axes and moments of inertia in atomic units:
                           1         2         3
     Eigenvalues --   995.569463337.345313819.35795
           X            0.99962   0.02755   0.00017
           Y           -0.02755   0.99958   0.00878
           Z            0.00007  -0.00878   0.99996
 This molecule is an asymmetric top.
 Rotational symmetry number  1.
 Warning -- assumption of classical behavior for rotation
           may cause significant error
 Rotational temperatures (Kelvin)      0.08700     0.02595     0.02268
 Rotational constants (GHZ):           1.81277     0.54077     0.47252
 Zero-point vibrational energy     675555.4 (Joules/Mol)
                                  161.46162 (Kcal/Mol)
 Warning -- explicit consideration of  18 degrees of freedom as
           vibrations may cause significant error
 Vibrational temperatures:     36.65    53.42   123.95   153.46   182.81
          (Kelvin)            207.86   292.25   304.90   337.18   388.40
                              415.92   463.99   528.57   568.55   596.97
                              673.01   724.35   805.43  1102.94  1141.23
                             1208.26  1213.60  1302.15  1331.48  1363.88
                             1396.00  1415.77  1463.21  1489.30  1553.80
                             1569.59  1579.16  1608.12  1634.42  1672.76
                             1701.53  1738.15  1783.53  1854.01  1874.21
                             1921.18  1928.64  1936.67  1973.19  1990.11
                             2010.72  2026.21  2041.61  2065.98  2067.50
                             2081.47  2173.84  2175.75  2187.07  2196.17
                             2198.07  2207.07  2212.00  2213.85  2530.45
                             4282.25  4329.95  4347.01  4363.97  4375.54
                             4380.93  4383.43  4404.06  4414.66  4427.54
                             4450.12  4466.95  4478.34  4491.06  4491.38
                             4495.14  4517.88  5408.78

 Zero-point correction=                           0.257305 (Hartree/Particle)
 Thermal correction to Energy=                    0.270140
 Thermal correction to Enthalpy=                  0.271084
 Thermal correction to Gibbs Free Energy=         0.217071
 Sum of electronic and zero-point Energies=           -428.780873
 Sum of electronic and thermal Energies=              -428.768039
 Sum of electronic and thermal Enthalpies=            -428.767095
 Sum of electronic and thermal Free Energies=         -428.821108

                     E (Thermal)             CV                S
                      KCal/Mol        Cal/Mol-Kelvin    Cal/Mol-Kelvin
 Total                  169.516             46.039            113.681
 Electronic               0.000              0.000              0.000
 Translational            0.889              2.981             40.766
 Rotational               0.889              2.981             30.918
 Vibrational            167.738             40.077             41.996
 Vibration     1          0.593              1.985              6.154
 Vibration     2          0.594              1.982              5.407
 Vibration     3          0.601              1.959              3.746
 Vibration     4          0.606              1.944              3.329
 Vibration     5          0.611              1.926              2.990
 Vibration     6          0.616              1.909              2.744
 Vibration     7          0.639              1.835              2.105
 Vibration     8          0.643              1.823              2.027
 Vibration     9          0.654              1.788              1.845
 Vibration    10          0.674              1.729              1.597
 Vibration    11          0.686              1.694              1.479
 Vibration    12          0.707              1.630              1.297
 Vibration    13          0.740              1.539              1.091
 Vibration    14          0.762              1.481              0.981
 Vibration    15          0.778              1.438              0.909
 Vibration    16          0.825              1.322              0.744
 Vibration    17          0.859              1.242              0.650
 Vibration    18          0.915              1.118              0.524

 Optimization completed.
    -- Stationary point found.

 1\1\GINC-NODE373\Freq\RB3LYP\6-31G(d)\C9H18O1\VSC10255\08-Dec-2020\0\\
 #N Geom=AllCheck Guess=TCheck SCRF=Check GenChk RB3LYP/6-31G(d) Freq\\
 CID_54120507_JID_449_neutraal\\0,1\C,0.8357631609,0.1463965108,-0.0117
 704057\C,0.6405279433,0.7298225732,1.3969194071\C,1.056588732,2.171527
 7575,1.4796337624\C,0.2452832534,3.1939261112,1.7596502879\C,0.6609322
 105,4.638663285,1.7883672546\C,0.0966433181,5.4609106386,0.6109768364\
 C,-1.4346187619,5.4571976518,0.4700872335\C,-2.1398211197,5.9762326798
 ,1.728503707\C,-1.8716311547,6.2885488704,-0.7448924549\O,-1.365634139

 Normal termination of Gaussian 16 at Tue Dec  8 10:50:34 2020.

 ----------------------------------------------------------------------
 # B3LYP/6-311++G(d,p) empiricaldispersion=gd3bj scf=xqc pop=npa geom=c
 heck
 ----------------------------------------------------------------------

 -------------------------------------
 CID_54120507_JID_449_Energie_neutraal
 -------------------------------------
 Structure from the checkpoint file:  "JID_449.chk"
 Charge =  0 Multiplicity = 1

 SCF Done:  E(RB3LYP) =  -429.172603284     A.U. after   13 cycles
 Normal termination of Gaussian 16 at Tue Dec  8 10:53:44 2020.

 ----------------------------------------------------------------------
 # B3LYP/6-311++G(d,p) empiricaldispersion=gd3bj scf=xqc pop=npa geom=c
 heck
 ----------------------------------------------------------------------

 -----------------------------------
 CID_54120507_JID_449_Energie_kation
 -----------------------------------
 Structure from the checkpoint file:  "JID_449.chk"
 Charge =  1 Multiplicity = 2

 SCF Done:  E(UB3LYP) =  -428.850784139     A.U. after   20 cycles
 Normal termination of Gaussian 16 at Tue Dec  8 11:00:57 2020.
 Gaussian 16:  ES64L-G16RevA.03 25-Dec-2016

 ----------------------------------
 CID_54120507_JID_449_Energie_anion
 ----------------------------------
 Structure from the checkpoint file:  "JID_449.chk"
 Charge = -1 Multiplicity = 2

                         Standard orientation:
 ---------------------------------------------------------------------
 Center     Atomic      Atomic             Coordinates (Angstroms)
 Number     Number       Type             X           Y           Z
 ---------------------------------------------------------------------
      1          6           0        3.812933    1.446267   -0.292538
      2          6           0        3.477112   -0.037432   -0.513385
      3          6           0        2.385086   -0.517049    0.400895
      4          6           0        1.189751   -0.962627    0.007758
      5          6           0        0.084725   -1.390933    0.933136
      6          6           0       -1.102962   -0.406458    0.964265
      7          6           0       -1.766170   -0.120539   -0.393319
      8          6           0       -2.286125   -1.393692   -1.070850
      9          6           0       -2.915802    0.885480   -0.236561
     10          8           0       -2.510766    2.150358    0.272708
     11          1           0        2.939237    2.075180   -0.495137
     12          1           0        4.629040    1.769412   -0.948495
     13          1           0        4.122171    1.630037    0.743360
     14          1           0        3.180477   -0.199342   -1.557344
     15          1           0        4.385773   -0.635271   -0.348984
     16          1           0        2.601767   -0.466106    1.470823
     17          1           0        0.975873   -1.006416   -1.061374
     18          1           0       -0.279253   -2.385973    0.642878
     19          1           0        0.480412   -1.491289    1.951391
     20          1           0       -1.864626   -0.795579    1.657595
     21          1           0       -0.736966    0.540388    1.383014
     22          1           0       -1.020938    0.351697   -1.047302
     23          1           0       -2.998703   -1.921482   -0.423649
     24          1           0       -2.800073   -1.157724   -2.010028
     25          1           0       -1.475059   -2.089840   -1.306241
     26          1           0       -3.355946    1.094259   -1.217391
     27          1           0       -3.709689    0.441576    0.389323
     28          1           0       -2.258653    2.025523    1.199496
 ---------------------------------------------------------------------

 SCF Done:  E(UB3LYP) =  -429.154872879     A.U. after   32 cycles

 The electronic state is 2-A.
 Alpha  occ. eigenvalues --  -19.02221 -10.11198 -10.07286 -10.07163 -10.06883
 Alpha  occ. eigenvalues --  -10.06735 -10.06643 -10.06518 -10.06253 -10.06105
 Alpha  occ. eigenvalues --   -0.92291  -0.72172  -0.69909  -0.65930  -0.60917
 Alpha  occ. eigenvalues --   -0.57606  -0.54696  -0.50747  -0.46797  -0.44182
 Alpha  occ. eigenvalues --   -0.41503  -0.37456  -0.36200  -0.35323  -0.33973
 Alpha  occ. eigenvalues --   -0.33444  -0.31885  -0.30096  -0.28925  -0.28529
 Alpha  occ. eigenvalues --   -0.27449  -0.26797  -0.25947  -0.24649  -0.24301
 Alpha  occ. eigenvalues --   -0.23339  -0.22281  -0.21309  -0.17494  -0.14847
 Alpha  occ. eigenvalues --    0.04674
 Alpha virt. eigenvalues --    0.06232   0.06954   0.07842   0.08749   0.08870
 Alpha virt. eigenvalues --    0.09176   0.09887   0.10753   0.10904   0.11054
 Alpha virt. eigenvalues --    0.11983   0.12040   0.12935   0.13786   0.14109

  Beta  occ. eigenvalues --  -19.02201 -10.11176 -10.07269 -10.07159 -10.06866
  Beta  occ. eigenvalues --  -10.06727 -10.06636 -10.06489 -10.06224 -10.06074
  Beta  occ. eigenvalues --   -0.92250  -0.72143  -0.69881  -0.65896  -0.60871
  Beta  occ. eigenvalues --   -0.57540  -0.54634  -0.50684  -0.46735  -0.44125
  Beta  occ. eigenvalues --   -0.41451  -0.37426  -0.36168  -0.35279  -0.33938
  Beta  occ. eigenvalues --   -0.33392  -0.31847  -0.30060  -0.28879  -0.28483
  Beta  occ. eigenvalues --   -0.27405  -0.26765  -0.25901  -0.24614  -0.24264
  Beta  occ. eigenvalues --   -0.23304  -0.22251  -0.21274  -0.17463  -0.14819
  Beta virt. eigenvalues --    0.06824   0.07263   0.07719   0.08293   0.09238
  Beta virt. eigenvalues --    0.09493   0.09588   0.10206   0.11184   0.11233
  Beta virt. eigenvalues --    0.11516   0.12421   0.12540   0.13215   0.13923

 Mulliken charges and spin densities:
               1          2
     1  C    0.867014  -1.470669
     2  C   -0.572381   0.248190
     3  C    0.448617  -0.494187
     4  C    0.009556   0.020102
     5  C   -0.180736  -0.098218
     6  C    1.450037  -1.805949
     7  C   -1.593680   1.943363
     8  C    1.203692  -1.895545
     9  C    0.175971  -0.667895
    10  O   -0.253038   0.011830
    11  H    0.040720   0.101610
    12  H   -0.356331   0.484619
    13  H   -0.212697   0.351909
    14  H   -0.086925   0.219405
    15  H   -0.172694   0.301196
    16  H   -0.295336   0.441185
    17  H   -0.237258   0.389814
    18  H    0.096265   0.037837
    19  H   -0.353653   0.534700
    20  H   -0.454080   0.619589
    21  H    0.200167  -0.143265
    22  H    0.153331   0.003824
    23  H   -0.264807   0.426029
    24  H   -0.187313   0.312652
    25  H   -0.139693   0.289621
    26  H    0.022165   0.138434
    27  H   -0.242712   0.392326
    28  H   -0.064201   0.307491
 Sum of Mulliken charges =  -1.00000   1.00000

 Dipole moment (field-independent basis, Debye):
    X=             -0.2649    Y=             -0.4688    Z=             -1.4274  Tot=              1.5256
 Quadrupole moment (field-independent basis, Debye-Ang):
   XX=           -147.4282   YY=           -106.7108   ZZ=           -101.2595
   XY=             -6.5948   XZ=              2.8373   YZ=              0.3322

 Summary of Natural Population Analysis:

                                       Natural Population
                Natural  -----------------------------------------------
    Atom  No    Charge         Core      Valence    Rydberg      Total
 -----------------------------------------------------------------------
      C    1   -0.27959      0.99966     2.27585    0.00408     3.27959
      C    2   -0.20488      0.99963     2.19592    0.00932     3.20488
      C    3   -0.08701      0.99951     2.07779    0.00971     3.08701
      C    4   -0.09087      0.99950     2.08216    0.00921     3.09087
      C    5   -0.20270      0.99961     2.19356    0.00953     3.20270
      C    6   -0.18637      0.99960     2.17656    0.01020     3.18637
      C    7   -0.12812      0.99960     2.11893    0.00959     3.12812
      C    8   -0.28869      0.99965     2.28271    0.00633     3.28869
      C    9   -0.00386      0.99956     1.99083    0.01347     3.00386
      O   10   -0.36936      0.99990     3.36302    0.00644     4.36936
      H   11    0.09766      0.00000     0.40095    0.00139     0.40234
      H   12    0.09723      0.00000     0.40126    0.00152     0.40277
      H   13    0.09600      0.00000     0.40234    0.00166     0.40400
      H   14    0.09561      0.00000     0.40311    0.00128     0.40439
      H   15    0.09778      0.00000     0.40089    0.00133     0.40222
      H   16    0.08988      0.00000     0.40878    0.00134     0.41012
      H   17    0.08968      0.00000     0.40881    0.00151     0.41032
      H   18    0.09903      0.00000     0.39964    0.00133     0.40097
      H   19    0.09999      0.00000     0.39824    0.00178     0.40001
      H   20    0.09778      0.00000     0.40012    0.00210     0.40222
      H   21    0.09585      0.00000     0.40237    0.00178     0.40415
      H   22    0.09662      0.00000     0.40115    0.00224     0.40338
      H   23    0.09956      0.00000     0.39907    0.00136     0.40044
      H   24    0.09923      0.00000     0.39969    0.00108     0.40077
      H   25    0.10067      0.00000     0.39822    0.00111     0.39933
      H   26    0.08420      0.00000     0.41465    0.00115     0.41580
      H   27    0.07607      0.00000     0.42231    0.00162     0.42393
      H   28    0.22863      0.00000     0.26793    0.00344     0.27137
 =======================================================================
   * Total *    0.00000      9.99622    29.88687    0.11691    40.00000

 Normal termination of Gaussian 16 at Tue Dec  8 11:08:15 2020.
