 Gaussian 16, Revision A.03,

 -----------------------------------------------------------
 # opt freq B3LYP/6-31G(d) empiricaldispersion=gd3bj scf=xqc
 -----------------------------------------------------------

 ------------------------------
 CID_80647060_JID_3654_neutraal
 ------------------------------
 Symbolic Z-matrix:
 Charge =  0 Multiplicity = 1

 SCF Done:  E(RB3LYP) =  -627.398377168     A.U. after   14 cycles
 SCF Done:  E(RB3LYP) =  -627.399575996     A.U. after   13 cycles
 SCF Done:  E(RB3LYP) =  -627.404131073     A.U. after   13 cycles
 SCF Done:  E(RB3LYP) =  -627.406640874     A.U. after   12 cycles
 SCF Done:  E(RB3LYP) =  -627.407750616     A.U. after   12 cycles
 SCF Done:  E(RB3LYP) =  -627.408454687     A.U. after   12 cycles
 SCF Done:  E(RB3LYP) =  -627.408885766     A.U. after   11 cycles
 SCF Done:  E(RB3LYP) =  -627.409023115     A.U. after   10 cycles
 SCF Done:  E(RB3LYP) =  -627.409137487     A.U. after   11 cycles
 SCF Done:  E(RB3LYP) =  -627.409254958     A.U. after   11 cycles
 SCF Done:  E(RB3LYP) =  -627.412564356     A.U. after   10 cycles
 SCF Done:  E(RB3LYP) =  -627.412586506     A.U. after   10 cycles
 SCF Done:  E(RB3LYP) =  -627.412589262     A.U. after    8 cycles
 SCF Done:  E(RB3LYP) =  -627.412590956     A.U. after    8 cycles
 SCF Done:  E(RB3LYP) =  -627.412591084     A.U. after    7 cycles
 Optimization completed.
    -- Stationary point found.
 Normal termination of Gaussian 16 at Mon Dec 14 16:40:53 2020.

 --------------------------------------------------------------------
 #N Geom=AllCheck Guess=TCheck SCRF=Check GenChk RB3LYP/6-31G(d) Freq
 --------------------------------------------------------------------

 Structure from the checkpoint file:  "JID_3654.chk"
 ------------------------------
 CID_80647060_JID_3654_neutraal
 ------------------------------
 Charge =  0 Multiplicity = 1

 SCF Done:  E(RB3LYP) =  -627.412591084     A.U. after    1 cycles

  Exact polarizability: 156.337  -3.062 119.831   2.642   9.825  62.461
 Approx polarizability: 217.444 -12.931 191.495   3.908  19.560  93.616

                      1                      2                      3
                      A                      A                      A
 Frequencies --     46.3039                60.8028                91.8287
 Red. masses --      4.7096                 4.1306                 4.5538
 Frc consts  --      0.0059                 0.0090                 0.0226
 IR Inten    --      3.9360                 1.5708                 1.9104

                      4                      5                      6
                      A                      A                      A
 Frequencies --    120.0413               144.9464               189.4756
 Red. masses --      3.5283                 4.4094                 3.9473
 Frc consts  --      0.0300                 0.0546                 0.0835
 IR Inten    --      0.7662                 0.8297                 2.0620

                      7                      8                      9
                      A                      A                      A
 Frequencies --    206.0264               242.2104               286.2231
 Red. masses --      5.9247                 5.4050                 1.2101
 Frc consts  --      0.1482                 0.1868                 0.0584
 IR Inten    --      3.8066                 6.5004               100.3547

                     10                     11                     12
                      A                      A                      A
 Frequencies --    310.8326               361.6618               375.6939
 Red. masses --      2.8404                 3.0227                 1.4136
 Frc consts  --      0.1617                 0.2329                 0.1176
 IR Inten    --      4.7694                 3.4910                40.9598

                     13                     14                     15
                      A                      A                      A
 Frequencies --    398.5011               441.2677               462.0922
 Red. masses --      1.8661                 3.0398                 2.8235
 Frc consts  --      0.1746                 0.3487                 0.3552
 IR Inten    --      5.3315                 6.6400                13.8868

                     16                     17                     18
                      A                      A                      A
 Frequencies --    487.8777               492.8445               529.9056
 Red. masses --      1.8492                 1.9091                 1.4991
 Frc consts  --      0.2593                 0.2732                 0.2480
 IR Inten    --     61.7742               102.3222               243.4857

                     19                     20                     21
                      A                      A                      A
 Frequencies --    581.9896               611.3612               634.6013
 Red. masses --      4.0134                 2.5406                 1.2405
 Frc consts  --      0.8009                 0.5595                 0.2943
 IR Inten    --     24.9066                22.7541               101.3241

                     22                     23                     24
                      A                      A                      A
 Frequencies --    668.1006               687.7883               737.1089
 Red. masses --      5.1102                 3.7439                 1.3192
 Frc consts  --      1.3439                 1.0435                 0.4223
 IR Inten    --     11.3597                10.0428                12.0069

                     25                     26                     27
                      A                      A                      A
 Frequencies --    780.3020               792.7107               813.9252
 Red. masses --      4.8056                 3.4170                 1.7060
 Frc consts  --      1.7239                 1.2651                 0.6659
 IR Inten    --     88.6704                 3.2927                 1.0730

                     28                     29                     30
                      A                      A                      A
 Frequencies --    897.4698               939.1590               975.0719
 Red. masses --      2.6321                 2.0090                 1.3338
 Frc consts  --      1.2491                 1.0440                 0.7472
 IR Inten    --      5.6461                 1.5365                 1.6336

                     31                     32                     33
                      A                      A                      A
 Frequencies --    977.5497              1001.8124              1035.8747
 Red. masses --      2.1340                 5.2934                 2.2198
 Frc consts  --      1.2015                 3.1301                 1.4034
 IR Inten    --     10.3961                 2.2692                 7.0679

                     34                     35                     36
                      A                      A                      A
 Frequencies --   1080.3789              1106.7070              1115.9257
 Red. masses --      3.6895                 4.3930                 1.7599
 Frc consts  --      2.5373                 3.1702                 1.2912
 IR Inten    --     18.0580                42.3526                 8.1623

                     37                     38                     39
                      A                      A                      A
 Frequencies --   1132.7269              1155.7751              1168.5656
 Red. masses --      2.2332                 1.4830                 2.1204
 Frc consts  --      1.6882                 1.1672                 1.7060
 IR Inten    --     69.6426                16.8850                12.9973

                     40                     41                     42
                      A                      A                      A
 Frequencies --   1200.8873              1221.0658              1258.9799
 Red. masses --      1.2400                 1.2581                 1.1242
 Frc consts  --      1.0536                 1.1052                 1.0499
 IR Inten    --      8.9035                56.8189                 8.1615

                     43                     44                     45
                      A                      A                      A
 Frequencies --   1274.4056              1307.5179              1336.5859
 Red. masses --      1.1169                 1.6152                 1.3592
 Frc consts  --      1.0687                 1.6269                 1.4307
 IR Inten    --      7.2144                76.4397                 8.9063

                     46                     47                     48
                      A                      A                      A
 Frequencies --   1341.3079              1378.4432              1410.0088
 Red. masses --      2.5059                 1.8618                 1.8776
 Frc consts  --      2.6563                 2.0843                 2.1993
 IR Inten    --      2.5458                 3.4600                33.1903

                     49                     50                     51
                      A                      A                      A
 Frequencies --   1423.0271              1465.6043              1485.6538
 Red. masses --      1.5411                 1.4743                 2.1052
 Frc consts  --      1.8387                 1.8658                 2.7377
 IR Inten    --     22.6382                 7.8384                25.2209

                     52                     53                     54
                      A                      A                      A
 Frequencies --   1525.9320              1529.4439              1534.9506
 Red. masses --      1.4008                 1.9977                 1.2377
 Frc consts  --      1.9218                 2.7533                 1.7181
 IR Inten    --     98.4276                25.0958                14.5158

                     55                     56                     57
                      A                      A                      A
 Frequencies --   1549.4225              1559.5580              1647.0854
 Red. masses --      1.1457                 2.1228                 3.0759
 Frc consts  --      1.6205                 3.0420                 4.9164
 IR Inten    --      6.6531               429.5683                87.5092

                     58                     59                     60
                      A                      A                      A
 Frequencies --   1660.6291              1682.3868              2999.0226
 Red. masses --      4.3847                 1.5579                 1.0678
 Frc consts  --      7.1242                 2.5980                 5.6587
 IR Inten    --    397.9872               231.5873                65.8441

                     61                     62                     63
                      A                      A                      A
 Frequencies --   3012.1112              3050.2945              3064.4057
 Red. masses --      1.0573                 1.1071                 1.0866
 Frc consts  --      5.6518                 6.0692                 6.0121
 IR Inten    --     46.4400                27.8300                30.7969

                     64                     65                     66
                      A                      A                      A
 Frequencies --   3071.9086              3187.7099              3207.1244
 Red. masses --      1.0944                 1.0868                 1.0913
 Frc consts  --      6.0849                 6.5068                 6.6134
 IR Inten    --    105.0808                11.0914                19.3884

                     67                     68                     69
                      A                      A                      A
 Frequencies --   3214.7650              3507.9425              3571.6526
 Red. masses --      1.0968                 1.0665                 1.0472
 Frc consts  --      6.6782                 7.7324                 7.8709
 IR Inten    --     12.5794               491.4301                30.5869

                     70                     71                     72
                      A                      A                      A
 Frequencies --   3614.0762              3682.7592              3764.8823
 Red. masses --      1.0761                 1.1001                 1.0666
 Frc consts  --      8.2811                 8.7906                 8.9077
 IR Inten    --     75.4782                20.0889                23.8846

 - Thermochemistry -
 -------------------
 Temperature   298.150 Kelvin.  Pressure   1.00000 Atm.
 Atom     1 has atomic number  6 and mass  12.00000

 Molecular mass:   183.10078 amu.
 Principal axes and moments of inertia in atomic units:
                           1         2         3
     Eigenvalues --  1297.129723578.694874600.13993
           X            0.99999  -0.00272   0.00380
           Y            0.00268   0.99994   0.01104
           Z           -0.00383  -0.01103   0.99993
 This molecule is an asymmetric top.
 Rotational symmetry number  1.
 Warning -- assumption of classical behavior for rotation
           may cause significant error
 Rotational temperatures (Kelvin)      0.06677     0.02420     0.01883
 Rotational constants (GHZ):           1.39133     0.50430     0.39232
 Zero-point vibrational energy     573519.6 (Joules/Mol)
                                  137.07448 (Kcal/Mol)
 Warning -- explicit consideration of  20 degrees of freedom as
           vibrations may cause significant error
 Vibrational temperatures:     66.62    87.48   132.12   172.71   208.55
          (Kelvin)            272.61   296.43   348.49   411.81   447.22
                              520.35   540.54   573.35   634.89   664.85
                              701.95   709.09   762.42   837.35   879.61
                              913.05   961.25   989.57  1060.54  1122.68
                             1140.53  1171.06  1291.26  1351.24  1402.91
                             1406.48  1441.38  1490.39  1554.42  1592.30
                             1605.57  1629.74  1662.90  1681.31  1727.81
                             1756.84  1811.39  1833.59  1881.23  1923.05
                             1929.84  1983.27  2028.69  2047.42  2108.68
                             2137.52  2195.48  2200.53  2208.45  2229.27
                             2243.86  2369.79  2389.27  2420.58  4314.92
                             4333.76  4388.69  4409.00  4419.79  4586.40
                             4614.34  4625.33  5047.15  5138.81  5199.85
                             5298.67  5416.83

 Zero-point correction=                           0.218442 (Hartree/Particle)
 Thermal correction to Energy=                    0.231266
 Thermal correction to Enthalpy=                  0.232210
 Thermal correction to Gibbs Free Energy=         0.179160
 Sum of electronic and zero-point Energies=           -627.194149
 Sum of electronic and thermal Energies=              -627.181325
 Sum of electronic and thermal Enthalpies=            -627.180381
 Sum of electronic and thermal Free Energies=         -627.233431

                     E (Thermal)             CV                S
                      KCal/Mol        Cal/Mol-Kelvin    Cal/Mol-Kelvin
 Total                  145.122             49.115            111.653
 Electronic               0.000              0.000              0.000
 Translational            0.889              2.981             41.521
 Rotational               0.889              2.981             31.435
 Vibrational            143.344             43.154             38.697
 Vibration     1          0.595              1.979              4.969
 Vibration     2          0.597              1.973              4.431
 Vibration     3          0.602              1.955              3.621
 Vibration     4          0.609              1.933              3.100
 Vibration     5          0.616              1.908              2.738
 Vibration     6          0.633              1.854              2.233
 Vibration     7          0.641              1.831              2.079
 Vibration     8          0.658              1.776              1.787
 Vibration     9          0.684              1.699              1.496
 Vibration    10          0.700              1.653              1.358
 Vibration    11          0.736              1.551              1.115
 Vibration    12          0.747              1.522              1.056
 Vibration    13          0.765              1.473              0.968
 Vibration    14          0.801              1.380              0.823
 Vibration    15          0.820              1.334              0.760
 Vibration    16          0.844              1.277              0.689
 Vibration    17          0.849              1.266              0.676
 Vibration    18          0.885              1.184              0.587
 Vibration    19          0.939              1.070              0.482
 Vibration    20          0.971              1.008              0.431

                           ! Non-Optimized Parameters !
 Normal termination of Gaussian 16 at Mon Dec 14 16:46:56 2020.

 ----------------------------------------------------------------------
 # B3LYP/6-311++G(d,p) empiricaldispersion=gd3bj scf=xqc pop=npa geom=c
 heck
 ----------------------------------------------------------------------

 --------------------------------------
 CID_80647060_JID_3654_Energie_neutraal
 --------------------------------------
 Structure from the checkpoint file:  "JID_3654.chk"
 Charge =  0 Multiplicity = 1

 SCF Done:  E(RB3LYP) =  -627.619473736     A.U. after   14 cycles
 Normal termination of Gaussian 16 at Mon Dec 14 16:49:42 2020.

 ----------------------------------------------------------------------
 # B3LYP/6-311++G(d,p) empiricaldispersion=gd3bj scf=xqc pop=npa geom=c
 heck
 ----------------------------------------------------------------------

 ------------------------------------
 CID_80647060_JID_3654_Energie_kation
 ------------------------------------
 Structure from the checkpoint file:  "JID_3654.chk"
 Charge =  1 Multiplicity = 2

 SCF Done:  E(UB3LYP) =  -627.352659742     A.U. after   22 cycles
 Normal termination of Gaussian 16 at Mon Dec 14 16:55:23 2020.
 Gaussian 16:  ES64L-G16RevA.03 25-Dec-2016

 ----------------------------------------------------------------------
 # B3LYP/6-311++G(d,p) empiricaldispersion=gd3bj scf=xqc pop=npa geom=c
 heck
 ----------------------------------------------------------------------

 -----------------------------------
 CID_80647060_JID_3654_Energie_anion
 -----------------------------------
 Structure from the checkpoint file:  "JID_3654.chk"
 Charge = -1 Multiplicity = 2

                         Standard orientation:
 ---------------------------------------------------------------------
 Center     Atomic      Atomic             Coordinates (Angstroms)
 Number     Number       Type             X           Y           Z
 ---------------------------------------------------------------------
      1          6           0       -2.585727   -1.820906   -0.314804
      2          6           0       -3.214131   -0.596391   -0.093403
      3          6           0       -2.395575    0.508091    0.180258
      4          7           0       -1.054497    0.425951    0.239195
      5          6           0       -0.463813   -0.766849    0.042495
      6          6           0       -1.205244   -1.932135   -0.247499
      7          7           0        0.898740   -0.831984    0.162398
      8          6           0        1.785191    0.293133    0.443697
      9          6           0        3.145802   -0.301982    0.791690
     10          8           0        3.573781   -1.076532   -0.330241
     11          6           0        1.868598    1.346136   -0.687677
     12          8           0        0.863934    2.332395   -0.583848
     13          7           0       -2.920495    1.777078    0.345405
     14          1           0       -3.185507   -2.700375   -0.534152
     15          1           0       -4.292226   -0.489785   -0.147903
     16          1           0       -0.701279   -2.881992   -0.391953
     17          1           0        1.357538   -1.621889   -0.270899
     18          1           0        1.410897    0.816164    1.332374
     19          1           0        3.854170    0.509469    1.010420
     20          1           0        3.050672   -0.932505    1.688078
     21          1           0        4.402993   -1.518404   -0.096011
     22          1           0        2.829638    1.871292   -0.623740
     23          1           0        1.846518    0.822389   -1.656801
     24          1           0        0.037344    1.846767   -0.372109
     25          1           0       -2.304775    2.428478    0.814936
     26          1           0       -3.884542    1.831592    0.642938
 ---------------------------------------------------------------------

 SCF Done:  E(UB3LYP) =  -627.610691862     A.U. after   33 cycles
 SCF Done:  E(UB3LYP) =  -627.610691861     a.u. after    1 cycles

 The electronic state is 2-A.
 Alpha  occ. eigenvalues --  -19.02618 -18.99969 -14.22833 -14.22751 -14.20697
 Alpha  occ. eigenvalues --  -10.15393 -10.15318 -10.12183 -10.11188 -10.10878
 Alpha  occ. eigenvalues --  -10.09396 -10.07123 -10.06890  -0.92847  -0.90877
 Alpha  occ. eigenvalues --   -0.88299  -0.83939  -0.78329  -0.70661  -0.67836
 Alpha  occ. eigenvalues --   -0.62468  -0.57011  -0.54190  -0.54113  -0.49491
 Alpha  occ. eigenvalues --   -0.46098  -0.43530  -0.42442  -0.40072  -0.39175
 Alpha  occ. eigenvalues --   -0.38483  -0.37777  -0.35620  -0.33857  -0.33199
 Alpha  occ. eigenvalues --   -0.32165  -0.31280  -0.30127  -0.29199  -0.28127
 Alpha  occ. eigenvalues --   -0.25344  -0.25092  -0.23318  -0.20428  -0.18751
 Alpha  occ. eigenvalues --   -0.18254  -0.16149  -0.15311  -0.10478   0.03972
 Alpha virt. eigenvalues --    0.05207   0.06912   0.07365   0.08427   0.08460
 Alpha virt. eigenvalues --    0.09274   0.09747   0.10210   0.10792   0.11892
 Alpha virt. eigenvalues --    0.12842   0.12944   0.14082   0.14189   0.15098

  Beta  occ. eigenvalues --  -19.02554 -18.99965 -14.22821 -14.22709 -14.20689
  Beta  occ. eigenvalues --  -10.15392 -10.15311 -10.12150 -10.11188 -10.10872
  Beta  occ. eigenvalues --  -10.09391 -10.07114 -10.06872  -0.92718  -0.90864
  Beta  occ. eigenvalues --   -0.88279  -0.83903  -0.78285  -0.70641  -0.67790
  Beta  occ. eigenvalues --   -0.62424  -0.56954  -0.54144  -0.54080  -0.49456
  Beta  occ. eigenvalues --   -0.46036  -0.43477  -0.42355  -0.40015  -0.39137
  Beta  occ. eigenvalues --   -0.38440  -0.37734  -0.35591  -0.33836  -0.33167
  Beta  occ. eigenvalues --   -0.32141  -0.31256  -0.30098  -0.29169  -0.28093
  Beta  occ. eigenvalues --   -0.25321  -0.25025  -0.23292  -0.20412  -0.18691
  Beta  occ. eigenvalues --   -0.18240  -0.16136  -0.15284  -0.10452
  Beta virt. eigenvalues --    0.06416   0.07183   0.07294   0.07491   0.08887
  Beta virt. eigenvalues --    0.09079   0.09488   0.09771   0.10745   0.11160
  Beta virt. eigenvalues --    0.12326   0.12842   0.13154   0.14249   0.14446

 Mulliken charges and spin densities:
               1          2
     1  C    1.473795  -2.304549
     2  C   -0.913165   1.379479
     3  C    0.717996  -1.096272
     4  N   -0.177733  -0.023510
     5  C    1.581434  -2.160599
     6  C   -2.227279   2.849408
     7  N    0.050846  -0.007019
     8  C   -1.425281   1.366803
     9  C    2.038526  -2.617211
    10  O   -0.369851   0.089582
    11  C   -0.147397  -0.276202
    12  O   -0.276292   0.009763
    13  N   -0.365122   0.067739
    14  H    0.128726   0.026213
    15  H   -0.647458   0.824543
    16  H   -0.359932   0.514765
    17  H    0.341896  -0.076166
    18  H    0.157314   0.082143
    19  H   -0.142543   0.292752
    20  H   -0.449187   0.617055
    21  H   -0.390888   0.679525
    22  H    0.087863   0.066725
    23  H    0.198464  -0.015930
    24  H    0.309488   0.006773
    25  H    0.162013   0.087039
    26  H   -0.356235   0.617150
 Sum of Mulliken charges =  -1.00000   1.00000

 Dipole moment (field-independent basis, Debye):
    X=             -2.1860    Y=              0.3232    Z=             -0.4792  Tot=              2.2611
 Quadrupole moment (field-independent basis, Debye-Ang):
   XX=           -175.5511   YY=           -116.3749   ZZ=           -102.1555
   XY=             20.1519   XZ=              0.3316   YZ=              3.9731

 Summary of Natural Population Analysis:

                                       Natural Population
                Natural  -----------------------------------------------
    Atom  No    Charge         Core      Valence    Rydberg      Total
 -----------------------------------------------------------------------
      C    1   -0.06809      0.99958     2.05919    0.00932     3.06809
      C    2   -0.17230      0.99951     2.16267    0.01012     3.17230
      C    3    0.21247      0.99955     1.77310    0.01488     2.78753
      N    4   -0.31240      0.99962     2.80188    0.01090     3.81240
      C    5    0.21947      0.99954     1.76624    0.01475     2.78053
      C    6   -0.16291      0.99952     2.15488    0.00851     3.16291
      N    7   -0.31149      0.99966     2.80149    0.01034     3.81149
      C    8   -0.03526      0.99959     2.02180    0.01387     3.03526
      C    9   -0.00726      0.99957     1.99425    0.01344     3.00726
      O   10   -0.37956      0.99989     3.37234    0.00733     4.37956
      C   11   -0.01012      0.99958     1.99926    0.01128     3.01012
      O   12   -0.38734      0.99990     3.38009    0.00736     4.38734
      N   13   -0.39221      0.99971     2.88276    0.00975     3.89221
      H   14    0.09962      0.00000     0.39961    0.00076     0.40038
      H   15    0.10539      0.00000     0.39306    0.00154     0.39461
      H   16    0.10370      0.00000     0.39532    0.00098     0.39630
      H   17    0.19981      0.00000     0.29746    0.00274     0.30019
      H   18    0.10433      0.00000     0.39354    0.00212     0.39567
      H   19    0.08098      0.00000     0.41750    0.00152     0.41902
      H   20    0.08354      0.00000     0.41430    0.00216     0.41646
      H   21    0.24184      0.00000     0.23192    0.02624     0.25816
      H   22    0.08329      0.00000     0.41542    0.00129     0.41671
      H   23    0.07878      0.00000     0.41991    0.00131     0.42122
      H   24    0.24279      0.00000     0.25343    0.00378     0.25721
      H   25    0.19081      0.00000     0.30719    0.00200     0.30919
      H   26    0.19213      0.00000     0.30252    0.00536     0.30787
 =======================================================================
   * Total *    0.00000     12.99521    35.81113    0.19366    49.00000

 Normal termination of Gaussian 16 at Mon Dec 14 17:04:01 2020.
