 Gaussian 16, Revision A.03,

 -----------------------------------------------------------
 # opt freq B3LYP/6-31G(d) empiricaldispersion=gd3bj scf=xqc
 -----------------------------------------------------------

 ------------------------------
 CID_81259339_JID_9967_neutraal
 ------------------------------
 Symbolic Z-matrix:
 Charge =  0 Multiplicity = 1

 SCF Done:  E(RB3LYP) =  -1237.17327801     A.U. after   15 cycles
 SCF Done:  E(RB3LYP) =  -1237.17662339     A.U. after   12 cycles
 SCF Done:  E(RB3LYP) =  -1237.17665485     A.U. after   12 cycles
 SCF Done:  E(RB3LYP) =  -1237.17724573     A.U. after   12 cycles
 SCF Done:  E(RB3LYP) =  -1237.17751901     A.U. after   12 cycles
 SCF Done:  E(RB3LYP) =  -1237.17766794     A.U. after   12 cycles
 SCF Done:  E(RB3LYP) =  -1237.17772729     A.U. after   12 cycles
 SCF Done:  E(RB3LYP) =  -1237.17775229     A.U. after   11 cycles
 SCF Done:  E(RB3LYP) =  -1237.17778629     A.U. after   11 cycles
 SCF Done:  E(RB3LYP) =  -1237.17779439     A.U. after   10 cycles
 SCF Done:  E(RB3LYP) =  -1237.17779010     A.U. after    8 cycles
 SCF Done:  E(RB3LYP) =  -1237.17779007     A.U. after    7 cycles
 SCF Done:  E(RB3LYP) =  -1237.17779013     A.U. after    7 cycles
 SCF Done:  E(RB3LYP) =  -1237.17779043     A.U. after    8 cycles
 Optimization completed.
    -- Stationary point found.
 Normal termination of Gaussian 16 at Sat Dec 12 10:18:06 2020.

 --------------------------------------------------------------------
 #N Geom=AllCheck Guess=TCheck SCRF=Check GenChk RB3LYP/6-31G(d) Freq
 --------------------------------------------------------------------

 Structure from the checkpoint file:  "JID_9967.chk"
 ------------------------------
 CID_81259339_JID_9967_neutraal
 ------------------------------
 Charge =  0 Multiplicity = 1

 SCF Done:  E(RB3LYP) =  -1237.17779043     A.U. after    1 cycles

  Exact polarizability: 226.975  28.745 136.987  -5.988  20.569 140.620
 Approx polarizability: 295.588  47.943 228.852 -14.874  44.123 259.997

                      1                      2                      3
                      A                      A                      A
 Frequencies --     11.8606                17.7959                22.1113
 Red. masses --      5.9556                 4.7632                 5.2002
 Frc consts  --      0.0005                 0.0009                 0.0015
 IR Inten    --      0.9250                 0.9903                 1.2567

                      4                      5                      6
                      A                      A                      A
 Frequencies --     42.2111                76.3089               134.5985
 Red. masses --      5.3805                 6.0858                 4.9809
 Frc consts  --      0.0056                 0.0209                 0.0532
 IR Inten    --      0.2797                 1.1390                 1.1087

                      7                      8                      9
                      A                      A                      A
 Frequencies --    158.2228               170.2257               175.3870
 Red. masses --      4.7908                 5.5950                 4.4339
 Frc consts  --      0.0707                 0.0955                 0.0804
 IR Inten    --      0.7760                 3.7312                 2.5901

                     10                     11                     12
                      A                      A                      A
 Frequencies --    232.1946               236.4824               288.3987
 Red. masses --      4.6080                 4.4619                 2.7801
 Frc consts  --      0.1464                 0.1470                 0.1362
 IR Inten    --      1.4452                 0.2759                 1.5455

                     13                     14                     15
                      A                      A                      A
 Frequencies --    297.9133               313.8983               334.0370
 Red. masses --      9.2830                 6.5484                 4.9434
 Frc consts  --      0.4854                 0.3802                 0.3250
 IR Inten    --      1.9452                 7.4814                 3.0882

                     16                     17                     18
                      A                      A                      A
 Frequencies --    355.0497               411.7385               416.6838
 Red. masses --      1.1180                 3.0914                 3.9668
 Frc consts  --      0.0830                 0.3088                 0.4058
 IR Inten    --    115.4749                 8.8457                 0.5511

                     19                     20                     21
                      A                      A                      A
 Frequencies --    425.1544               454.4996               483.6032
 Red. masses --      4.2285                 3.2567                 5.0172
 Frc consts  --      0.4503                 0.3964                 0.6913
 IR Inten    --     17.6573                 0.2285                10.6858

                     22                     23                     24
                      A                      A                      A
 Frequencies --    499.0227               523.3623               541.2897
 Red. masses --      3.8217                 5.0126                 7.3109
 Frc consts  --      0.5607                 0.8090                 1.2621
 IR Inten    --     24.7779                 8.7903                 7.2477

                     25                     26                     27
                      A                      A                      A
 Frequencies --    565.3729               594.8605               616.5261
 Red. masses --      7.6114                 3.7147                 4.7679
 Frc consts  --      1.4335                 0.7745                 1.0678
 IR Inten    --    115.3708                17.6696                29.0317

                     28                     29                     30
                      A                      A                      A
 Frequencies --    646.4709               687.3576               698.2775
 Red. masses --      6.8439                 2.7056                 4.9524
 Frc consts  --      1.6852                 0.7531                 1.4227
 IR Inten    --     10.8729                10.8417                29.1904

                     31                     32                     33
                      A                      A                      A
 Frequencies --    722.9323               764.0432               778.1460
 Red. masses --      2.6021                 2.4913                 1.7370
 Frc consts  --      0.8013                 0.8569                 0.6197
 IR Inten    --    154.1911                 9.5449                21.7095

                     34                     35                     36
                      A                      A                      A
 Frequencies --    789.9656               806.3816               882.5445
 Red. masses --      1.4237                 2.8599                 1.4521
 Frc consts  --      0.5235                 1.0957                 0.6664
 IR Inten    --     31.1475                 8.6760                24.8300

                     37                     38                     39
                      A                      A                      A
 Frequencies --    884.5423               891.3866               905.9095
 Red. masses --      1.5395                 1.3379                 1.6993
 Frc consts  --      0.7097                 0.6263                 0.8217
 IR Inten    --     30.0397                 0.2990                14.7574

                     40                     41                     42
                      A                      A                      A
 Frequencies --    908.5230               944.8664               969.9062
 Red. masses --      2.4783                 2.9943                 1.2655
 Frc consts  --      1.2053                 1.5750                 0.7014
 IR Inten    --     12.6277                81.7504                 0.3070

                     43                     44                     45
                      A                      A                      A
 Frequencies --    977.8238              1007.0434              1008.8895
 Red. masses --      1.4006                 1.5114                 1.9803
 Frc consts  --      0.7890                 0.9031                 1.1876
 IR Inten    --      0.6871                 9.3247                18.2049

                     46                     47                     48
                      A                      A                      A
 Frequencies --   1016.3888              1028.0874              1077.2698
 Red. masses --      5.9302                 4.0915                 2.1774
 Frc consts  --      3.6095                 2.5480                 1.4888
 IR Inten    --      4.8058                 0.6736                11.6041

                     49                     50                     51
                      A                      A                      A
 Frequencies --   1082.6488              1094.6680              1106.7669
 Red. masses --      2.3140                 2.7801                 3.1213
 Frc consts  --      1.5981                 1.9628                 2.2527
 IR Inten    --      0.3094                61.5584                16.5984

                     52                     53                     54
                      A                      A                      A
 Frequencies --   1117.8503              1136.5918              1137.7923
 Red. masses --      1.7996                 2.6298                 1.8624
 Frc consts  --      1.3250                 2.0016                 1.4205
 IR Inten    --     13.1504               119.0139                45.5467

                     55                     56                     57
                      A                      A                      A
 Frequencies --   1189.1962              1197.8045              1216.1667
 Red. masses --      1.1316                 1.1393                 1.3242
 Frc consts  --      0.9429                 0.9631                 1.1540
 IR Inten    --      3.1072                 6.6401               150.3008

                     58                     59                     60
                      A                      A                      A
 Frequencies --   1227.0846              1255.8667              1261.4480
 Red. masses --      1.3376                 1.5132                 1.7472
 Frc consts  --      1.1867                 1.4061                 1.6381
 IR Inten    --      2.6848                26.5340                19.4936

                     61                     62                     63
                      A                      A                      A
 Frequencies --   1302.4761              1314.3693              1322.2142
 Red. masses --      2.5115                 5.7454                 5.6165
 Frc consts  --      2.5103                 5.8479                 5.7852
 IR Inten    --     35.5618                37.6106               142.2149

                     64                     65                     66
                      A                      A                      A
 Frequencies --   1342.3997              1349.9076              1382.6464
 Red. masses --      1.6098                 1.3751                 5.1806
 Frc consts  --      1.7092                 1.4764                 5.8352
 IR Inten    --     90.5826                15.6419                21.6299

                     67                     68                     69
                      A                      A                      A
 Frequencies --   1385.7562              1398.5438              1470.0299
 Red. masses --      1.3139                 1.4758                 1.3575
 Frc consts  --      1.4866                 1.7007                 1.7284
 IR Inten    --      3.5731                 1.6590               128.0955

                     70                     71                     72
                      A                      A                      A
 Frequencies --   1488.2450              1501.3257              1512.5277
 Red. masses --      1.7656                 1.1752                 2.5614
 Frc consts  --      2.3041                 1.5606                 3.4525
 IR Inten    --     28.3952                18.3332                 1.3803

                     73                     74                     75
                      A                      A                      A
 Frequencies --   1525.4713              1528.0855              1547.0664
 Red. masses --      2.1894                 2.6065                 1.0948
 Frc consts  --      3.0019                 3.5860                 1.5439
 IR Inten    --     14.3697                76.3762                14.1098

                     76                     77                     78
                      A                      A                      A
 Frequencies --   1633.6950              1648.9480              1655.8159
 Red. masses --      5.7410                 6.2456                 5.5095
 Frc consts  --      9.0278                10.0055                 8.9000
 IR Inten    --     13.6102                35.1332                54.8549

                     79                     80                     81
                      A                      A                      A
 Frequencies --   1667.4888              3044.1230              3054.0118
 Red. masses --      5.8414                 1.0621                 1.0620
 Frc consts  --      9.5696                 5.7988                 5.8360
 IR Inten    --     52.1354                17.9625                11.2194

                     82                     83                     84
                      A                      A                      A
 Frequencies --   3093.8213              3104.7335              3173.0001
 Red. masses --      1.1034                 1.1007                 1.0889
 Frc consts  --      6.2224                 6.2514                 6.4594
 IR Inten    --     36.2194                18.8509                16.7631

                     85                     86                     87
                      A                      A                      A
 Frequencies --   3185.0678              3195.0631              3205.2651
 Red. masses --      1.0890                 1.0882                 1.0920
 Frc consts  --      6.5089                 6.5451                 6.6102
 IR Inten    --     14.6138                 3.8930                16.0164

                     88                     89                     90
                      A                      A                      A
 Frequencies --   3209.6080              3222.1334              3239.2354
 Red. masses --      1.0934                 1.0976                 1.0914
 Frc consts  --      6.6362                 6.7140                 6.7472
 IR Inten    --     18.5653                18.6837                 1.8786

                     91                     92                     93
                      A                      A                      A
 Frequencies --   3242.3778              3382.5030              3752.6163
 Red. masses --      1.0928                 1.0754                 1.0660
 Frc consts  --      6.7686                 7.2494                 8.8443
 IR Inten    --      2.6713               478.5147                50.0855

 - Thermochemistry -
 -------------------
 Temperature   298.150 Kelvin.  Pressure   1.00000 Atm.
 Atom     1 has atomic number  6 and mass  12.00000

 Molecular mass:   278.07251 amu.
 Principal axes and moments of inertia in atomic units:
                           1         2         3
     Eigenvalues --  2261.05577********************
           X            0.99999   0.00294   0.00158
           Y           -0.00316   0.98724   0.15922
           Z           -0.00109  -0.15923   0.98724
 This molecule is an asymmetric top.
 Rotational symmetry number  1.
 Warning -- assumption of classical behavior for rotation
           may cause significant error
 Rotational temperatures (Kelvin)      0.03831     0.00735     0.00720
 Rotational constants (GHZ):           0.79819     0.15314     0.15009
 Zero-point vibrational energy     681273.4 (Joules/Mol)
                                  162.82826 (Kcal/Mol)
 Warning -- explicit consideration of  27 degrees of freedom as
           vibrations may cause significant error
 Vibrational temperatures:     17.06    25.60    31.81    60.73   109.79
          (Kelvin)            193.66   227.65   244.92   252.34   334.08
                              340.25   414.94   428.63   451.63   480.60
                              510.84   592.40   599.52   611.70   653.92
                              695.80   717.98   753.00   778.80   813.45
                              855.87   887.04   930.13   988.95  1004.67
                             1040.14  1099.29  1119.58  1136.58  1160.20
                             1269.78  1272.66  1282.51  1303.40  1307.16
                             1359.45  1395.48  1406.87  1448.91  1451.57
                             1462.36  1479.19  1549.95  1557.69  1574.98
                             1592.39  1608.34  1635.30  1637.03  1710.99
                             1723.37  1749.79  1765.50  1806.91  1814.94
                             1873.97  1891.08  1902.37  1931.41  1942.22
                             1989.32  1993.79  2012.19  2115.05  2141.25
                             2160.07  2176.19  2194.81  2198.57  2225.88
                             2350.52  2372.47  2382.35  2399.14  4379.81
                             4394.04  4451.32  4467.02  4565.24  4582.60
                             4596.98  4611.66  4617.91  4635.93  4660.54
                             4665.06  4866.67  5399.18

 Zero-point correction=                           0.259483 (Hartree/Particle)
 Thermal correction to Energy=                    0.276406
 Thermal correction to Enthalpy=                  0.277351
 Thermal correction to Gibbs Free Energy=         0.211077
 Sum of electronic and zero-point Energies=          -1236.918307
 Sum of electronic and thermal Energies=             -1236.901384
 Sum of electronic and thermal Enthalpies=           -1236.900440
 Sum of electronic and thermal Free Energies=        -1236.966713

                     E (Thermal)             CV                S
                      KCal/Mol        Cal/Mol-Kelvin    Cal/Mol-Kelvin
 Total                  173.448             64.987            139.484
 Electronic               0.000              0.000              0.000
 Translational            0.889              2.981             42.767
 Rotational               0.889              2.981             34.126
 Vibrational            171.670             59.026             62.591
 Vibration     1          0.593              1.987              7.672
 Vibration     2          0.593              1.986              6.866
 Vibration     3          0.593              1.985              6.435
 Vibration     4          0.595              1.980              5.153
 Vibration     5          0.599              1.965              3.984
 Vibration     6          0.613              1.919              2.879
 Vibration     7          0.621              1.893              2.571
 Vibration     8          0.625              1.879              2.433
 Vibration     9          0.627              1.873              2.377
 Vibration    10          0.653              1.792              1.862
 Vibration    11          0.655              1.785              1.829
 Vibration    12          0.685              1.695              1.483
 Vibration    13          0.691              1.678              1.429
 Vibration    14          0.702              1.647              1.342
 Vibration    15          0.716              1.608              1.240
 Vibration    16          0.731              1.565              1.144
 Vibration    17          0.776              1.445              0.920
 Vibration    18          0.780              1.434              0.903
 Vibration    19          0.787              1.416              0.875
 Vibration    20          0.813              1.351              0.782
 Vibration    21          0.840              1.286              0.700
 Vibration    22          0.854              1.252              0.661
 Vibration    23          0.878              1.198              0.602
 Vibration    24          0.896              1.159              0.563
 Vibration    25          0.921              1.106              0.513
 Vibration    26          0.953              1.043              0.459
 Vibration    27          0.976              0.997              0.422

                           ! Non-Optimized Parameters !
 Normal termination of Gaussian 16 at Sat Dec 12 10:31:15 2020.

 ----------------------------------------------------------------------
 # B3LYP/6-311++G(d,p) empiricaldispersion=gd3bj scf=xqc pop=npa geom=c
 heck
 ----------------------------------------------------------------------

 --------------------------------------
 CID_81259339_JID_9967_Energie_neutraal
 --------------------------------------
 Structure from the checkpoint file:  "JID_9967.chk"
 Charge =  0 Multiplicity = 1

 SCF Done:  E(RB3LYP) =  -1237.44271156     A.U. after   16 cycles
 Normal termination of Gaussian 16 at Sat Dec 12 10:37:33 2020.

 ----------------------------------------------------------------------
 # B3LYP/6-311++G(d,p) empiricaldispersion=gd3bj scf=xqc pop=npa geom=c
 heck
 ----------------------------------------------------------------------

 ------------------------------------
 CID_81259339_JID_9967_Energie_kation
 ------------------------------------
 Structure from the checkpoint file:  "JID_9967.chk"
 Charge =  1 Multiplicity = 2

 SCF Done:  E(UB3LYP) =  -1237.13221911     A.U. after   33 cycles
 SCF Done:  E(UB3LYP) =  -1237.13221911     a.u. after    1 cycles
 Normal termination of Gaussian 16 at Sat Dec 12 10:56:27 2020.
 Gaussian 16:  ES64L-G16RevA.03 25-Dec-2016

 ----------------------------------------------------------------------
 # B3LYP/6-311++G(d,p) empiricaldispersion=gd3bj scf=xqc pop=npa geom=c
 heck
 ----------------------------------------------------------------------

 -----------------------------------
 CID_81259339_JID_9967_Energie_anion
 -----------------------------------
 Structure from the checkpoint file:  "JID_9967.chk"
 Charge = -1 Multiplicity = 2

                         Standard orientation:
 ---------------------------------------------------------------------
 Center     Atomic      Atomic             Coordinates (Angstroms)
 Number     Number       Type             X           Y           Z
 ---------------------------------------------------------------------
      1          6           0       -5.595614    0.715247    0.076421
      2          6           0       -5.488286   -0.491317   -0.612122
      3          6           0       -4.217688   -0.915344   -0.997546
      4          7           0       -3.103613   -0.219481   -0.749295
      5          6           0       -3.203321    0.946583   -0.084426
      6          6           0       -4.438244    1.441905    0.347051
      7          6           0       -1.914420    1.695518    0.174294
      8          6           0       -0.824112    0.833152    0.824748
      9          7           0       -0.326617   -0.142709   -0.154846
     10         16           0        0.775255   -1.277109    0.406718
     11          8           0        0.553317   -1.583115    1.827855
     12          8           0        0.786905   -2.343262   -0.599040
     13          6           0        2.309369   -0.353433    0.306747
     14          6           0        2.880749    0.145278    1.477019
     15          6           0        4.065648    0.873932    1.373324
     16          6           0        4.657959    1.091871    0.130761
     17          6           0        4.067972    0.575393   -1.030154
     18          6           0        2.881479   -0.155290   -0.945997
     19          8           0        4.606244    0.753741   -2.271693
     20          1           0       -6.564342    1.083667    0.401939
     21          1           0       -6.361577   -1.092651   -0.842809
     22          1           0       -4.082424   -1.854200   -1.529918
     23          1           0       -4.485687    2.382369    0.887471
     24          1           0       -1.524909    2.088947   -0.773444
     25          1           0       -2.118839    2.553633    0.823145
     26          1           0        0.013666    1.472401    1.124386
     27          1           0       -1.212355    0.344902    1.728037
     28          1           0       -1.106554   -0.621650   -0.621841
     29          1           0        2.410797   -0.052900    2.432631
     30          1           0        4.536582    1.272677    2.266902
     31          1           0        5.583387    1.659847    0.058745
     32          1           0        2.427001   -0.563119   -1.841197
     33          1           0        5.432121    1.255264   -2.190236
 ---------------------------------------------------------------------

 SCF Done:  E(UB3LYP) =  -1237.44706092     A.U. after   33 cycles
 SCF Done:  E(UB3LYP) =  -1237.44706092     a.u. after    1 cycles

 The electronic state is 2-A.
 Alpha  occ. eigenvalues --  -88.94692 -19.05867 -19.00340 -19.00241 -14.21857
 Alpha  occ. eigenvalues --  -14.18854 -10.14076 -10.10605 -10.10434 -10.09563
 Alpha  occ. eigenvalues --  -10.09511 -10.08220 -10.08043 -10.07788 -10.07541
 Alpha  occ. eigenvalues --  -10.07391 -10.07257 -10.07205 -10.07082  -8.00858
 Alpha  occ. eigenvalues --   -5.97131  -5.97117  -5.96951  -1.00408  -0.96960
 Alpha  occ. eigenvalues --   -0.89494  -0.83737  -0.81020  -0.76266  -0.69571
 Alpha  occ. eigenvalues --   -0.69033  -0.66765  -0.65020  -0.63163  -0.56985
 Alpha  occ. eigenvalues --   -0.54313  -0.52650  -0.51536  -0.50595  -0.49128
 Alpha  occ. eigenvalues --   -0.44940  -0.41420  -0.40882  -0.40354  -0.39334
 Alpha  occ. eigenvalues --   -0.38068  -0.37839  -0.36798  -0.36295  -0.34660
 Alpha  occ. eigenvalues --   -0.33874  -0.32785  -0.31859  -0.30990  -0.30636
 Alpha  occ. eigenvalues --   -0.30063  -0.29399  -0.28414  -0.28227  -0.27185
 Alpha  occ. eigenvalues --   -0.25862  -0.25318  -0.24927  -0.23394  -0.21239
 Alpha  occ. eigenvalues --   -0.20385  -0.19397  -0.18763  -0.17633  -0.15763
 Alpha  occ. eigenvalues --   -0.15531  -0.14730  -0.13626   0.03587
 Alpha virt. eigenvalues --    0.04868   0.05747   0.06693   0.07577   0.08023
 Alpha virt. eigenvalues --    0.08287   0.08987   0.09179   0.09890   0.10519
 Alpha virt. eigenvalues --    0.10727   0.11411   0.12155   0.12526   0.12957

  Beta  occ. eigenvalues --  -88.94690 -19.05837 -19.00333 -19.00228 -14.21850
  Beta  occ. eigenvalues --  -14.18536 -10.14099 -10.10595 -10.10379 -10.09493
  Beta  occ. eigenvalues --  -10.09394 -10.08188 -10.08049 -10.07793 -10.07403
  Beta  occ. eigenvalues --  -10.07305 -10.07268 -10.07204 -10.06797  -8.00855
  Beta  occ. eigenvalues --   -5.97127  -5.97105  -5.96952  -1.00367  -0.96898
  Beta  occ. eigenvalues --   -0.89468  -0.83346  -0.80946  -0.76105  -0.69229
  Beta  occ. eigenvalues --   -0.68803  -0.66524  -0.64883  -0.63039  -0.56812
  Beta  occ. eigenvalues --   -0.54168  -0.52386  -0.51462  -0.50455  -0.48898
  Beta  occ. eigenvalues --   -0.44842  -0.41329  -0.40787  -0.40258  -0.39266
  Beta  occ. eigenvalues --   -0.37972  -0.37683  -0.36677  -0.36225  -0.34596
  Beta  occ. eigenvalues --   -0.33812  -0.32752  -0.31687  -0.30840  -0.30265
  Beta  occ. eigenvalues --   -0.29974  -0.29352  -0.28305  -0.28082  -0.26695
  Beta  occ. eigenvalues --   -0.25795  -0.25186  -0.24681  -0.23359  -0.21209
  Beta  occ. eigenvalues --   -0.20316  -0.19334  -0.17436  -0.17078  -0.15380
  Beta  occ. eigenvalues --   -0.15015  -0.14418  -0.13285
  Beta virt. eigenvalues --    0.06332   0.06642   0.06913   0.07641   0.07887
  Beta virt. eigenvalues --    0.08056   0.08392   0.09018   0.09230   0.10075
  Beta virt. eigenvalues --    0.10419   0.10699   0.11475   0.12075   0.12459

 Mulliken charges and spin densities:
               1          2
     1  C   -0.600574   0.186500
     2  C   -0.065986   0.019119
     3  C   -0.201201   0.057117
     4  N   -0.057642   0.140693
     5  C    0.239017   0.119708
     6  C    0.135539   0.001283
     7  C   -0.806541   0.015515
     8  C   -0.522539  -0.088228
     9  N   -0.144253   0.024633
    10  S    0.609984  -0.339753
    11  O   -0.167966   0.004866
    12  O   -0.230458  -0.009335
    13  C    0.075722  -0.072026
    14  C   -0.422752   0.512664
    15  C   -0.301881  -0.047173
    16  C   -0.146002   0.205812
    17  C    0.017227  -0.443420
    18  C    0.354038  -0.458422
    19  O   -0.234309   0.007025
    20  H    0.133679  -0.018334
    21  H    0.133658   0.001417
    22  H    0.148300  -0.005849
    23  H    0.138495   0.001636
    24  H    0.150616   0.035585
    25  H    0.130942   0.012070
    26  H    0.148755  -0.010285
    27  H    0.182196   0.012121
    28  H    0.401852   0.032849
    29  H    0.172343   0.040388
    30  H    0.139645   0.020159
    31  H   -0.513635   0.630200
    32  H    0.238885  -0.000357
    33  H   -0.135152   0.411823
 Sum of Mulliken charges =  -1.00000   1.00000

 Dipole moment (field-independent basis, Debye):
    X=             -4.4772    Y=              2.8269    Z=              2.2503  Tot=              5.7533
 Quadrupole moment (field-independent basis, Debye-Ang):
   XX=           -202.0217   YY=           -141.9154   ZZ=           -141.3753
   XY=             -4.7008   XZ=              8.8866   YZ=              7.1363

 Summary of Natural Population Analysis:

                                       Natural Population
                Natural  -----------------------------------------------
    Atom  No    Charge         Core      Valence    Rydberg      Total
 -----------------------------------------------------------------------
      C    1   -0.03506      0.99958     2.02620    0.00929     3.03506
      C    2   -0.13545      0.99957     2.12744    0.00844     3.13545
      C    3    0.04494      0.99960     1.94205    0.01341     2.95506
      N    4   -0.22292      0.99966     2.71113    0.01213     3.72292
      C    5    0.11841      0.99954     1.86859    0.01345     2.88159
      C    6   -0.12740      0.99951     2.11992    0.00796     3.12740
      C    7   -0.20550      0.99959     2.19664    0.00926     3.20550
      C    8   -0.08963      0.99962     2.07872    0.01128     3.08963
      N    9   -0.44885      0.99974     2.93661    0.01250     3.94885
      S   10    1.10660      4.99918     1.79313    0.10109     6.89340
      O   11   -0.47188      0.99991     3.46652    0.00546     4.47188
      O   12   -0.46509      0.99991     3.46021    0.00497     4.46509
      C   13   -0.11095      0.99938     2.09501    0.01656     3.11095
      C   14   -0.11744      0.99950     2.10844    0.00949     3.11744
      C   15   -0.09223      0.99957     2.08190    0.01075     3.09223
      C   16   -0.11365      0.99953     2.10396    0.01017     3.11365
      C   17    0.15527      0.99939     1.83189    0.01345     2.84473
      C   18   -0.10202      0.99946     2.09105    0.01151     3.10202
      O   19   -0.34015      0.99988     3.33348    0.00680     4.34015
      H   20    0.09088      0.00000     0.40811    0.00100     0.40912
      H   21    0.09651      0.00000     0.40245    0.00104     0.40349
      H   22    0.08581      0.00000     0.41309    0.00110     0.41419
      H   23    0.09607      0.00000     0.40286    0.00107     0.40393
      H   24    0.10842      0.00000     0.39002    0.00156     0.39158
      H   25    0.09990      0.00000     0.39908    0.00102     0.40010
      H   26    0.09663      0.00000     0.40192    0.00146     0.40337
      H   27    0.09569      0.00000     0.40267    0.00164     0.40431
      H   28    0.21812      0.00000     0.27879    0.00309     0.28188
      H   29    0.11426      0.00000     0.38469    0.00105     0.38574
      H   30    0.09861      0.00000     0.40064    0.00075     0.40139
      H   31    0.09907      0.00000     0.39938    0.00155     0.40093
      H   32    0.11685      0.00000     0.38202    0.00113     0.38315
      H   33    0.23614      0.00000     0.25850    0.00536     0.26386
 =======================================================================
   * Total *    0.00000     22.99212    49.69712    0.31076    73.00000

 Normal termination of Gaussian 16 at Sat Dec 12 11:15:43 2020.
