 Gaussian 16, Revision A.03,

 -----------------------------------------------------------
 # opt freq B3LYP/6-31G(d) empiricaldispersion=gd3bj scf=xqc
 -----------------------------------------------------------

 ------------------------------
 CID_43607743_JID_3886_neutraal
 ------------------------------
 Symbolic Z-matrix:
 Charge =  0 Multiplicity = 1

 SCF Done:  E(RB3LYP) =  -613.788255441     A.U. after   14 cycles
 SCF Done:  E(RB3LYP) =  -613.791066755     A.U. after   12 cycles
 SCF Done:  E(RB3LYP) =  -613.789375742     A.U. after   13 cycles
 SCF Done:  E(RB3LYP) =  -613.791893050     A.U. after   12 cycles
 SCF Done:  E(RB3LYP) =  -613.793018868     A.U. after   12 cycles
 SCF Done:  E(RB3LYP) =  -613.793193081     A.U. after   12 cycles
 SCF Done:  E(RB3LYP) =  -613.793487664     A.U. after   11 cycles
 SCF Done:  E(RB3LYP) =  -613.793526645     A.U. after    9 cycles
 SCF Done:  E(RB3LYP) =  -613.793531952     A.U. after    9 cycles
 SCF Done:  E(RB3LYP) =  -613.793535885     A.U. after    8 cycles
 SCF Done:  E(RB3LYP) =  -613.793536946     A.U. after    8 cycles
 SCF Done:  E(RB3LYP) =  -613.793537535     A.U. after    8 cycles
 SCF Done:  E(RB3LYP) =  -613.793537722     A.U. after    7 cycles
 SCF Done:  E(RB3LYP) =  -613.793538004     A.U. after    7 cycles
 SCF Done:  E(RB3LYP) =  -613.793538087     A.U. after    6 cycles
 Optimization completed.
    -- Stationary point found.
 Normal termination of Gaussian 16 at Wed Dec  9 23:48:46 2020.

 --------------------------------------------------------------------
 #N Geom=AllCheck Guess=TCheck SCRF=Check GenChk RB3LYP/6-31G(d) Freq
 --------------------------------------------------------------------

 Structure from the checkpoint file:  "JID_3886.chk"
 ------------------------------
 CID_43607743_JID_3886_neutraal
 ------------------------------
 Charge =  0 Multiplicity = 1

 SCF Done:  E(RB3LYP) =  -613.793538087     A.U. after    1 cycles

  Exact polarizability: 118.062   0.687 110.601  -0.637   0.832 101.453
 Approx polarizability: 148.539   0.729 164.407   1.575   4.715 154.714

                      1                      2                      3
                      A                      A                      A
 Frequencies --     40.6154                54.0386                62.3534
 Red. masses --      4.0059                 4.1368                 5.0031
 Frc consts  --      0.0039                 0.0071                 0.0115
 IR Inten    --      0.4152                 0.3154                 1.9388

                      4                      5                      6
                      A                      A                      A
 Frequencies --     94.5440               131.9650               165.2837
 Red. masses --      6.2836                 3.4037                 3.4258
 Frc consts  --      0.0331                 0.0349                 0.0551
 IR Inten    --      1.2898                 0.7483                 2.3742

                      7                      8                      9
                      A                      A                      A
 Frequencies --    222.0050               238.6662               245.7210
 Red. masses --      2.8882                 2.6479                 1.2256
 Frc consts  --      0.0839                 0.0889                 0.0436
 IR Inten    --      0.9115                 2.5304                 0.2448

                     10                     11                     12
                      A                      A                      A
 Frequencies --    312.6561               368.6233               402.0176
 Red. masses --      2.2589                 2.4073                 2.7198
 Frc consts  --      0.1301                 0.1927                 0.2590
 IR Inten    --      3.3938                 0.3750                 3.8045

                     13                     14                     15
                      A                      A                      A
 Frequencies --    420.6070               431.8784               478.2843
 Red. masses --      2.0649                 2.1671                 2.4703
 Frc consts  --      0.2152                 0.2381                 0.3329
 IR Inten    --      1.4880                 8.1138                 7.0355

                     16                     17                     18
                      A                      A                      A
 Frequencies --    492.5824               526.2197               550.6518
 Red. masses --      2.5656                 2.7904                 2.1310
 Frc consts  --      0.3668                 0.4552                 0.3807
 IR Inten    --      1.2578                 7.9629                11.6819

                     19                     20                     21
                      A                      A                      A
 Frequencies --    553.2509               641.2213               653.4219
 Red. masses --      2.8087                 1.7050                 2.2912
 Frc consts  --      0.5065                 0.4130                 0.5764
 IR Inten    --     42.1532                55.2861                 8.7210

                     22                     23                     24
                      A                      A                      A
 Frequencies --    727.2829               774.3479               816.2206
 Red. masses --      1.9503                 2.1995                 2.3885
 Frc consts  --      0.6078                 0.7770                 0.9375
 IR Inten    --     86.5993                55.5446                 9.9115

                     25                     26                     27
                      A                      A                      A
 Frequencies --    828.3509               833.8348               853.1354
 Red. masses --      2.9836                 1.6232                 2.4258
 Frc consts  --      1.2062                 0.6650                 1.0403
 IR Inten    --     15.7731                 1.3457                28.7153

                     28                     29                     30
                      A                      A                      A
 Frequencies --    893.2110               912.7499               942.5389
 Red. masses --      2.4023                 1.9436                 2.2966
 Frc consts  --      1.1293                 0.9540                 1.2021
 IR Inten    --      0.2508                 2.6981                10.7975

                     31                     32                     33
                      A                      A                      A
 Frequencies --    985.6757              1026.8267              1028.1630
 Red. masses --      2.6725                 1.8649                 1.8067
 Frc consts  --      1.5298                 1.1585                 1.1253
 IR Inten    --      4.7997                15.8907                 6.3980

                     34                     35                     36
                      A                      A                      A
 Frequencies --   1057.5319              1067.8370              1079.7476
 Red. masses --      2.0283                 2.1453                 1.8971
 Frc consts  --      1.3365                 1.4413                 1.3031
 IR Inten    --     30.8676                23.8927                 9.8858

                     37                     38                     39
                      A                      A                      A
 Frequencies --   1098.5117              1124.3948              1143.7199
 Red. masses --      2.0314                 1.7248                 2.2572
 Frc consts  --      1.4443                 1.2848                 1.7396
 IR Inten    --      8.8810                24.1992                32.6663

                     40                     41                     42
                      A                      A                      A
 Frequencies --   1152.9691              1170.3848              1196.1396
 Red. masses --      1.9219                 1.6789                 2.2279
 Frc consts  --      1.5052                 1.3550                 1.8780
 IR Inten    --     72.7705                36.9030               126.6340

                     43                     44                     45
                      A                      A                      A
 Frequencies --   1200.9216              1216.0726              1247.0578
 Red. masses --      1.2462                 1.1998                 1.2952
 Frc consts  --      1.0589                 1.0454                 1.1868
 IR Inten    --      3.5427                 3.7941                27.6574

                     46                     47                     48
                      A                      A                      A
 Frequencies --   1274.9613              1289.3581              1323.0284
 Red. masses --      1.3970                 1.5340                 1.4958
 Frc consts  --      1.3379                 1.5025                 1.5426
 IR Inten    --      8.2570                17.3324                 3.1102

                     49                     50                     51
                      A                      A                      A
 Frequencies --   1332.3790              1364.8535              1369.7614
 Red. masses --      1.2144                 1.7139                 1.2833
 Frc consts  --      1.2702                 1.8810                 1.4186
 IR Inten    --      4.4446                 9.8002                21.7889

                     52                     53                     54
                      A                      A                      A
 Frequencies --   1377.8157              1386.1926              1397.2692
 Red. masses --      1.6958                 1.3574                 1.4086
 Frc consts  --      1.8967                 1.5367                 1.6203
 IR Inten    --     21.6382                37.9213                27.3742

                     55                     56                     57
                      A                      A                      A
 Frequencies --   1403.7328              1413.1154              1424.4907
 Red. masses --      1.3804                 1.3199                 1.6258
 Frc consts  --      1.6026                 1.5529                 1.9437
 IR Inten    --     12.8806                 6.6652                29.9300

                     58                     59                     60
                      A                      A                      A
 Frequencies --   1456.0554              1484.6974              1497.4113
 Red. masses --      1.4551                 1.1567                 1.1391
 Frc consts  --      1.8176                 1.5023                 1.5048
 IR Inten    --      3.1328                 1.3856                 8.7775

                     61                     62                     63
                      A                      A                      A
 Frequencies --   1503.9930              1511.9436              1514.4334
 Red. masses --      1.2549                 1.1186                 1.0746
 Frc consts  --      1.6724                 1.5065                 1.4521
 IR Inten    --      4.2950                 1.8270                19.9629

                     64                     65                     66
                      A                      A                      A
 Frequencies --   1522.2219              1532.1519              1537.5042
 Red. masses --      1.1173                 1.0786                 1.0993
 Frc consts  --      1.5253                 1.4918                 1.5311
 IR Inten    --      2.7448                 7.2648                 6.8808

                     67                     68                     69
                      A                      A                      A
 Frequencies --   1543.9389              1556.5239              1835.8336
 Red. masses --      1.0764                 1.0630                 9.2537
 Frc consts  --      1.5118                 1.5174                18.3752
 IR Inten    --      4.9646                 1.4976               225.9707

                     70                     71                     72
                      A                      A                      A
 Frequencies --   2936.0324              2955.2438              2958.1552
 Red. masses --      1.0811                 1.0620                 1.0721
 Frc consts  --      5.4909                 5.4645                 5.5276
 IR Inten    --     60.7041                79.2952                40.2659

                     73                     74                     75
                      A                      A                      A
 Frequencies --   2964.5165              3059.8301              3063.8341
 Red. masses --      1.0714                 1.0680                 1.0718
 Frc consts  --      5.5479                 5.8912                 5.9278
 IR Inten    --     90.1393                 9.5317                 9.2101

                     76                     77                     78
                      A                      A                      A
 Frequencies --   3068.2878              3071.5125              3076.6397
 Red. masses --      1.0769                 1.0696                 1.0827
 Frc consts  --      5.9733                 5.9456                 6.0385
 IR Inten    --     31.9446                32.9383                66.8910

                     79                     80                     81
                      A                      A                      A
 Frequencies --   3081.2876              3089.6479              3110.7495
 Red. masses --      1.0803                 1.0725                 1.1015
 Frc consts  --      6.0433                 6.0318                 6.2800
 IR Inten    --     59.8745                23.0555                44.3126

                     82                     83                     84
                      A                      A                      A
 Frequencies --   3127.8411              3131.5583              3138.8054
 Red. masses --      1.0973                 1.1008                 1.0952
 Frc consts  --      6.3249                 6.3602                 6.3575
 IR Inten    --      4.4796                35.8456                10.8621

                     85                     86                     87
                      A                      A                      A
 Frequencies --   3148.0006              3493.8730              3677.4572
 Red. masses --      1.0927                 1.0744                 1.0638
 Frc consts  --      6.3802                 7.7275                 8.4762
 IR Inten    --     24.7378                 3.6963                45.8588

 - Thermochemistry -
 -------------------
 Temperature   298.150 Kelvin.  Pressure   1.00000 Atm.
 Atom     1 has atomic number  6 and mass  12.00000

 Molecular mass:   186.13683 amu.
 Principal axes and moments of inertia in atomic units:
                           1         2         3
     Eigenvalues --  1377.868033509.559133948.25266
           X            0.99992   0.01107  -0.00561
           Y           -0.01105   0.99993   0.00368
           Z            0.00565  -0.00362   0.99998
 This molecule is an asymmetric top.
 Rotational symmetry number  1.
 Warning -- assumption of classical behavior for rotation
           may cause significant error
 Rotational temperatures (Kelvin)      0.06286     0.02468     0.02194
 Rotational constants (GHZ):           1.30981     0.51424     0.45710
 Zero-point vibrational energy     732540.3 (Joules/Mol)
                                  175.08133 (Kcal/Mol)
 Warning -- explicit consideration of  19 degrees of freedom as
           vibrations may cause significant error
 Vibrational temperatures:     58.44    77.75    89.71   136.03   189.87
          (Kelvin)            237.81   319.42   343.39   353.54   449.84
                              530.37   578.41   605.16   621.38   688.14
                              708.72   757.11   792.27   796.00   922.57
                              940.13  1046.40  1114.11  1174.36  1191.81
                             1199.70  1227.47  1285.13  1313.24  1356.10
                             1418.17  1477.37  1479.30  1521.55  1536.38
                             1553.52  1580.51  1617.75  1645.56  1658.87
                             1683.92  1720.98  1727.86  1749.66  1794.24
                             1834.38  1855.10  1903.54  1917.00  1963.72
                             1970.78  1982.37  1994.42  2010.36  2019.66
                             2033.16  2049.52  2094.94  2136.15  2154.44
                             2163.91  2175.35  2178.93  2190.14  2204.42
                             2212.13  2221.38  2239.49  2641.36  4224.30
                             4251.94  4256.13  4265.28  4402.41  4408.17
                             4414.58  4419.22  4426.60  4433.29  4445.31
                             4475.67  4500.27  4505.61  4516.04  4529.27
                             5026.90  5291.04

 Zero-point correction=                           0.279010 (Hartree/Particle)
 Thermal correction to Energy=                    0.291977
 Thermal correction to Enthalpy=                  0.292922
 Thermal correction to Gibbs Free Energy=         0.238986
 Sum of electronic and zero-point Energies=           -613.514528
 Sum of electronic and thermal Energies=              -613.501561
 Sum of electronic and thermal Enthalpies=            -613.500617
 Sum of electronic and thermal Free Energies=         -613.554552

                     E (Thermal)             CV                S
                      KCal/Mol        Cal/Mol-Kelvin    Cal/Mol-Kelvin
 Total                  183.219             49.995            113.517
 Electronic               0.000              0.000              0.000
 Translational            0.889              2.981             41.570
 Rotational               0.889              2.981             31.324
 Vibrational            181.441             44.033             40.623
 Vibration     1          0.594              1.981              5.229
 Vibration     2          0.596              1.976              4.664
 Vibration     3          0.597              1.972              4.381
 Vibration     4          0.603              1.953              3.564
 Vibration     5          0.612              1.921              2.917
 Vibration     6          0.624              1.885              2.488
 Vibration     7          0.648              1.808              1.943
 Vibration     8          0.657              1.781              1.813
 Vibration     9          0.660              1.770              1.761
 Vibration    10          0.701              1.650              1.348
 Vibration    11          0.741              1.537              1.086
 Vibration    12          0.768              1.466              0.955
 Vibration    13          0.783              1.425              0.890
 Vibration    14          0.793              1.401              0.853
 Vibration    15          0.835              1.298              0.715
 Vibration    16          0.848              1.266              0.677
 Vibration    17          0.881              1.192              0.596
 Vibration    18          0.906              1.138              0.543
 Vibration    19          0.909              1.133              0.537

 Optimization completed.
    -- Stationary point found.
 Normal termination of Gaussian 16 at Wed Dec  9 23:57:26 2020.

 ----------------------------------------------------------------------
 # B3LYP/6-311++G(d,p) empiricaldispersion=gd3bj scf=xqc pop=npa geom=c
 heck
 ----------------------------------------------------------------------

 --------------------------------------
 CID_43607743_JID_3886_Energie_neutraal
 --------------------------------------
 Structure from the checkpoint file:  "JID_3886.chk"
 Charge =  0 Multiplicity = 1

 SCF Done:  E(RB3LYP) =  -613.980749425     A.U. after   14 cycles
 Normal termination of Gaussian 16 at Thu Dec 10 00:00:41 2020.

 ----------------------------------------------------------------------
 # B3LYP/6-311++G(d,p) empiricaldispersion=gd3bj scf=xqc pop=npa geom=c
 heck
 ----------------------------------------------------------------------

 ------------------------------------
 CID_43607743_JID_3886_Energie_kation
 ------------------------------------
 Structure from the checkpoint file:  "JID_3886.chk"
 Charge =  1 Multiplicity = 2

 SCF Done:  E(UB3LYP) =  -613.701857526     A.U. after   20 cycles
 Normal termination of Gaussian 16 at Thu Dec 10 00:06:56 2020.
 Gaussian 16:  ES64L-G16RevA.03 25-Dec-2016

 ----------------------------------------------------------------------
 # B3LYP/6-311++G(d,p) empiricaldispersion=gd3bj scf=xqc pop=npa geom=c
 heck
 ----------------------------------------------------------------------

 -----------------------------------
 CID_43607743_JID_3886_Energie_anion
 -----------------------------------
 Structure from the checkpoint file:  "JID_3886.chk"
 Charge = -1 Multiplicity = 2

                         Standard orientation:
 ---------------------------------------------------------------------
 Center     Atomic      Atomic             Coordinates (Angstroms)
 Number     Number       Type             X           Y           Z
 ---------------------------------------------------------------------
      1          6           0       -0.113208    2.401097   -0.102897
      2          7           0       -0.175485    1.010694   -0.535374
      3          6           0        0.965745    0.654388   -1.368674
      4          6           0        2.367212    0.682995   -0.700856
      5          6           0        2.654896   -0.534418    0.142455
      6          8           0        2.525169   -1.683512   -0.224374
      7          8           0        3.105668   -0.217765    1.382874
      8          6           0       -0.496181    0.063422    0.549826
      9          6           0       -0.766699   -1.354760    0.008992
     10          6           0       -2.021543   -1.382375   -0.864897
     11          7           0       -3.175441   -0.930319   -0.080943
     12          6           0       -3.002229    0.437345    0.414839
     13          6           0       -1.764781    0.495408    1.312935
     14          1           0        0.256664    3.015557   -0.929866
     15          1           0        0.547244    2.571693    0.767615
     16          1           0       -1.108394    2.771263    0.156574
     17          1           0        0.812269   -0.335767   -1.802471
     18          1           0        0.986570    1.363501   -2.203537
     19          1           0        3.117596    0.681298   -1.501386
     20          1           0        2.514096    1.592045   -0.113398
     21          1           0        3.267336   -1.068612    1.833329
     22          1           0        0.335339    0.020728    1.278929
     23          1           0        0.091693   -1.757439   -0.532028
     24          1           0       -0.926868   -2.010575    0.872755
     25          1           0       -1.847685   -0.762284   -1.762714
     26          1           0       -2.216220   -2.407333   -1.201007
     27          1           0       -4.013698   -0.976589   -0.656394
     28          1           0       -3.893468    0.709779    0.992294
     29          1           0       -2.892159    1.176469   -0.399621
     30          1           0       -1.903838   -0.205606    2.143622
     31          1           0       -1.655961    1.490855    1.753181
 ---------------------------------------------------------------------

 SCF Done:  E(UB3LYP) =  -613.967332703     A.U. after   32 cycles

 The electronic state is 2-A.
 Alpha  occ. eigenvalues --  -19.06772 -19.01220 -14.20206 -14.19544 -10.20295
 Alpha  occ. eigenvalues --  -10.09690 -10.09632 -10.08713 -10.08698 -10.08292
 Alpha  occ. eigenvalues --  -10.07879 -10.06315 -10.05796  -1.00743  -0.91806
 Alpha  occ. eigenvalues --   -0.82817  -0.80334  -0.68739  -0.66441  -0.65047
 Alpha  occ. eigenvalues --   -0.59010  -0.55884  -0.51946  -0.51287  -0.48292
 Alpha  occ. eigenvalues --   -0.43152  -0.41557  -0.40219  -0.38812  -0.38663
 Alpha  occ. eigenvalues --   -0.36426  -0.35935  -0.35070  -0.33981  -0.32374
 Alpha  occ. eigenvalues --   -0.31326  -0.30225  -0.29415  -0.28953  -0.28336
 Alpha  occ. eigenvalues --   -0.28175  -0.27235  -0.25919  -0.24299  -0.24237
 Alpha  occ. eigenvalues --   -0.22626  -0.21371  -0.20792  -0.18234  -0.13168
 Alpha  occ. eigenvalues --   -0.11016   0.04412
 Alpha virt. eigenvalues --    0.06267   0.06753   0.07502   0.08718   0.09086
 Alpha virt. eigenvalues --    0.09700   0.10083   0.10342   0.10830   0.11626
 Alpha virt. eigenvalues --    0.12232   0.12715   0.13018   0.14061   0.14423

  Beta  occ. eigenvalues --  -19.06721 -19.01201 -14.20205 -14.19530 -10.20268
  Beta  occ. eigenvalues --  -10.09680 -10.09615 -10.08696 -10.08692 -10.08260
  Beta  occ. eigenvalues --  -10.07845 -10.06306 -10.05793  -1.00665  -0.91745
  Beta  occ. eigenvalues --   -0.82802  -0.80313  -0.68699  -0.66395  -0.65018
  Beta  occ. eigenvalues --   -0.58943  -0.55830  -0.51908  -0.51230  -0.48209
  Beta  occ. eigenvalues --   -0.43108  -0.41509  -0.40169  -0.38749  -0.38626
  Beta  occ. eigenvalues --   -0.36378  -0.35898  -0.35028  -0.33945  -0.32336
  Beta  occ. eigenvalues --   -0.31286  -0.30185  -0.29377  -0.28926  -0.28289
  Beta  occ. eigenvalues --   -0.28144  -0.27192  -0.25890  -0.24280  -0.24211
  Beta  occ. eigenvalues --   -0.22562  -0.21336  -0.20765  -0.18196  -0.13142
  Beta  occ. eigenvalues --   -0.10995
  Beta virt. eigenvalues --    0.06600   0.07413   0.07698   0.08056   0.09119
  Beta virt. eigenvalues --    0.09461   0.10155   0.10543   0.10716   0.10989
  Beta virt. eigenvalues --    0.12091   0.12659   0.12870   0.13287   0.14178

 Mulliken charges and spin densities:
               1          2
     1  C    0.830637  -1.200046
     2  N    0.054885   0.124265
     3  C   -0.903085   0.722387
     4  C    1.470623  -1.895840
     5  C    0.008306  -0.219908
     6  O   -0.260409   0.037211
     7  O   -0.156233   0.077071
     8  C    0.067035   0.025920
     9  C   -0.209324  -0.249312
    10  C   -0.315120  -0.129274
    11  N   -0.253877   0.112118
    12  C    0.425088  -0.853517
    13  C   -0.586275   0.112830
    14  H   -0.264896   0.405259
    15  H   -0.173016   0.327520
    16  H   -0.049729   0.176275
    17  H    0.306172  -0.142902
    18  H   -0.318027   0.497578
    19  H   -0.577572   0.778907
    20  H    0.180245   0.024411
    21  H   -0.400515   0.697290
    22  H    0.173879   0.037450
    23  H    0.183811  -0.021845
    24  H    0.122176   0.030202
    25  H   -0.076998   0.217147
    26  H    0.079466   0.090828
    27  H   -0.046439   0.283263
    28  H   -0.200898   0.377539
    29  H   -0.093440   0.231106
    30  H    0.045698   0.102999
    31  H   -0.062168   0.223068
 Sum of Mulliken charges =  -1.00000   1.00000

 Dipole moment (field-independent basis, Debye):
    X=             -2.6753    Y=             -1.5459    Z=             -0.0499  Tot=              3.0902
 Quadrupole moment (field-independent basis, Debye-Ang):
   XX=           -151.1869   YY=           -122.6799   ZZ=           -116.5000
   XY=              2.1864   XZ=              0.0665   YZ=              5.1044

 Summary of Natural Population Analysis:

                                       Natural Population
                Natural  -----------------------------------------------
    Atom  No    Charge         Core      Valence    Rydberg      Total
 -----------------------------------------------------------------------
      C    1   -0.18024      0.99964     2.17141    0.00919     3.18024
      N    2   -0.28897      0.99971     2.77529    0.01397     3.78897
      C    3   -0.07947      0.99960     2.06658    0.01329     3.07947
      C    4   -0.25212      0.99956     2.24331    0.00924     3.25212
      C    5    0.40891      0.99971     1.56607    0.02530     2.59109
      O    6   -0.31453      0.99987     3.30847    0.00620     4.31453
      O    7   -0.34307      0.99988     3.33644    0.00676     4.34307
      C    8   -0.00315      0.99957     1.99113    0.01245     3.00315
      C    9   -0.20269      0.99960     2.19486    0.00823     3.20269
      C   10   -0.08869      0.99962     2.07828    0.01079     3.08869
      N   11   -0.34363      0.99974     2.83207    0.01182     3.84363
      C   12   -0.08936      0.99962     2.07837    0.01137     3.08936
      C   13   -0.19763      0.99961     2.18857    0.00945     3.19763
      H   14    0.09795      0.00000     0.40079    0.00126     0.40205
      H   15    0.08319      0.00000     0.41542    0.00139     0.41681
      H   16    0.09515      0.00000     0.40353    0.00132     0.40485
      H   17    0.10093      0.00000     0.39759    0.00149     0.39907
      H   18    0.09820      0.00000     0.40043    0.00136     0.40180
      H   19    0.11943      0.00000     0.37806    0.00251     0.38057
      H   20    0.11089      0.00000     0.38741    0.00170     0.38911
      H   21    0.24181      0.00000     0.24783    0.01037     0.25819
      H   22    0.08901      0.00000     0.40866    0.00233     0.41099
      H   23    0.11122      0.00000     0.38759    0.00119     0.38878
      H   24    0.10007      0.00000     0.39864    0.00129     0.39993
      H   25    0.08328      0.00000     0.41502    0.00170     0.41672
      H   26    0.09162      0.00000     0.40752    0.00086     0.40838
      H   27    0.17242      0.00000     0.32493    0.00265     0.32758
      H   28    0.09306      0.00000     0.40571    0.00122     0.40694
      H   29    0.08338      0.00000     0.41480    0.00182     0.41662
      H   30    0.10089      0.00000     0.39780    0.00131     0.39911
      H   31    0.10215      0.00000     0.39687    0.00098     0.39785
 =======================================================================
   * Total *   -0.00000     12.99572    37.81945    0.18483    51.00000

 Normal termination of Gaussian 16 at Thu Dec 10 00:16:47 2020.
