 Gaussian 16, Revision A.03,

 -----------------------------------------------------------
 # opt freq B3LYP/6-31G(d) empiricaldispersion=gd3bj scf=xqc
 -----------------------------------------------------------

 ------------------------------
 CID_139771229_JID_679_neutraal
 ------------------------------
 Symbolic Z-matrix:
 Charge =  0 Multiplicity = 1

 SCF Done:  E(RB3LYP) =  -474.773411409     A.U. after   15 cycles
 SCF Done:  E(RB3LYP) =  -474.779388355     A.U. after   12 cycles
 SCF Done:  E(RB3LYP) =  -474.780105510     A.U. after   11 cycles
 SCF Done:  E(RB3LYP) =  -474.780118091     A.U. after   12 cycles
 SCF Done:  E(RB3LYP) =  -474.780350579     A.U. after   11 cycles
 SCF Done:  E(RB3LYP) =  -474.780412144     A.U. after   11 cycles
 SCF Done:  E(RB3LYP) =  -474.780427168     A.U. after   10 cycles
 SCF Done:  E(RB3LYP) =  -474.780435607     A.U. after   10 cycles
 SCF Done:  E(RB3LYP) =  -474.780437345     A.U. after    9 cycles
 SCF Done:  E(RB3LYP) =  -474.780437631     A.U. after    7 cycles
 SCF Done:  E(RB3LYP) =  -474.780437749     A.U. after    7 cycles
 SCF Done:  E(RB3LYP) =  -474.780437822     A.U. after    7 cycles
 Optimization completed.
    -- Stationary point found.
 Normal termination of Gaussian 16 at Tue Dec  8 12:23:33 2020.

 --------------------------------------------------------------------
 #N Geom=AllCheck Guess=TCheck SCRF=Check GenChk RB3LYP/6-31G(d) Freq
 --------------------------------------------------------------------

 Structure from the checkpoint file:  "JID_679.chk"
 ------------------------------
 CID_139771229_JID_679_neutraal
 ------------------------------
 Charge =  0 Multiplicity = 1

 SCF Done:  E(RB3LYP) =  -474.780437822     A.U. after    1 cycles

  Exact polarizability:  88.875  -0.165  85.665  10.198  -0.331  63.642
 Approx polarizability: 123.181   0.524 134.745  23.761   3.921  96.764

                      1                      2                      3
                      A                      A                      A
 Frequencies --     35.7435                81.5694               113.0606
 Red. masses --      4.3679                 4.1731                 2.7891
 Frc consts  --      0.0033                 0.0164                 0.0210
 IR Inten    --      0.7109                 0.4294                 2.7322

                      4                      5                      6
                      A                      A                      A
 Frequencies --    159.8673               204.5931               235.9329
 Red. masses --      2.3853                 3.9201                 2.1995
 Frc consts  --      0.0359                 0.0967                 0.0721
 IR Inten    --      0.5931                 0.7226                 5.4290

                      7                      8                      9
                      A                      A                      A
 Frequencies --    281.7575               318.3927               376.1457
 Red. masses --      1.7275                 2.1203                 2.0166
 Frc consts  --      0.0808                 0.1266                 0.1681
 IR Inten    --      5.7916                 4.2820                 9.7315

                     10                     11                     12
                      A                      A                      A
 Frequencies --    439.6541               468.4436               557.4838
 Red. masses --      1.4429                 2.5024                 3.9871
 Frc consts  --      0.1643                 0.3235                 0.7301
 IR Inten    --     77.0278                 2.3729                 5.0854

                     13                     14                     15
                      A                      A                      A
 Frequencies --    658.2599               665.6624               739.0777
 Red. masses --      3.8765                 2.9993                 5.9860
 Frc consts  --      0.9897                 0.7830                 1.9265
 IR Inten    --     35.3502                 6.7181                15.4068

                     16                     17                     18
                      A                      A                      A
 Frequencies --    769.5968               793.8644               820.1276
 Red. masses --      1.4858                 4.8029                 2.4176
 Frc consts  --      0.5185                 1.7834                 0.9581
 IR Inten    --     12.8762                 3.6102                 3.5558

                     19                     20                     21
                      A                      A                      A
 Frequencies --    825.8110               904.5770               932.0612
 Red. masses --      1.3283                 1.5147                 3.4491
 Frc consts  --      0.5337                 0.7302                 1.7654
 IR Inten    --     11.1097                 5.2711                35.8939

                     22                     23                     24
                      A                      A                      A
 Frequencies --    969.2286               992.4141              1068.4074
 Red. masses --      2.2494                 1.5552                 2.8067
 Frc consts  --      1.2450                 0.9024                 1.8876
 IR Inten    --      4.4376                 4.9062                19.8865

                     25                     26                     27
                      A                      A                      A
 Frequencies --   1085.1053              1128.1011              1149.3426
 Red. masses --      1.8114                 2.0589                 1.9214
 Frc consts  --      1.2566                 1.5438                 1.4954
 IR Inten    --      5.5058                 5.8935                 3.6466

                     28                     29                     30
                      A                      A                      A
 Frequencies --   1208.5367              1223.0551              1254.1380
 Red. masses --      2.5539                 3.1736                 1.5017
 Frc consts  --      2.1978                 2.7970                 1.3916
 IR Inten    --      9.3028                11.5729                21.4565

                     31                     32                     33
                      A                      A                      A
 Frequencies --   1283.8433              1328.7230              1367.7584
 Red. masses --      1.3173                 1.3187                 1.4598
 Frc consts  --      1.2793                 1.3717                 1.6091
 IR Inten    --      1.1285                 1.4219                15.4875

                     34                     35                     36
                      A                      A                      A
 Frequencies --   1384.4879              1390.6289              1411.2112
 Red. masses --      1.9457                 1.4568                 1.5014
 Frc consts  --      2.1974                 1.6598                 1.7617
 IR Inten    --     21.0948                 7.0908                 2.7790

                     37                     38                     39
                      A                      A                      A
 Frequencies --   1418.7756              1446.8611              1451.9147
 Red. masses --      1.7216                 2.1342                 1.2628
 Frc consts  --      2.0417                 2.6324                 1.5684
 IR Inten    --     46.2115                40.1456                 7.3539

                     40                     41                     42
                      A                      A                      A
 Frequencies --   1510.1580              1520.7973              1523.1222
 Red. masses --      1.0880                 1.1053                 1.0668
 Frc consts  --      1.4619                 1.5062                 1.4581
 IR Inten    --      1.9148                11.5741                 2.8855

                     43                     44                     45
                      A                      A                      A
 Frequencies --   1534.5655              1554.2735              1626.3663
 Red. masses --      1.0587                 1.0524                 5.2911
 Frc consts  --      1.4690                 1.4979                 8.2459
 IR Inten    --      7.6581                 4.3282                72.2374

                     46                     47                     48
                      A                      A                      A
 Frequencies --   1835.2628              3031.3796              3042.2394
 Red. masses --     10.3673                 1.0612                 1.0608
 Frc consts  --     20.5738                 5.7455                 5.7848
 IR Inten    --    454.3200                21.1229                17.0461

                     49                     50                     51
                      A                      A                      A
 Frequencies --   3044.4631              3066.6306              3070.8064
 Red. masses --      1.0425                 1.0960                 1.0741
 Frc consts  --      5.6932                 6.0727                 5.9678
 IR Inten    --     33.8094                23.1173                36.4794

                     52                     53                     54
                      A                      A                      A
 Frequencies --   3078.9799              3108.9738              3135.2596
 Red. masses --      1.0985                 1.0997                 1.1015
 Frc consts  --      6.1357                 6.2629                 6.3792
 IR Inten    --     63.2923                41.0161                13.7798

                     55                     56                     57
                      A                      A                      A
 Frequencies --   3142.6550              3280.5471              3692.3625
 Red. masses --      1.0984                 1.0982                 1.0816
 Frc consts  --      6.3914                 6.9638                 8.6883
 IR Inten    --      3.2576                 1.1316                85.8243

 - Thermochemistry -
 -------------------
 Temperature   298.150 Kelvin.  Pressure   1.00000 Atm.
 Atom     1 has atomic number  6 and mass  12.00000

 Molecular mass:   141.09021 amu.
 Principal axes and moments of inertia in atomic units:
                           1         2         3
     Eigenvalues --   831.549831778.299622144.58409
           X            0.99997   0.00267  -0.00699
           Y           -0.00297   0.99906  -0.04335
           Z            0.00687   0.04337   0.99904
 This molecule is an asymmetric top.
 Rotational symmetry number  1.
 Warning -- assumption of classical behavior for rotation
           may cause significant error
 Rotational temperatures (Kelvin)      0.10416     0.04871     0.04039
 Rotational constants (GHZ):           2.17033     1.01487     0.84153
 Zero-point vibrational energy     470988.1 (Joules/Mol)
                                  112.56885 (Kcal/Mol)
 Warning -- explicit consideration of  12 degrees of freedom as
           vibrations may cause significant error
 Vibrational temperatures:     51.43   117.36   162.67   230.01   294.36
          (Kelvin)            339.45   405.39   458.10   541.19   632.56
                              673.99   802.09   947.09   957.74  1063.37
                             1107.28  1142.19  1179.98  1188.16  1301.48
                             1341.03  1394.50  1427.86  1537.20  1561.22
                             1623.09  1653.65  1738.81  1759.70  1804.42
                             1847.16  1911.74  1967.90  1991.97  2000.80
                             2030.42  2041.30  2081.71  2088.98  2172.78
                             2188.09  2191.43  2207.90  2236.25  2339.98
                             2640.53  4361.48  4377.10  4380.30  4412.20
                             4418.21  4429.97  4473.12  4510.94  4521.58
                             4719.98  5312.49

 Zero-point correction=                           0.179390 (Hartree/Particle)
 Thermal correction to Energy=                    0.189224
 Thermal correction to Enthalpy=                  0.190168
 Thermal correction to Gibbs Free Energy=         0.143531
 Sum of electronic and zero-point Energies=           -474.601048
 Sum of electronic and thermal Energies=              -474.591214
 Sum of electronic and thermal Enthalpies=            -474.590270
 Sum of electronic and thermal Free Energies=         -474.636907

                     E (Thermal)             CV                S
                      KCal/Mol        Cal/Mol-Kelvin    Cal/Mol-Kelvin
 Total                  118.740             36.032             98.155
 Electronic               0.000              0.000              0.000
 Translational            0.889              2.981             40.744
 Rotational               0.889              2.981             29.540
 Vibrational            116.962             30.071             27.871
 Vibration     1          0.594              1.982              5.482
 Vibration     2          0.600              1.962              3.853
 Vibration     3          0.607              1.939              3.216
 Vibration     4          0.622              1.892              2.551
 Vibration     5          0.640              1.833              2.091
 Vibration     6          0.655              1.786              1.833
 Vibration     7          0.681              1.707              1.523
 Vibration     8          0.705              1.638              1.318
 Vibration     9          0.747              1.521              1.055
 Vibration    10          0.800              1.384              0.828
 Vibration    11          0.826              1.320              0.742
 Vibration    12          0.913              1.123              0.529

 Optimization completed.
    -- Stationary point found.
 Normal termination of Gaussian 16 at Tue Dec  8 12:27:07 2020.

 ----------------------------------------------------------------------
 # B3LYP/6-311++G(d,p) empiricaldispersion=gd3bj scf=xqc pop=npa geom=c
 heck
 ----------------------------------------------------------------------

 --------------------------------------
 CID_139771229_JID_679_Energie_neutraal
 --------------------------------------
 Structure from the checkpoint file:  "JID_679.chk"
 Charge =  0 Multiplicity = 1

 SCF Done:  E(RB3LYP) =  -474.918498917     A.U. after   14 cycles
 Normal termination of Gaussian 16 at Tue Dec  8 12:29:26 2020.

 ----------------------------------------------------------------------
 # B3LYP/6-311++G(d,p) empiricaldispersion=gd3bj scf=xqc pop=npa geom=c
 heck
 ----------------------------------------------------------------------

 ------------------------------------
 CID_139771229_JID_679_Energie_kation
 ------------------------------------
 Structure from the checkpoint file:  "JID_679.chk"
 Charge =  1 Multiplicity = 2

 SCF Done:  E(UB3LYP) =  -474.599406632     A.U. after   21 cycles
 Normal termination of Gaussian 16 at Tue Dec  8 12:40:06 2020.
 Gaussian 16:  ES64L-G16RevA.03 25-Dec-2016

 ----------------------------------------------------------------------
 # B3LYP/6-311++G(d,p) empiricaldispersion=gd3bj scf=xqc pop=npa geom=c
 heck
 ----------------------------------------------------------------------

 -----------------------------------
 CID_139771229_JID_679_Energie_anion
 -----------------------------------
 Structure from the checkpoint file:  "JID_679.chk"
 Charge = -1 Multiplicity = 2

                         Standard orientation:
 ---------------------------------------------------------------------
 Center     Atomic      Atomic             Coordinates (Angstroms)
 Number     Number       Type             X           Y           Z
 ---------------------------------------------------------------------
      1          6           0        2.618252    1.100956   -0.446102
      2          6           0        2.106534   -0.261872   -0.923664
      3          6           0        1.758429   -1.233721    0.211728
      4          6           0        0.654635   -0.743084    1.156987
      5          7           0       -0.590300   -0.438948    0.466464
      6          6           0       -1.459408   -1.302261   -0.155288
      7          7           0       -2.455402   -0.691663   -0.726314
      8          7           0       -2.208001    0.639486   -0.465507
      9          6           0       -1.064788    0.867459    0.269120
     10          8           0       -0.573671    1.917402    0.658514
     11          1           0        1.835292    1.665298    0.069333
     12          1           0        2.955490    1.704895   -1.295575
     13          1           0        3.469585    0.984738    0.236883
     14          1           0        1.223715   -0.119119   -1.560628
     15          1           0        2.863666   -0.741003   -1.557349
     16          1           0        1.459726   -2.201658   -0.213594
     17          1           0        2.650635   -1.426570    0.822804
     18          1           0        0.453973   -1.491375    1.931839
     19          1           0        0.942760    0.185334    1.655443
     20          1           0       -1.328818   -2.374964   -0.159575
     21          1           0       -2.842660    1.348213   -0.796872
 ---------------------------------------------------------------------

 SCF Done:  E(UB3LYP) =  -474.904542628     A.U. after   31 cycles

 The electronic state is 2-A.
 Alpha  occ. eigenvalues --  -18.99107 -14.27993 -14.26858 -14.24667 -10.20083
 Alpha  occ. eigenvalues --  -10.14062 -10.10773 -10.06392 -10.06067 -10.04875
 Alpha  occ. eigenvalues --   -0.99099  -0.92074  -0.83975  -0.73066  -0.69453
 Alpha  occ. eigenvalues --   -0.63481  -0.56783  -0.55488  -0.51200  -0.47283
 Alpha  occ. eigenvalues --   -0.44117  -0.39953  -0.38082  -0.36602  -0.35439
 Alpha  occ. eigenvalues --   -0.34566  -0.33487  -0.29730  -0.28958  -0.28526
 Alpha  occ. eigenvalues --   -0.26350  -0.23834  -0.23563  -0.22732  -0.22470
 Alpha  occ. eigenvalues --   -0.20231  -0.17519  -0.13131   0.04770
 Alpha virt. eigenvalues --    0.06887   0.07663   0.08573   0.09723   0.10275
 Alpha virt. eigenvalues --    0.10638   0.11740   0.12388   0.12570   0.13925
 Alpha virt. eigenvalues --    0.14112   0.14703   0.15092   0.15818   0.17685

  Beta  occ. eigenvalues --  -18.99103 -14.27972 -14.26858 -14.24652 -10.20082
  Beta  occ. eigenvalues --  -10.14023 -10.10742 -10.06354 -10.06050 -10.04856
  Beta  occ. eigenvalues --   -0.99078  -0.92061  -0.83949  -0.73019  -0.69402
  Beta  occ. eigenvalues --   -0.63435  -0.56724  -0.55428  -0.51144  -0.47216
  Beta  occ. eigenvalues --   -0.44054  -0.39903  -0.38039  -0.36525  -0.35369
  Beta  occ. eigenvalues --   -0.34538  -0.33463  -0.29688  -0.28920  -0.28482
  Beta  occ. eigenvalues --   -0.26312  -0.23796  -0.23522  -0.22691  -0.22427
  Beta  occ. eigenvalues --   -0.20186  -0.17501  -0.13091
  Beta virt. eigenvalues --    0.07271   0.07998   0.08890   0.09332   0.10358
  Beta virt. eigenvalues --    0.10690   0.11184   0.12269   0.12786   0.13010
  Beta virt. eigenvalues --    0.14204   0.14348   0.14779   0.15377   0.16002

 Mulliken charges and spin densities:
               1          2
     1  C    0.534824  -1.123072
     2  C   -0.509964   0.369008
     3  C    0.766520  -0.963466
     4  C    0.710186  -1.046503
     5  N   -0.214628   0.076890
     6  C    0.830581  -0.846558
     7  N   -0.161940  -0.040119
     8  N   -0.272101   0.146837
     9  C    0.604347  -0.472345
    10  O   -0.415076   0.016815
    11  H    0.120282   0.053368
    12  H   -0.029433   0.150425
    13  H   -0.102826   0.230846
    14  H    0.001285   0.141870
    15  H   -0.512717   0.684556
    16  H   -0.130834   0.284227
    17  H   -0.573655   0.726338
    18  H   -0.961094   1.189381
    19  H    0.331818  -0.153758
    20  H   -0.998378   1.209575
    21  H   -0.017196   0.365685
 Sum of Mulliken charges =  -1.00000   1.00000

 Dipole moment (field-independent basis, Debye):
    X=             -2.5210    Y=              5.1149    Z=             -1.4128  Tot=              5.8749
 Quadrupole moment (field-independent basis, Debye-Ang):
   XX=           -110.0972   YY=           -112.7181   ZZ=            -91.6665
   XY=              3.3855   XZ=             -0.2168   YZ=              4.1364

 Summary of Natural Population Analysis:

                                       Natural Population
                Natural  -----------------------------------------------
    Atom  No    Charge         Core      Valence    Rydberg      Total
 -----------------------------------------------------------------------
      C    1   -0.29379      0.99966     2.28850    0.00563     3.29379
      C    2   -0.19235      0.99964     2.18447    0.00825     3.19235
      C    3   -0.19211      0.99962     2.18307    0.00942     3.19211
      C    4   -0.08812      0.99960     2.07564    0.01288     3.08812
      N    5   -0.24206      0.99964     2.73033    0.01209     3.74206
      C    6    0.12036      0.99964     1.86328    0.01673     2.87964
      N    7   -0.15798      0.99972     2.64479    0.01347     3.65798
      N    8   -0.22085      0.99968     2.70908    0.01210     3.72085
      C    9    0.38525      0.99967     1.59272    0.02236     2.61475
      O   10   -0.33775      0.99987     3.33260    0.00528     4.33775
      H   11    0.10871      0.00000     0.39013    0.00116     0.39129
      H   12    0.09643      0.00000     0.40280    0.00076     0.40357
      H   13    0.09389      0.00000     0.40517    0.00094     0.40611
      H   14    0.09268      0.00000     0.40577    0.00155     0.40732
      H   15    0.09843      0.00000     0.40015    0.00143     0.40157
      H   16    0.10188      0.00000     0.39432    0.00379     0.39812
      H   17    0.10232      0.00000     0.39493    0.00275     0.39768
      H   18    0.10661      0.00000     0.38936    0.00402     0.39339
      H   19    0.10976      0.00000     0.38870    0.00154     0.39024
      H   20    0.10654      0.00000     0.38984    0.00362     0.39346
      H   21    0.20214      0.00000     0.29534    0.00252     0.29786
 =======================================================================
   * Total *   -0.00000      9.99675    27.86098    0.14228    38.00000

 Normal termination of Gaussian 16 at Tue Dec  8 12:50:13 2020.
