 Gaussian 16, Revision A.03,

 -----------------------------------------------------------
 # opt freq B3LYP/6-31G(d) empiricaldispersion=gd3bj scf=xqc
 -----------------------------------------------------------

 -------------------------------
 CID_143590941_JID_6498_neutraal
 -------------------------------
 Symbolic Z-matrix:
 Charge =  0 Multiplicity = 1

 SCF Done:  E(RB3LYP) =  -781.330420587     A.U. after   18 cycles
 SCF Done:  E(RB3LYP) =  -781.337047508     A.U. after   15 cycles
 SCF Done:  E(RB3LYP) =  -781.327876794     A.U. after   17 cycles
 SCF Done:  E(RB3LYP) =  -781.338507976     A.U. after   14 cycles
 SCF Done:  E(RB3LYP) =  -781.339404437     A.U. after   14 cycles
 SCF Done:  E(RB3LYP) =  -781.340567069     A.U. after   15 cycles
 SCF Done:  E(RB3LYP) =  -781.341755033     A.U. after   15 cycles
 SCF Done:  E(RB3LYP) =  -781.343216450     A.U. after   14 cycles
 SCF Done:  E(RB3LYP) =  -781.343864823     A.U. after   15 cycles
 SCF Done:  E(RB3LYP) =  -781.344030135     A.U. after   14 cycles
 SCF Done:  E(RB3LYP) =  -781.344139103     A.U. after   13 cycles
 SCF Done:  E(RB3LYP) =  -781.344154246     A.U. after   13 cycles
 SCF Done:  E(RB3LYP) =  -781.344178891     A.U. after   12 cycles
 SCF Done:  E(RB3LYP) =  -781.344179401     A.U. after    9 cycles
 SCF Done:  E(RB3LYP) =  -781.344179485     A.U. after    8 cycles
 Optimization completed.
    -- Stationary point found.
 Normal termination of Gaussian 16 at Thu Dec 10 23:17:59 2020.

 --------------------------------------------------------------------
 #N Geom=AllCheck Guess=TCheck SCRF=Check GenChk RB3LYP/6-31G(d) Freq
 --------------------------------------------------------------------

 Structure from the checkpoint file:  "JID_6498.chk"
 -------------------------------
 CID_143590941_JID_6498_neutraal
 -------------------------------
 Charge =  0 Multiplicity = 1

 SCF Done:  E(RB3LYP) =  -781.344179485     A.U. after    1 cycles

  Exact polarizability: 160.949   8.811 155.982 -18.559  -7.090  86.263
 Approx polarizability: 238.683  35.385 281.461 -44.802 -20.381 148.541

                      1                      2                      3
                      A                      A                      A
 Frequencies --     49.1976                62.1138                75.6167
 Red. masses --      6.2623                 5.7920                 3.0834
 Frc consts  --      0.0089                 0.0132                 0.0104
 IR Inten    --      0.3237                 4.1139                 0.6859

                      4                      5                      6
                      A                      A                      A
 Frequencies --     87.2073               116.2480               134.3612
 Red. masses --      7.2322                 3.5222                 1.3749
 Frc consts  --      0.0324                 0.0280                 0.0146
 IR Inten    --      2.6801                 2.0349                 0.2465

                      7                      8                      9
                      A                      A                      A
 Frequencies --    155.2413               175.1893               177.6444
 Red. masses --      3.8802                 3.3960                 1.2410
 Frc consts  --      0.0551                 0.0614                 0.0231
 IR Inten    --      0.7512                 2.0219                 1.3852

                     10                     11                     12
                      A                      A                      A
 Frequencies --    187.5442               201.1272               289.5547
 Red. masses --      2.9962                 3.4665                 4.9687
 Frc consts  --      0.0621                 0.0826                 0.2454
 IR Inten    --      1.1004                 0.7622                 0.3469

                     13                     14                     15
                      A                      A                      A
 Frequencies --    309.8768               317.5995               348.5933
 Red. masses --      3.7000                 4.1891                 3.7354
 Frc consts  --      0.2093                 0.2490                 0.2674
 IR Inten    --      4.2145                 3.0227                 0.9108

                     16                     17                     18
                      A                      A                      A
 Frequencies --    382.8726               391.5806               457.9392
 Red. masses --      4.2009                 5.1800                 5.3559
 Frc consts  --      0.3628                 0.4680                 0.6618
 IR Inten    --      0.5880                 4.0168                 5.1221

                     19                     20                     21
                      A                      A                      A
 Frequencies --    488.0358               526.6148               555.2879
 Red. masses --      3.7257                 5.5369                 3.9055
 Frc consts  --      0.5228                 0.9047                 0.7095
 IR Inten    --     10.3970                 0.1313                 2.6813

                     22                     23                     24
                      A                      A                      A
 Frequencies --    570.1779               599.3854               611.8948
 Red. masses --      4.7590                 4.3976                 3.3474
 Frc consts  --      0.9116                 0.9308                 0.7384
 IR Inten    --      4.6963                 3.1180                 1.1706

                     25                     26                     27
                      A                      A                      A
 Frequencies --    648.4678               653.6895               672.1347
 Red. masses --      2.8758                 3.7561                 1.8767
 Frc consts  --      0.7125                 0.9457                 0.4995
 IR Inten    --      1.1534                 4.8875                 9.0136

                     28                     29                     30
                      A                      A                      A
 Frequencies --    754.3192               771.8753               791.5167
 Red. masses --      1.6949                 3.5795                 3.6804
 Frc consts  --      0.5682                 1.2565                 1.3585
 IR Inten    --      2.2586                21.4934                 3.4370

                     31                     32                     33
                      A                      A                      A
 Frequencies --    815.1147               881.4796               894.2963
 Red. masses --      2.5908                 1.4489                 5.1573
 Frc consts  --      1.0142                 0.6633                 2.4302
 IR Inten    --      8.2586                21.9658                34.7414

                     34                     35                     36
                      A                      A                      A
 Frequencies --    900.5931               955.8804               961.4015
 Red. masses --      4.0754                 1.3425                 1.4336
 Frc consts  --      1.9475                 0.7227                 0.7807
 IR Inten    --      0.2740                48.6850                21.6758

                     37                     38                     39
                      A                      A                      A
 Frequencies --    975.6760               995.8331              1044.1464
 Red. masses --      3.4358                 1.8744                 1.4062
 Frc consts  --      1.9270                 1.0952                 0.9033
 IR Inten    --     12.9303                 1.6613                 4.8734

                     40                     41                     42
                      A                      A                      A
 Frequencies --   1054.0974              1075.3075              1081.3798
 Red. masses --      1.8351                 2.2438                 1.5274
 Frc consts  --      1.2014                 1.5286                 1.0524
 IR Inten    --      8.1654                41.7111                 4.8060

                     43                     44                     45
                      A                      A                      A
 Frequencies --   1090.4799              1184.0651              1202.7281
 Red. masses --      1.5106                 7.2251                 2.4951
 Frc consts  --      1.0583                 5.9682                 2.1266
 IR Inten    --      1.2431                45.2737                 6.0492

                     46                     47                     48
                      A                      A                      A
 Frequencies --   1256.1761              1299.3231              1367.9764
 Red. masses --      2.6261                 2.9287                 3.0381
 Frc consts  --      2.4415                 2.9131                 3.3497
 IR Inten    --     26.7325                 5.3324                 8.6439

                     49                     50                     51
                      A                      A                      A
 Frequencies --   1397.1418              1407.1941              1434.1212
 Red. masses --     10.9950                 3.8370                 1.2259
 Frc consts  --     12.6452                 4.4766                 1.4855
 IR Inten    --    102.1600               281.4755                15.0033

                     52                     53                     54
                      A                      A                      A
 Frequencies --   1444.1689              1446.3941              1471.9881
 Red. masses --      1.4247                 1.4098                 1.2589
 Frc consts  --      1.7507                 1.7378                 1.6072
 IR Inten    --     40.6980                55.2125                14.8875

                     55                     56                     57
                      A                      A                      A
 Frequencies --   1500.0202              1507.0805              1511.9411
 Red. masses --      1.0430                 1.0454                 1.0782
 Frc consts  --      1.3827                 1.3990                 1.4521
 IR Inten    --     10.0168                 7.6352                 5.6383

                     58                     59                     60
                      A                      A                      A
 Frequencies --   1526.2979              1620.3194              1638.3833
 Red. masses --      1.0621                 8.8624                13.4140
 Frc consts  --      1.4578                13.7089                21.2148
 IR Inten    --     21.1336                37.0633               193.2916

                     61                     62                     63
                      A                      A                      A
 Frequencies --   1708.4690              1714.8967              1718.3762
 Red. masses --      8.4249                 6.0856                 5.3556
 Frc consts  --     14.4887                10.5445                 9.3175
 IR Inten    --     17.1365                15.7934                39.3557

                     64                     65                     66
                      A                      A                      A
 Frequencies --   1747.1822              3058.7802              3059.5871
 Red. masses --      9.6339                 1.0379                 1.0355
 Frc consts  --     17.3272                 5.7214                 5.7114
 IR Inten    --    309.1264                 8.2135                13.4603

                     67                     68                     69
                      A                      A                      A
 Frequencies --   3114.7873              3120.5839              3147.1505
 Red. masses --      1.1011                 1.1010                 1.1029
 Frc consts  --      6.2943                 6.3170                 6.4362
 IR Inten    --      7.5571                 9.8683                14.8656

                     70                     71                     72
                      A                      A                      A
 Frequencies --   3163.2773              3180.1570              3215.7782
 Red. masses --      1.1010                 1.0602                 1.0595
 Frc consts  --      6.4911                 6.3174                 6.4556
 IR Inten    --      6.8562                 2.8900                 1.5547

                     73                     74                     75
                      A                      A                      A
 Frequencies --   3238.4962              3264.1331              3316.9433
 Red. masses --      1.0927                 1.1168                 1.1182
 Frc consts  --      6.7520                 7.0105                 7.2483
 IR Inten    --      2.1163                 6.2111                 1.5516

 - Thermochemistry -
 -------------------
 Temperature   298.150 Kelvin.  Pressure   1.00000 Atm.
 Atom     1 has atomic number  6 and mass  12.00000

 Molecular mass:   221.06881 amu.
 Principal axes and moments of inertia in atomic units:
                           1         2         3
     Eigenvalues --  2326.252863690.426435252.21356
           X            0.99971   0.01602  -0.01800
           Y           -0.01612   0.99985  -0.00570
           Z            0.01791   0.00598   0.99982
 This molecule is an asymmetric top.
 Rotational symmetry number  1.
 Warning -- assumption of classical behavior for rotation
           may cause significant error
 Rotational temperatures (Kelvin)      0.03723     0.02347     0.01649
 Rotational constants (GHZ):           0.77581     0.48903     0.34362
 Zero-point vibrational energy     539949.5 (Joules/Mol)
                                  129.05103 (Kcal/Mol)
 Warning -- explicit consideration of  24 degrees of freedom as
           vibrations may cause significant error
 Vibrational temperatures:     70.78    89.37   108.80   125.47   167.25
          (Kelvin)            193.32   223.36   252.06   255.59   269.83
                              289.38   416.60   445.84   456.95   501.55
                              550.87   563.40   658.87   702.17   757.68
                              798.94   820.36   862.38   880.38   933.00
                              940.51   967.05  1085.30  1110.56  1138.82
                             1172.77  1268.25  1286.69  1295.75  1375.30
                             1383.24  1403.78  1432.78  1502.29  1516.61
                             1547.13  1555.86  1568.96  1703.61  1730.46
                             1807.36  1869.44  1968.21  2010.18  2024.64
                             2063.38  2077.84  2081.04  2117.86  2158.19
                             2168.35  2175.35  2196.00  2331.28  2357.27
                             2458.11  2467.35  2472.36  2513.81  4400.90
                             4402.06  4481.48  4489.82  4528.05  4551.25
                             4575.54  4626.79  4659.47  4696.36  4772.34

 Zero-point correction=                           0.205656 (Hartree/Particle)
 Thermal correction to Energy=                    0.220980
 Thermal correction to Enthalpy=                  0.221924
 Thermal correction to Gibbs Free Energy=         0.163092
 Sum of electronic and zero-point Energies=           -781.138524
 Sum of electronic and thermal Energies=              -781.123200
 Sum of electronic and thermal Enthalpies=            -781.122255
 Sum of electronic and thermal Free Energies=         -781.181087

                     E (Thermal)             CV                S
                      KCal/Mol        Cal/Mol-Kelvin    Cal/Mol-Kelvin
 Total                  138.667             56.765            123.822
 Electronic               0.000              0.000              0.000
 Translational            0.889              2.981             42.083
 Rotational               0.889              2.981             32.178
 Vibrational            136.890             50.804             49.561
 Vibration     1          0.595              1.978              4.849
 Vibration     2          0.597              1.972              4.389
 Vibration     3          0.599              1.965              4.002
 Vibration     4          0.601              1.958              3.722
 Vibration     5          0.608              1.936              3.162
 Vibration     6          0.613              1.919              2.883
 Vibration     7          0.620              1.897              2.607
 Vibration     8          0.627              1.873              2.379
 Vibration     9          0.628              1.870              2.353
 Vibration    10          0.632              1.857              2.252
 Vibration    11          0.638              1.838              2.123
 Vibration    12          0.686              1.693              1.477
 Vibration    13          0.699              1.655              1.363
 Vibration    14          0.704              1.640              1.322
 Vibration    15          0.726              1.578              1.173
 Vibration    16          0.752              1.507              1.028
 Vibration    17          0.759              1.488              0.994
 Vibration    18          0.816              1.343              0.772
 Vibration    19          0.844              1.277              0.689
 Vibration    20          0.882              1.191              0.595
 Vibration    21          0.911              1.128              0.533
 Vibration    22          0.926              1.096              0.504
 Vibration    23          0.957              1.033              0.451
 Vibration    24          0.971              1.007              0.430

                           ! Non-Optimized Parameters !
 Normal termination of Gaussian 16 at Thu Dec 10 23:27:01 2020.

 ----------------------------------------------------------------------
 # B3LYP/6-311++G(d,p) empiricaldispersion=gd3bj scf=xqc pop=npa geom=c
 heck
 ----------------------------------------------------------------------

 ---------------------------------------
 CID_143590941_JID_6498_Energie_neutraal
 ---------------------------------------
 Structure from the checkpoint file:  "JID_6498.chk"
 Charge =  0 Multiplicity = 1

 SCF Done:  E(RB3LYP) =  -781.566666774     A.U. after   19 cycles
 Normal termination of Gaussian 16 at Thu Dec 10 23:31:49 2020.

 ----------------------------------------------------------------------
 # B3LYP/6-311++G(d,p) empiricaldispersion=gd3bj scf=xqc pop=npa geom=c
 heck
 ----------------------------------------------------------------------

 -------------------------------------
 CID_143590941_JID_6498_Energie_kation
 -------------------------------------
 Structure from the checkpoint file:  "JID_6498.chk"
 Charge =  1 Multiplicity = 2

 SCF Done:  E(UB3LYP) =  -781.245909303     A.U. after   33 cycles
 SCF Done:  E(UB3LYP) =  -781.245909303     a.u. after    1 cycles
 Normal termination of Gaussian 16 at Thu Dec 10 23:43:45 2020.
 Gaussian 16:  ES64L-G16RevA.03 25-Dec-2016

 ----------------------------------------------------------------------
 # B3LYP/6-311++G(d,p) empiricaldispersion=gd3bj scf=xqc pop=npa geom=c
 heck
 ----------------------------------------------------------------------

 ------------------------------------
 CID_143590941_JID_6498_Energie_anion
 ------------------------------------
 Structure from the checkpoint file:  "JID_6498.chk"
 Charge = -1 Multiplicity = 2

                         Standard orientation:
 ---------------------------------------------------------------------
 Center     Atomic      Atomic             Coordinates (Angstroms)
 Number     Number       Type             X           Y           Z
 ---------------------------------------------------------------------
      1          6           0        4.050282    0.526741   -0.266023
      2          6           0        2.683088   -0.048125   -0.099853
      3          6           0        2.332286   -1.347398   -0.156557
      4          6           0        0.952140   -1.782763    0.027571
      5          8           0        0.629752   -2.970150    0.057681
      6          6           0       -0.016016   -0.668008    0.171712
      7          6           0        0.438493    0.612564    0.289537
      8          8           0        1.757155    0.924057    0.143492
      9          6           0       -0.365458    1.820957    0.566159
     10          6           0       -1.280592    1.800534    1.543425
     11          6           0       -0.087795    3.030982   -0.287884
     12          6           0       -1.448309   -0.984724    0.168721
     13          6           0       -2.026891   -2.046042    0.735615
     14          7           0       -2.324822   -0.122933   -0.673834
     15          8           0       -1.801245    0.476432   -1.611518
     16          8           0       -3.520269   -0.079012   -0.397101
     17          1           0        4.069411    1.232043   -1.104839
     18          1           0        4.776924   -0.266146   -0.453817
     19          1           0        4.348616    1.077058    0.633643
     20          1           0        3.081820   -2.109291   -0.334778
     21          1           0       -1.889628    2.674145    1.755044
     22          1           0       -1.453844    0.919939    2.152738
     23          1           0        0.961518    3.335066   -0.213464
     24          1           0       -0.294485    2.802621   -1.339589
     25          1           0       -0.718341    3.870002    0.016859
     26          1           0       -3.088387   -2.222606    0.612794
     27          1           0       -1.430352   -2.751219    1.297285
 ---------------------------------------------------------------------

 SCF Done:  E(UB3LYP) =  -781.597390360     A.U. after   30 cycles

 The electronic state is 2-A.
 Alpha  occ. eigenvalues --  -19.08222 -18.96211 -18.96094 -18.95785 -14.33671
 Alpha  occ. eigenvalues --  -10.15253 -10.12443 -10.11818 -10.09895 -10.06937
 Alpha  occ. eigenvalues --  -10.06585 -10.05875 -10.05566 -10.05462 -10.04208
 Alpha  occ. eigenvalues --  -10.00457  -1.03726  -1.00494  -0.89539  -0.86614
 Alpha  occ. eigenvalues --   -0.73121  -0.70276  -0.67515  -0.64838  -0.60868
 Alpha  occ. eigenvalues --   -0.57655  -0.54978  -0.52411  -0.49188  -0.44315
 Alpha  occ. eigenvalues --   -0.42400  -0.40646  -0.38266  -0.37487  -0.36503
 Alpha  occ. eigenvalues --   -0.35575  -0.34666  -0.33372  -0.33129  -0.32731
 Alpha  occ. eigenvalues --   -0.31133  -0.30490  -0.30173  -0.29191  -0.28310
 Alpha  occ. eigenvalues --   -0.26931  -0.26714  -0.26197  -0.24592  -0.23207
 Alpha  occ. eigenvalues --   -0.18518  -0.15338  -0.14570  -0.14054  -0.13271
 Alpha  occ. eigenvalues --   -0.11858  -0.10815  -0.10372   0.03147
 Alpha virt. eigenvalues --    0.06392   0.06716   0.07973   0.08782   0.09722
 Alpha virt. eigenvalues --    0.10306   0.11028   0.11402   0.12273   0.12608
 Alpha virt. eigenvalues --    0.13564   0.13716   0.14448   0.14725   0.15127

  Beta  occ. eigenvalues --  -19.08171 -18.96080 -18.96041 -18.95346 -14.33170
  Beta  occ. eigenvalues --  -10.15274 -10.12422 -10.11554 -10.09894 -10.06987
  Beta  occ. eigenvalues --  -10.06551 -10.05928 -10.05560 -10.05443 -10.04064
  Beta  occ. eigenvalues --  -10.00005  -1.02982  -1.00356  -0.89509  -0.86031
  Beta  occ. eigenvalues --   -0.72951  -0.70139  -0.67373  -0.64604  -0.60633
  Beta  occ. eigenvalues --   -0.57502  -0.54762  -0.51342  -0.48990  -0.44203
  Beta  occ. eigenvalues --   -0.42081  -0.40483  -0.37857  -0.37294  -0.36298
  Beta  occ. eigenvalues --   -0.35021  -0.33297  -0.33112  -0.32819  -0.32417
  Beta  occ. eigenvalues --   -0.30974  -0.30434  -0.30087  -0.29158  -0.28119
  Beta  occ. eigenvalues --   -0.26716  -0.26547  -0.26129  -0.24389  -0.23043
  Beta  occ. eigenvalues --   -0.17938  -0.14693  -0.14175  -0.13054  -0.12095
  Beta  occ. eigenvalues --   -0.11627  -0.10427  -0.08948
  Beta virt. eigenvalues --    0.06380   0.07416   0.08247   0.08773   0.09662
  Beta virt. eigenvalues --    0.10210   0.10402   0.11000   0.11561   0.12276
  Beta virt. eigenvalues --    0.12864   0.13579   0.13729   0.14638   0.14720

 Mulliken charges and spin densities:
               1          2
     1  C   -0.626868   0.001453
     2  C   -0.116034  -0.018637
     3  C    0.859311   0.034789
     4  C   -1.595215  -0.012513
     5  O   -0.309349   0.003241
     6  C    1.417937  -0.038436
     7  C   -0.893168   0.138334
     8  O    0.050230   0.004371
     9  C    0.845733   0.002554
    10  C   -1.032788   0.095744
    11  C   -0.505403   0.033929
    12  C    0.181131  -0.000643
    13  C   -0.445870   0.370525
    14  N   -0.230763   0.170477
    15  O   -0.120339   0.159906
    16  O   -0.132269   0.078333
    17  H    0.154963  -0.000674
    18  H    0.160024   0.000029
    19  H    0.156347  -0.001580
    20  H    0.163556  -0.001292
    21  H    0.093752  -0.008713
    22  H    0.166896   0.019511
    23  H    0.144329  -0.001415
    24  H    0.186005   0.001692
    25  H    0.131273  -0.001013
    26  H    0.159832  -0.024396
    27  H    0.136748  -0.005574
 Sum of Mulliken charges =  -1.00000   1.00000

 Dipole moment (field-independent basis, Debye):
    X=              9.1162    Y=              4.0234    Z=              1.6178  Tot=             10.0950
 Quadrupole moment (field-independent basis, Debye-Ang):
   XX=           -121.3960   YY=           -118.9455   ZZ=           -106.3427
   XY=              1.8429   XZ=             -6.9773   YZ=              0.7991

 Summary of Natural Population Analysis:

                                       Natural Population
                Natural  -----------------------------------------------
    Atom  No    Charge         Core      Valence    Rydberg      Total
 -----------------------------------------------------------------------
      C    1   -0.30356      0.99963     2.29933    0.00460     3.30356
      C    2    0.17775      0.99943     1.81189    0.01093     2.82225
      C    3   -0.16303      0.99945     2.15516    0.00842     3.16303
      C    4    0.24116      0.99956     1.73926    0.02002     2.75884
      O    5   -0.31332      0.99988     3.30661    0.00683     4.31332
      C    6   -0.09316      0.99939     2.08131    0.01246     3.09316
      C    7    0.23546      0.99932     1.75103    0.01419     2.76454
      O    8   -0.24879      0.99983     3.23937    0.00959     4.24879
      C    9   -0.04392      0.99951     2.03484    0.00957     3.04392
      C   10   -0.13591      0.99952     2.13032    0.00607     3.13591
      C   11   -0.29393      0.99962     2.28936    0.00495     3.29393
      C   12    0.00520      0.99939     1.97966    0.01574     2.99480
      C   13   -0.05810      0.99953     2.05177    0.00681     3.05810
      N   14    0.29502      0.99972     2.17689    0.02837     3.20498
      O   15   -0.18737      0.99990     3.17955    0.00793     4.18737
      O   16   -0.22010      0.99989     3.21232    0.00788     4.22010
      H   17    0.10605      0.00000     0.39282    0.00113     0.39395
      H   18    0.10370      0.00000     0.39561    0.00069     0.39630
      H   19    0.10515      0.00000     0.39369    0.00117     0.39485
      H   20    0.10404      0.00000     0.39431    0.00166     0.39596
      H   21    0.08649      0.00000     0.41244    0.00106     0.41351
      H   22    0.10057      0.00000     0.39859    0.00083     0.39943
      H   23    0.09828      0.00000     0.40057    0.00115     0.40172
      H   24    0.11230      0.00000     0.38667    0.00103     0.38770
      H   25    0.09679      0.00000     0.40231    0.00090     0.40321
      H   26    0.09777      0.00000     0.40130    0.00093     0.40223
      H   27    0.09547      0.00000     0.40356    0.00096     0.40453
 =======================================================================
   * Total *    0.00000     15.99358    41.82055    0.18587    58.00000

 Normal termination of Gaussian 16 at Thu Dec 10 23:54:44 2020.
