 Gaussian 16, Revision A.03,

 -----------------------------------------------------------
 # opt freq B3LYP/6-31G(d) empiricaldispersion=gd3bj scf=xqc
 -----------------------------------------------------------

 ------------------------------
 CID_43462621_JID_9001_neutraal
 ------------------------------
 Symbolic Z-matrix:
 Charge =  0 Multiplicity = 1

 SCF Done:  E(RB3LYP) =  -880.944721832     A.U. after   15 cycles
 SCF Done:  E(RB3LYP) =  -880.948731660     A.U. after   13 cycles
 SCF Done:  E(RB3LYP) =  -880.948430490     A.U. after   13 cycles
 SCF Done:  E(RB3LYP) =  -880.950537824     A.U. after   13 cycles
 SCF Done:  E(RB3LYP) =  -880.950888804     A.U. after   12 cycles
 SCF Done:  E(RB3LYP) =  -880.951100495     A.U. after   12 cycles
 SCF Done:  E(RB3LYP) =  -880.951194750     A.U. after   11 cycles
 SCF Done:  E(RB3LYP) =  -880.951269451     A.U. after   11 cycles
 SCF Done:  E(RB3LYP) =  -880.951318461     A.U. after   11 cycles
 SCF Done:  E(RB3LYP) =  -880.951338189     A.U. after   10 cycles
 SCF Done:  E(RB3LYP) =  -880.951352909     A.U. after    9 cycles
 SCF Done:  E(RB3LYP) =  -880.951360774     A.U. after    9 cycles
 SCF Done:  E(RB3LYP) =  -880.951363730     A.U. after    9 cycles
 SCF Done:  E(RB3LYP) =  -880.951364181     A.U. after    8 cycles
 SCF Done:  E(RB3LYP) =  -880.951364237     A.U. after    7 cycles
 Optimization completed.
    -- Stationary point found.
 Normal termination of Gaussian 16 at Mon Dec 14 13:21:25 2020.

 --------------------------------------------------------------------
 #N Geom=AllCheck Guess=TCheck SCRF=Check GenChk RB3LYP/6-31G(d) Freq
 --------------------------------------------------------------------

 Structure from the checkpoint file:  "JID_9001.chk"
 ------------------------------
 CID_43462621_JID_9001_neutraal
 ------------------------------
 Charge =  0 Multiplicity = 1

 SCF Done:  E(RB3LYP) =  -880.951364237     A.U. after    1 cycles

  Exact polarizability: 232.767  -3.800 166.426  13.427   1.083 100.320
 Approx polarizability: 314.293 -10.066 292.385  28.297   5.555 163.299

                      1                      2                      3
                      A                      A                      A
 Frequencies --     34.7946                45.5177                50.2110
 Red. masses --      5.2357                 3.6820                 5.4130
 Frc consts  --      0.0037                 0.0045                 0.0080
 IR Inten    --      0.8826                 0.1361                 0.4052

                      4                      5                      6
                      A                      A                      A
 Frequencies --     83.7279               117.4062               138.8480
 Red. masses --      3.7071                 3.9585                 1.6261
 Frc consts  --      0.0153                 0.0321                 0.0185
 IR Inten    --      0.2365                 3.9204                 1.2845

                      7                      8                      9
                      A                      A                      A
 Frequencies --    151.3485               179.5198               213.2446
 Red. masses --      2.3999                 5.5846                 2.4030
 Frc consts  --      0.0324                 0.1060                 0.0644
 IR Inten    --      0.3639                 2.7110                 1.1945

                     10                     11                     12
                      A                      A                      A
 Frequencies --    235.2064               253.6649               277.9858
 Red. masses --      3.8556                 3.1314                 4.7461
 Frc consts  --      0.1257                 0.1187                 0.2161
 IR Inten    --      0.5575                 1.0578                 1.3980

                     13                     14                     15
                      A                      A                      A
 Frequencies --    295.6147               323.3041               342.9089
 Red. masses --      4.3812                 5.9714                 3.5727
 Frc consts  --      0.2256                 0.3677                 0.2475
 IR Inten    --      6.8702                10.4079                 5.0773

                     16                     17                     18
                      A                      A                      A
 Frequencies --    353.0911               373.0131               438.8948
 Red. masses --      4.5979                 4.2628                 5.3125
 Frc consts  --      0.3377                 0.3495                 0.6029
 IR Inten    --      4.9631                 3.4167                 3.3167

                     19                     20                     21
                      A                      A                      A
 Frequencies --    474.2125               496.1931               546.2174
 Red. masses --      5.0316                 3.6454                 5.4485
 Frc consts  --      0.6667                 0.5288                 0.9578
 IR Inten    --      3.4869                 1.3780                 3.4558

                     22                     23                     24
                      A                      A                      A
 Frequencies --    563.6086               594.6849               622.7573
 Red. masses --      4.9121                 4.0357                 4.2274
 Frc consts  --      0.9193                 0.8409                 0.9660
 IR Inten    --      3.6383                 0.9729                 6.6978

                     25                     26                     27
                      A                      A                      A
 Frequencies --    640.0585               658.6865               685.2458
 Red. masses --      3.3729                 4.2324                 4.5338
 Frc consts  --      0.8141                 1.0819                 1.2543
 IR Inten    --      2.2700                 2.6576                15.5193

                     28                     29                     30
                      A                      A                      A
 Frequencies --    689.7878               728.1011               744.6419
 Red. masses --      4.3269                 4.2478                 1.4315
 Frc consts  --      1.2130                 1.3268                 0.4677
 IR Inten    --     16.6868                15.4510                35.6856

                     31                     32                     33
                      A                      A                      A
 Frequencies --    762.2479               786.4558               806.1595
 Red. masses --      4.7318                 2.7177                 1.8637
 Frc consts  --      1.6198                 0.9904                 0.7136
 IR Inten    --     13.4265                25.2919                 1.9041

                     34                     35                     36
                      A                      A                      A
 Frequencies --    853.5838               858.8660               866.5748
 Red. masses --      1.8795                 2.6989                 1.5353
 Frc consts  --      0.8068                 1.1730                 0.6793
 IR Inten    --     14.0567                25.2840                 5.1243

                     37                     38                     39
                      A                      A                      A
 Frequencies --    883.8595               915.1508               926.2678
 Red. masses --      3.3485                 5.2317                 1.4222
 Frc consts  --      1.5412                 2.5815                 0.7189
 IR Inten    --     11.6288                 7.3674                14.9841

                     40                     41                     42
                      A                      A                      A
 Frequencies --    955.1537               965.9809               981.3726
 Red. masses --      2.9643                 1.3034                 1.7736
 Frc consts  --      1.5934                 0.7166                 1.0064
 IR Inten    --     69.9518                 4.3548                 7.4667

                     43                     44                     45
                      A                      A                      A
 Frequencies --    999.8675              1022.2210              1074.5780
 Red. masses --      2.6517                 2.0569                 1.9401
 Frc consts  --      1.5619                 1.2663                 1.3199
 IR Inten    --     44.2463                35.6153                 4.3936

                     46                     47                     48
                      A                      A                      A
 Frequencies --   1078.4488              1093.6237              1096.8397
 Red. masses --      1.5028                 3.0629                 2.6193
 Frc consts  --      1.0298                 2.1584                 1.8566
 IR Inten    --      3.2979                11.6536                75.9212

                     49                     50                     51
                      A                      A                      A
 Frequencies --   1132.4466              1143.9469              1149.8988
 Red. masses --      2.1365                 2.3782                 1.9485
 Frc consts  --      1.6143                 1.8336                 1.5180
 IR Inten    --     66.9973                14.8288                19.5707

                     52                     53                     54
                      A                      A                      A
 Frequencies --   1165.8071              1188.4444              1227.7194
 Red. masses --      2.5693                 1.7564                 2.1261
 Frc consts  --      2.0574                 1.4616                 1.8881
 IR Inten    --     30.9246                25.2113                10.6000

                     55                     56                     57
                      A                      A                      A
 Frequencies --   1263.1057              1273.5606              1289.5819
 Red. masses --      4.2618                 1.2655                 1.5948
 Frc consts  --      4.0061                 1.2094                 1.5626
 IR Inten    --     58.3275                 5.9689                20.9979

                     58                     59                     60
                      A                      A                      A
 Frequencies --   1300.7489              1307.7371              1327.8278
 Red. masses --      2.1475                 1.4598                 1.4095
 Frc consts  --      2.1407                 1.4709                 1.4642
 IR Inten    --    243.1046                30.9891                 7.0124

                     61                     62                     63
                      A                      A                      A
 Frequencies --   1349.3410              1367.4875              1399.6397
 Red. masses --      3.0268                 5.1725                 1.4556
 Frc consts  --      3.2470                 5.6990                 1.6800
 IR Inten    --    286.7763               138.8550                 1.0090

                     64                     65                     66
                      A                      A                      A
 Frequencies --   1404.5261              1437.7960              1443.7507
 Red. masses --      1.3447                 1.5729                 1.3245
 Frc consts  --      1.5629                 1.9158                 1.6266
 IR Inten    --      1.7389                80.7614                21.8074

                     67                     68                     69
                      A                      A                      A
 Frequencies --   1455.5505              1461.0290              1504.7421
 Red. masses --      2.6742                 3.4885                 1.0509
 Frc consts  --      3.3381                 4.3873                 1.4019
 IR Inten    --     74.3529                16.6757                 7.9217

                     70                     71                     72
                      A                      A                      A
 Frequencies --   1508.0245              1511.9043              1530.4064
 Red. masses --      1.0938                 1.1359                 1.2457
 Frc consts  --      1.4656                 1.5298                 1.7191
 IR Inten    --      2.8481                19.1792                17.1120

                     73                     74                     75
                      A                      A                      A
 Frequencies --   1534.4767              1552.0602              1573.7024
 Red. masses --      1.1082                 2.3924                 4.4868
 Frc consts  --      1.5374                 3.3955                 6.5468
 IR Inten    --      4.6316                84.0869                30.3317

                     76                     77                     78
                      A                      A                      A
 Frequencies --   1618.5056              1635.4066              1663.6984
 Red. masses --      7.6969                 6.6467                 6.3428
 Frc consts  --     11.8794                10.4739                10.3438
 IR Inten    --    105.2787                50.8104                37.7439

                     79                     80                     81
                      A                      A                      A
 Frequencies --   1730.6417              3050.6633              3055.7338
 Red. masses --     12.7348                 1.0435                 1.0591
 Frc consts  --     22.4728                 5.7216                 5.8266
 IR Inten    --    201.6555                17.1405                18.3093

                     82                     83                     84
                      A                      A                      A
 Frequencies --   3060.3627              3069.5046              3098.7056
 Red. masses --      1.0656                 1.0644                 1.0991
 Frc consts  --      5.8804                 5.9085                 6.2179
 IR Inten    --     39.9713                31.2808                33.4105

                     85                     86                     87
                      A                      A                      A
 Frequencies --   3106.7062              3125.2482              3131.5946
 Red. masses --      1.0974                 1.1056                 1.1071
 Frc consts  --      6.2403                 6.3626                 6.3967
 IR Inten    --     14.1870                35.3184                34.4139

                     88                     89                     90
                      A                      A                      A
 Frequencies --   3173.3726              3212.1393              3229.1825
 Red. masses --      1.0979                 1.0888                 1.0899
 Frc consts  --      6.5141                 6.6192                 6.6963
 IR Inten    --      5.8187                 4.5954                 1.4804

                     91                     92                     93
                      A                      A                      A
 Frequencies --   3232.0490              3285.3799              3309.3718
 Red. masses --      1.0936                 1.0901                 1.1071
 Frc consts  --      6.7308                 6.9323                 7.1439
 IR Inten    --      3.3371                 0.3948                 2.3908

 - Thermochemistry -
 -------------------
 Temperature   298.150 Kelvin.  Pressure   1.00000 Atm.
 Atom     1 has atomic number  6 and mass  12.00000

 Molecular mass:   258.08921 amu.
 Principal axes and moments of inertia in atomic units:
                           1         2         3
     Eigenvalues --  2190.026738476.357409976.66381
           X            0.99999  -0.00471  -0.00187
           Y            0.00469   0.99995  -0.00913
           Z            0.00191   0.00912   0.99996
 This molecule is an asymmetric top.
 Rotational symmetry number  1.
 Warning -- assumption of classical behavior for rotation
           may cause significant error
 Rotational temperatures (Kelvin)      0.03955     0.01022     0.00868
 Rotational constants (GHZ):           0.82407     0.21291     0.18090
 Zero-point vibrational energy     693076.1 (Joules/Mol)
                                  165.64917 (Kcal/Mol)
 Warning -- explicit consideration of  23 degrees of freedom as
           vibrations may cause significant error
 Vibrational temperatures:     50.06    65.49    72.24   120.47   168.92
          (Kelvin)            199.77   217.76   258.29   306.81   338.41
                              364.97   399.96   425.32   465.16   493.37
                              508.02   536.68   631.47   682.29   713.91
                              785.89   810.91   855.62   896.01   920.90
                              947.70   985.92   992.45  1047.58  1071.37
                             1096.70  1131.53  1159.88  1228.12  1235.72
                             1246.81  1271.68  1316.70  1332.69  1374.25
                             1389.83  1411.98  1438.59  1470.75  1546.08
                             1551.65  1573.48  1578.11  1629.34  1645.88
                             1654.45  1677.34  1709.91  1766.41  1817.33
                             1832.37  1855.42  1871.49  1881.54  1910.45
                             1941.40  1967.51  2013.77  2020.80  2068.67
                             2077.24  2094.21  2102.09  2164.99  2169.71
                             2175.29  2201.91  2207.77  2233.07  2264.21
                             2328.67  2352.99  2393.69  2490.01  4389.22
                             4396.52  4403.18  4416.33  4458.35  4469.86
                             4496.54  4505.67  4565.78  4621.55  4646.07
                             4650.20  4726.93  4761.45

 Zero-point correction=                           0.263979 (Hartree/Particle)
 Thermal correction to Energy=                    0.279890
 Thermal correction to Enthalpy=                  0.280835
 Thermal correction to Gibbs Free Energy=         0.219743
 Sum of electronic and zero-point Energies=           -880.687385
 Sum of electronic and thermal Energies=              -880.671474
 Sum of electronic and thermal Enthalpies=            -880.670530
 Sum of electronic and thermal Free Energies=         -880.731621

                     E (Thermal)             CV                S
                      KCal/Mol        Cal/Mol-Kelvin    Cal/Mol-Kelvin
 Total                  175.634             61.920            128.577
 Electronic               0.000              0.000              0.000
 Translational            0.889              2.981             42.544
 Rotational               0.889              2.981             33.582
 Vibrational            173.856             55.959             52.452
 Vibration     1          0.594              1.983              5.535
 Vibration     2          0.595              1.979              5.003
 Vibration     3          0.595              1.978              4.809
 Vibration     4          0.601              1.960              3.802
 Vibration     5          0.608              1.935              3.143
 Vibration     6          0.614              1.914              2.820
 Vibration     7          0.619              1.901              2.655
 Vibration     8          0.629              1.867              2.333
 Vibration     9          0.644              1.821              2.016
 Vibration    10          0.655              1.787              1.839
 Vibration    11          0.665              1.757              1.705
 Vibration    12          0.679              1.714              1.546
 Vibration    13          0.690              1.682              1.442
 Vibration    14          0.708              1.629              1.293
 Vibration    15          0.722              1.590              1.199
 Vibration    16          0.729              1.569              1.152
 Vibration    17          0.744              1.528              1.067
 Vibration    18          0.799              1.385              0.830
 Vibration    19          0.831              1.307              0.726
 Vibration    20          0.852              1.258              0.668
 Vibration    21          0.901              1.148              0.552
 Vibration    22          0.919              1.110              0.517
 Vibration    23          0.952              1.043              0.459

                           ! Non-Optimized Parameters !
 Normal termination of Gaussian 16 at Mon Dec 14 13:37:03 2020.

 ----------------------------------------------------------------------
 # B3LYP/6-311++G(d,p) empiricaldispersion=gd3bj scf=xqc pop=npa geom=c
 heck
 ----------------------------------------------------------------------

 --------------------------------------
 CID_43462621_JID_9001_Energie_neutraal
 --------------------------------------
 Structure from the checkpoint file:  "JID_9001.chk"
 Charge =  0 Multiplicity = 1

 SCF Done:  E(RB3LYP) =  -881.189099774     A.U. after   17 cycles
 Normal termination of Gaussian 16 at Mon Dec 14 13:44:19 2020.

 ----------------------------------------------------------------------
 # B3LYP/6-311++G(d,p) empiricaldispersion=gd3bj scf=xqc pop=npa geom=c
 heck
 ----------------------------------------------------------------------

 ------------------------------------
 CID_43462621_JID_9001_Energie_kation
 ------------------------------------
 Structure from the checkpoint file:  "JID_9001.chk"
 Charge =  1 Multiplicity = 2

 SCF Done:  E(UB3LYP) =  -880.899038375     A.U. after   26 cycles
 Normal termination of Gaussian 16 at Mon Dec 14 14:00:13 2020.
 Gaussian 16:  ES64L-G16RevA.03 25-Dec-2016

 ----------------------------------------------------------------------
 # B3LYP/6-311++G(d,p) empiricaldispersion=gd3bj scf=xqc pop=npa geom=c
 heck
 ----------------------------------------------------------------------

 -----------------------------------
 CID_43462621_JID_9001_Energie_anion
 -----------------------------------
 Structure from the checkpoint file:  "JID_9001.chk"
 Charge = -1 Multiplicity = 2

                         Standard orientation:
 ---------------------------------------------------------------------
 Center     Atomic      Atomic             Coordinates (Angstroms)
 Number     Number       Type             X           Y           Z
 ---------------------------------------------------------------------
      1          6           0       -1.892428   -1.624077    1.471551
      2          6           0       -2.825205   -1.003242    0.490138
      3          6           0       -2.879023    0.196807   -0.184340
      4          6           0       -4.137024    0.208012   -0.890263
      5          6           0       -4.734469   -0.976576   -0.625382
      6          8           0       -3.953160   -1.722346    0.222708
      7          6           0       -1.961968    1.357872   -0.152996
      8          8           0       -2.415597    2.491825   -0.283829
      9          6           0       -0.494630    1.148066    0.016253
     10          6           0        0.141441   -0.028919   -0.392213
     11          6           0        1.519870   -0.185944   -0.269323
     12          6           0        2.291173    0.870551    0.259141
     13          6           0        1.650793    2.042100    0.680050
     14          6           0        0.277448    2.188061    0.554411
     15          8           0        3.652473    0.824753    0.406250
     16          6           0        4.381844    0.127136   -0.615390
     17          6           0        4.472779   -1.369296   -0.325503
     18          6           0        3.112137   -1.912457    0.110699
     19          8           0        2.050685   -1.382690   -0.694976
     20          1           0       -2.457995   -2.029072    2.317585
     21          1           0       -1.324049   -2.449929    1.025543
     22          1           0       -1.179022   -0.887303    1.841944
     23          1           0       -4.501444    1.015257   -1.507738
     24          1           0       -5.661476   -1.437857   -0.927946
     25          1           0       -0.423083   -0.848292   -0.821928
     26          1           0        2.270621    2.835828    1.084487
     27          1           0       -0.217472    3.105536    0.852530
     28          1           0        5.372631    0.588220   -0.633044
     29          1           0        3.901784    0.304715   -1.583790
     30          1           0        4.821637   -1.878701   -1.231899
     31          1           0        5.203814   -1.567744    0.467425
     32          1           0        3.062425   -2.998147   -0.008399
     33          1           0        2.920004   -1.673412    1.163016
 ---------------------------------------------------------------------

 SCF Done:  E(UB3LYP) =  -881.198948840     A.U. after   31 cycles

 The electronic state is 2-A.
 Alpha  occ. eigenvalues --  -19.06645 -19.03667 -19.03549 -18.92537 -10.12865
 Alpha  occ. eigenvalues --  -10.12649 -10.10495 -10.10475 -10.10139 -10.09809
 Alpha  occ. eigenvalues --  -10.08219 -10.07637 -10.06317 -10.05202 -10.04585
 Alpha  occ. eigenvalues --  -10.04251 -10.03876 -10.03424 -10.03291  -0.99204
 Alpha  occ. eigenvalues --   -0.96386  -0.93943  -0.86651  -0.73170  -0.68969
 Alpha  occ. eigenvalues --   -0.68151  -0.66637  -0.63855  -0.61111  -0.58902
 Alpha  occ. eigenvalues --   -0.57667  -0.51741  -0.50244  -0.49353  -0.47323
 Alpha  occ. eigenvalues --   -0.45301  -0.42478  -0.41053  -0.40550  -0.39802
 Alpha  occ. eigenvalues --   -0.37858  -0.35922  -0.35076  -0.33827  -0.33475
 Alpha  occ. eigenvalues --   -0.32173  -0.31488  -0.30672  -0.30604  -0.29978
 Alpha  occ. eigenvalues --   -0.29342  -0.29185  -0.27647  -0.27208  -0.26168
 Alpha  occ. eigenvalues --   -0.26035  -0.25213  -0.24441  -0.22919  -0.22630
 Alpha  occ. eigenvalues --   -0.22119  -0.18802  -0.18687  -0.15689  -0.12102
 Alpha  occ. eigenvalues --   -0.11061  -0.10309  -0.09094   0.03920
 Alpha virt. eigenvalues --    0.06013   0.07704   0.08231   0.08509   0.09067
 Alpha virt. eigenvalues --    0.10003   0.10599   0.11038   0.11147   0.11500
 Alpha virt. eigenvalues --    0.11927   0.12158   0.12792   0.13183   0.13788

  Beta  occ. eigenvalues --  -19.06596 -19.03676 -19.03529 -18.91992 -10.12861
  Beta  occ. eigenvalues --  -10.12625 -10.10552 -10.10510 -10.09923 -10.09548
  Beta  occ. eigenvalues --  -10.08200 -10.07310 -10.06332 -10.05168 -10.04654
  Beta  occ. eigenvalues --  -10.04307 -10.03746 -10.03300 -10.03244  -0.99090
  Beta  occ. eigenvalues --   -0.96334  -0.93895  -0.85667  -0.72985  -0.68853
  Beta  occ. eigenvalues --   -0.68049  -0.66482  -0.63690  -0.60828  -0.58747
  Beta  occ. eigenvalues --   -0.57634  -0.51303  -0.50085  -0.49230  -0.47196
  Beta  occ. eigenvalues --   -0.45034  -0.42346  -0.40988  -0.40425  -0.39751
  Beta  occ. eigenvalues --   -0.37695  -0.35735  -0.34737  -0.33673  -0.33348
  Beta  occ. eigenvalues --   -0.32084  -0.31402  -0.30585  -0.30507  -0.29863
  Beta  occ. eigenvalues --   -0.29268  -0.29071  -0.27535  -0.26697  -0.26025
  Beta  occ. eigenvalues --   -0.25638  -0.24895  -0.23852  -0.22760  -0.22505
  Beta  occ. eigenvalues --   -0.21001  -0.18719  -0.18141  -0.15140  -0.11518
  Beta  occ. eigenvalues --   -0.10353  -0.09659  -0.08304
  Beta virt. eigenvalues --    0.06212   0.07821   0.08234   0.08638   0.09050
  Beta virt. eigenvalues --    0.09717   0.10010   0.10695   0.11104   0.11366
  Beta virt. eigenvalues --    0.11546   0.12082   0.12249   0.12770   0.13138

 Mulliken charges and spin densities:
               1          2
     1  C   -0.723668  -0.032733
     2  C   -0.683553   0.133758
     3  C    1.017813  -0.002814
     4  C    0.286828   0.013634
     5  C   -0.219645  -0.022121
     6  O   -0.017310   0.008680
     7  C   -1.443567   0.175778
     8  O   -0.357055   0.197209
     9  C    1.240830  -0.037181
    10  C   -0.800194   0.034466
    11  C    0.163019  -0.153576
    12  C   -0.299505   0.221706
    13  C   -0.150263  -0.003321
    14  C    0.031451   0.156068
    15  O   -0.136285   0.014847
    16  C   -0.359964   0.097140
    17  C    0.562103  -0.884662
    18  C   -0.408948   0.205436
    19  O   -0.128738   0.016092
    20  H    0.148019   0.001698
    21  H    0.132186   0.038528
    22  H    0.169737   0.000864
    23  H    0.168725  -0.001812
    24  H    0.144577   0.001967
    25  H    0.210780  -0.004717
    26  H    0.143886   0.012780
    27  H    0.177664  -0.006663
    28  H   -0.138813   0.314140
    29  H    0.171069   0.006908
    30  H   -0.056182   0.194113
    31  H   -0.036598   0.170860
    32  H    0.054066   0.109334
    33  H    0.137534   0.023595
 Sum of Mulliken charges =  -1.00000   1.00000

 Dipole moment (field-independent basis, Debye):
    X=              1.8871    Y=             -4.5040    Z=              0.6180  Tot=              4.9223
 Quadrupole moment (field-independent basis, Debye-Ang):
   XX=           -167.3488   YY=           -140.1479   ZZ=           -121.4292
   XY=              9.1807   XZ=              0.8069   YZ=             -0.6809

 Summary of Natural Population Analysis:

                                       Natural Population
                Natural  -----------------------------------------------
    Atom  No    Charge         Core      Valence    Rydberg      Total
 -----------------------------------------------------------------------
      C    1   -0.31026      0.99963     2.30601    0.00462     3.31026
      C    2    0.20120      0.99946     1.78711    0.01222     2.79880
      C    3   -0.10680      0.99944     2.09703    0.01032     3.10680
      C    4   -0.12296      0.99953     2.11457    0.00885     3.12296
      C    5    0.03026      0.99951     1.95641    0.01382     2.96974
      O    6   -0.24358      0.99986     3.23507    0.00865     4.24358
      C    7    0.29536      0.99957     1.68544    0.01963     2.70464
      O    8   -0.24746      0.99989     3.24184    0.00573     4.24746
      C    9   -0.05904      0.99949     2.04781    0.01174     3.05904
      C   10   -0.08009      0.99950     2.07233    0.00826     3.08009
      C   11    0.10397      0.99933     1.88347    0.01323     2.89603
      C   12    0.16695      0.99933     1.82045    0.01326     2.83305
      C   13   -0.13677      0.99954     2.12899    0.00824     3.13677
      C   14   -0.05820      0.99954     2.05052    0.00815     3.05820
      O   15   -0.28744      0.99986     3.27819    0.00939     4.28744
      C   16   -0.01065      0.99957     1.99712    0.01395     3.01065
      C   17   -0.21607      0.99963     2.20800    0.00844     3.21607
      C   18   -0.01177      0.99957     1.99815    0.01404     3.01177
      O   19   -0.29140      0.99986     3.28219    0.00935     4.29140
      H   20    0.10181      0.00000     0.39712    0.00107     0.39819
      H   21    0.10463      0.00000     0.39368    0.00169     0.39537
      H   22    0.11787      0.00000     0.38148    0.00065     0.38213
      H   23    0.11125      0.00000     0.38777    0.00099     0.38875
      H   24    0.08795      0.00000     0.41106    0.00098     0.41205
      H   25    0.10407      0.00000     0.39390    0.00202     0.39593
      H   26    0.09875      0.00000     0.39991    0.00134     0.40125
      H   27    0.10581      0.00000     0.39309    0.00110     0.39419
      H   28    0.09038      0.00000     0.40831    0.00131     0.40962
      H   29    0.08832      0.00000     0.41040    0.00128     0.41168
      H   30    0.09856      0.00000     0.40030    0.00114     0.40144
      H   31    0.09862      0.00000     0.40021    0.00117     0.40138
      H   32    0.08915      0.00000     0.40970    0.00114     0.41085
      H   33    0.08753      0.00000     0.41110    0.00137     0.41247
 =======================================================================
   * Total *   -0.00000     18.99210    48.78875    0.21916    68.00000

 Normal termination of Gaussian 16 at Mon Dec 14 14:18:42 2020.
