 Gaussian 16, Revision A.03,

 -----------------------------------------------------------
 # opt freq B3LYP/6-31G(d) empiricaldispersion=gd3bj scf=xqc
 -----------------------------------------------------------

 -------------------------------
 CID_136299162_JID_6429_neutraal
 -------------------------------
 Symbolic Z-matrix:
 Charge =  0 Multiplicity = 1

 SCF Done:  E(RB3LYP) =  -1068.35371836     A.U. after   15 cycles
 SCF Done:  E(RB3LYP) =  -1068.35987060     A.U. after   13 cycles
 SCF Done:  E(RB3LYP) =  -1068.34595749     A.U. after   15 cycles
 SCF Done:  E(RB3LYP) =  -1068.35826888     A.U. after   13 cycles
 SCF Done:  E(RB3LYP) =  -1068.36299953     A.U. after   10 cycles
 SCF Done:  E(RB3LYP) =  -1068.36419520     A.U. after   13 cycles
 SCF Done:  E(RB3LYP) =  -1068.36446839     A.U. after   13 cycles
 SCF Done:  E(RB3LYP) =  -1068.36512148     A.U. after   11 cycles
 SCF Done:  E(RB3LYP) =  -1068.36519490     A.U. after   11 cycles
 SCF Done:  E(RB3LYP) =  -1068.36520158     A.U. after   11 cycles
 SCF Done:  E(RB3LYP) =  -1068.36521907     A.U. after   11 cycles
 SCF Done:  E(RB3LYP) =  -1068.36522660     A.U. after   10 cycles
 SCF Done:  E(RB3LYP) =  -1068.36522983     A.U. after   10 cycles
 SCF Done:  E(RB3LYP) =  -1068.36523045     A.U. after    9 cycles
 SCF Done:  E(RB3LYP) =  -1068.36523091     A.U. after    8 cycles
 SCF Done:  E(RB3LYP) =  -1068.36523095     A.U. after    7 cycles
 Optimization completed.
    -- Stationary point found.
 Normal termination of Gaussian 16 at Thu Dec 10 22:49:58 2020.

 --------------------------------------------------------------------
 #N Geom=AllCheck Guess=TCheck SCRF=Check GenChk RB3LYP/6-31G(d) Freq
 --------------------------------------------------------------------

 Structure from the checkpoint file:  "JID_6429.chk"
 -------------------------------
 CID_136299162_JID_6429_neutraal
 -------------------------------
 Charge =  0 Multiplicity = 1

 SCF Done:  E(RB3LYP) =  -1068.36523095     A.U. after    1 cycles

  Exact polarizability: 175.527  17.640 144.508  -9.945  10.405 138.728
 Approx polarizability: 245.515  25.199 211.024 -29.388  27.226 246.631

                      1                      2                      3
                      A                      A                      A
 Frequencies --     27.4377                32.1798                60.1262
 Red. masses --      4.7018                 5.0211                 4.2768
 Frc consts  --      0.0021                 0.0031                 0.0091
 IR Inten    --      0.3656                 0.3810                 0.4001

                      4                      5                      6
                      A                      A                      A
 Frequencies --     82.2469                90.9994               128.6211
 Red. masses --      2.9098                 3.0808                 1.1277
 Frc consts  --      0.0116                 0.0150                 0.0110
 IR Inten    --      0.0879                 0.2744                 0.0334

                      7                      8                      9
                      A                      A                      A
 Frequencies --    136.5363               169.0200               182.5450
 Red. masses --      2.1320                 4.6882                 4.3078
 Frc consts  --      0.0234                 0.0789                 0.0846
 IR Inten    --      0.4218                 0.1016                 3.3418

                     10                     11                     12
                      A                      A                      A
 Frequencies --    191.0269               202.6706               215.8642
 Red. masses --      3.2306                 1.1034                 3.2175
 Frc consts  --      0.0695                 0.0267                 0.0883
 IR Inten    --      3.8500                 0.4303                 5.3030

                     13                     14                     15
                      A                      A                      A
 Frequencies --    221.6870               233.2928               271.9299
 Red. masses --      2.7366                 3.6925                 1.9474
 Frc consts  --      0.0792                 0.1184                 0.0848
 IR Inten    --      1.4666                 1.0474                 0.4501

                     16                     17                     18
                      A                      A                      A
 Frequencies --    302.2517               318.3790               342.2717
 Red. masses --      1.1286                 4.0812                 2.1855
 Frc consts  --      0.0607                 0.2437                 0.1509
 IR Inten    --     36.5765                 2.4945                 2.2632

                     19                     20                     21
                      A                      A                      A
 Frequencies --    381.1944               406.5015               424.9330
 Red. masses --      2.6976                 2.2511                 5.4345
 Frc consts  --      0.2310                 0.2192                 0.5782
 IR Inten    --      6.0980                 2.3886                 3.4423

                     22                     23                     24
                      A                      A                      A
 Frequencies --    435.8679               475.2822               505.7050
 Red. masses --      3.1038                 2.3553                 5.7454
 Frc consts  --      0.3474                 0.3135                 0.8657
 IR Inten    --      0.2686                 6.9230                 0.8765

                     25                     26                     27
                      A                      A                      A
 Frequencies --    545.5159               569.2658               576.7199
 Red. masses --      4.7113                 4.1284                 5.4167
 Frc consts  --      0.8261                 0.7883                 1.0615
 IR Inten    --      9.5241                 1.5652                 3.1381

                     28                     29                     30
                      A                      A                      A
 Frequencies --    597.5629               630.9588               668.9947
 Red. masses --      3.5518                 2.3176                 4.1475
 Frc consts  --      0.7473                 0.5436                 1.0937
 IR Inten    --      8.9401                32.2856                13.7899

                     31                     32                     33
                      A                      A                      A
 Frequencies --    734.5016               755.4799               783.3763
 Red. masses --      1.6823                 4.7452                 1.3658
 Frc consts  --      0.5347                 1.5957                 0.4938
 IR Inten    --     46.9265                17.2112                 1.1776

                     34                     35                     36
                      A                      A                      A
 Frequencies --    836.5525               867.3826               870.2605
 Red. masses --      1.6562                 2.5830                 1.4714
 Frc consts  --      0.6829                 1.1450                 0.6566
 IR Inten    --     32.0628                57.2595                24.8796

                     37                     38                     39
                      A                      A                      A
 Frequencies --    875.3617               898.0774               912.5407
 Red. masses --      1.8949                 4.9626                 1.6257
 Frc consts  --      0.8555                 2.3583                 0.7976
 IR Inten    --     29.7852                13.5605               124.6664

                     40                     41                     42
                      A                      A                      A
 Frequencies --    957.4586               979.9260               985.9727
 Red. masses --      3.5186                 4.1556                 1.4355
 Frc consts  --      1.9005                 2.3511                 0.8222
 IR Inten    --     11.1833                21.3793                16.5850

                     43                     44                     45
                      A                      A                      A
 Frequencies --   1000.8098              1034.0322              1048.5892
 Red. masses --      1.5688                 1.7763                 2.2531
 Frc consts  --      0.9258                 1.1190                 1.4596
 IR Inten    --      9.6831                17.5607                 3.0837

                     46                     47                     48
                      A                      A                      A
 Frequencies --   1055.2360              1077.6844              1086.9040
 Red. masses --      1.6205                 1.5911                 1.5727
 Frc consts  --      1.0631                 1.0888                 1.0947
 IR Inten    --      3.8002                 6.4047                 4.7995

                     49                     50                     51
                      A                      A                      A
 Frequencies --   1106.5085              1151.7354              1178.4360
 Red. masses --      1.6933                 1.7962                 3.1098
 Frc consts  --      1.2215                 1.4038                 2.5445
 IR Inten    --      2.4839                 1.0375                33.6562

                     52                     53                     54
                      A                      A                      A
 Frequencies --   1192.7205              1220.2727              1241.2038
 Red. masses --      1.8166                 2.6797                 1.6968
 Frc consts  --      1.5226                 2.3510                 1.5402
 IR Inten    --      3.3394                 8.7897                 1.8448

                     55                     56                     57
                      A                      A                      A
 Frequencies --   1243.1297              1245.0940              1276.0324
 Red. masses --      1.7541                 1.4441                 1.3987
 Frc consts  --      1.5971                 1.3190                 1.3418
 IR Inten    --      3.1363                 3.5971                 1.6050

                     58                     59                     60
                      A                      A                      A
 Frequencies --   1320.5611              1348.0441              1370.4581
 Red. masses --      1.2868                 1.2824                 1.2161
 Frc consts  --      1.3221                 1.3730                 1.3457
 IR Inten    --      1.9443                36.4179                14.0185

                     61                     62                     63
                      A                      A                      A
 Frequencies --   1392.5365              1403.0428              1406.7776
 Red. masses --      1.3320                 2.4142                 1.3830
 Frc consts  --      1.5218                 2.8000                 1.6126
 IR Inten    --     30.1721                40.8556                 1.4563

                     64                     65                     66
                      A                      A                      A
 Frequencies --   1430.1515              1437.0045              1441.9805
 Red. masses --      1.4692                 1.2720                 1.2604
 Frc consts  --      1.7705                 1.5476                 1.5441
 IR Inten    --      2.0791                 3.8181                 2.5695

                     67                     68                     69
                      A                      A                      A
 Frequencies --   1444.0929              1459.0091              1493.7380
 Red. masses --      1.4511                 2.4054                 1.0994
 Frc consts  --      1.7830                 3.0168                 1.4452
 IR Inten    --     30.8356                28.5677                10.3623

                     70                     71                     72
                      A                      A                      A
 Frequencies --   1500.2135              1508.5259              1518.6066
 Red. masses --      1.0453                 1.1069                 1.0580
 Frc consts  --      1.3861                 1.4841                 1.4375
 IR Inten    --      6.6690                22.5272                 5.4487

                     73                     74                     75
                      A                      A                      A
 Frequencies --   1522.5378              1530.7419              1539.9832
 Red. masses --      1.0506                 1.0473                 1.0765
 Frc consts  --      1.4348                 1.4458                 1.5041
 IR Inten    --      5.7892                 5.1530                 6.4217

                     76                     77                     78
                      A                      A                      A
 Frequencies --   1544.8093              1578.8906              1650.5119
 Red. masses --      1.0455                 5.8732                 7.2249
 Frc consts  --      1.4700                 8.6264                11.5964
 IR Inten    --      2.7340               268.9388               108.8031

                     79                     80                     81
                      A                      A                      A
 Frequencies --   1695.4974              1811.5719              3004.7970
 Red. masses --      1.0906                 9.3171                 1.0824
 Frc consts  --      1.8472                18.0154                 5.7578
 IR Inten    --     25.3584               582.4501                15.0114

                     82                     83                     84
                      A                      A                      A
 Frequencies --   3022.3662              3035.4362              3047.9582
 Red. masses --      1.0744                 1.0727                 1.0529
 Frc consts  --      5.7824                 5.8235                 5.7629
 IR Inten    --      7.9459                13.0462                48.4605

                     85                     86                     87
                      A                      A                      A
 Frequencies --   3055.6160              3057.9083              3077.5817
 Red. masses --      1.0361                 1.0368                 1.0628
 Frc consts  --      5.6995                 5.7121                 5.9310
 IR Inten    --     19.0576                 9.0610                22.6472

                     88                     89                     90
                      A                      A                      A
 Frequencies --   3098.3589              3115.0028              3116.4535
 Red. masses --      1.0904                 1.1002                 1.0945
 Frc consts  --      6.1674                 6.2898                 6.2631
 IR Inten    --     16.6974                12.7236                22.8222

                     91                     92                     93
                      A                      A                      A
 Frequencies --   3119.1086              3130.8257              3135.0870
 Red. masses --      1.1013                 1.1019                 1.1002
 Frc consts  --      6.3129                 6.3637                 6.3711
 IR Inten    --     39.5250                24.0908                45.3659

                     94                     95                     96
                      A                      A                      A
 Frequencies --   3152.4959              3162.4916              3239.3975
 Red. masses --      1.1028                 1.0991                 1.0924
 Frc consts  --      6.4575                 6.4764                 6.7538
 IR Inten    --     15.1721                10.4338                 1.7037

                     97                     98                     99
                      A                      A                      A
 Frequencies --   3456.6470              3544.9176              3591.6334
 Red. masses --      1.0488                 1.0927                 1.0781
 Frc consts  --      7.3834                 8.0901                 8.1939
 IR Inten    --      0.8263                 1.1134                47.0271

 - Thermochemistry -
 -------------------
 Temperature   298.150 Kelvin.  Pressure   1.00000 Atm.
 Atom     1 has atomic number  6 and mass  12.00000

 Molecular mass:   241.12488 amu.
 Principal axes and moments of inertia in atomic units:
                           1         2         3
     Eigenvalues --  2830.135905132.320985942.20549
           X            0.99972   0.00992   0.02128
           Y           -0.01047   0.99962   0.02551
           Z           -0.02102  -0.02572   0.99945
 This molecule is an asymmetric top.
 Rotational symmetry number  1.
 Warning -- assumption of classical behavior for rotation
           may cause significant error
 Rotational temperatures (Kelvin)      0.03060     0.01688     0.01458
 Rotational constants (GHZ):           0.63769     0.35164     0.30372
 Zero-point vibrational energy     786881.0 (Joules/Mol)
                                  188.06908 (Kcal/Mol)
 Warning -- explicit consideration of  28 degrees of freedom as
           vibrations may cause significant error
 Vibrational temperatures:     39.48    46.30    86.51   118.33   130.93
          (Kelvin)            185.06   196.45   243.18   262.64   274.85
                              291.60   310.58   318.96   335.66   391.25
                              434.87   458.08   492.45   548.45   584.87
                              611.38   627.12   683.83   727.60   784.88
                              819.05   829.77   859.76   907.81   962.53
                             1056.78  1086.97  1127.10  1203.61  1247.97
                             1252.11  1259.45  1292.13  1312.94  1377.57
                             1409.89  1418.59  1439.94  1487.74  1508.69
                             1518.25  1550.55  1563.81  1592.02  1657.09
                             1695.51  1716.06  1755.70  1785.82  1788.59
                             1791.41  1835.93  1899.99  1939.53  1971.78
                             2003.55  2018.67  2024.04  2057.67  2067.53
                             2074.69  2077.73  2099.19  2149.16  2158.47
                             2170.43  2184.94  2190.59  2202.40  2215.69
                             2222.64  2271.67  2374.72  2439.44  2606.45
                             4323.23  4348.51  4367.32  4385.33  4396.35
                             4399.65  4427.95  4457.85  4481.79  4483.88
                             4487.70  4504.56  4510.69  4535.74  4550.12
                             4660.77  4973.34  5100.35  5167.56

 Zero-point correction=                           0.299707 (Hartree/Particle)
 Thermal correction to Energy=                    0.317368
 Thermal correction to Enthalpy=                  0.318312
 Thermal correction to Gibbs Free Energy=         0.253744
 Sum of electronic and zero-point Energies=          -1068.065524
 Sum of electronic and thermal Energies=             -1068.047863
 Sum of electronic and thermal Enthalpies=           -1068.046919
 Sum of electronic and thermal Free Energies=        -1068.111487

                     E (Thermal)             CV                S
                      KCal/Mol        Cal/Mol-Kelvin    Cal/Mol-Kelvin
 Total                  199.152             65.926            135.896
 Electronic               0.000              0.000              0.000
 Translational            0.889              2.981             42.342
 Rotational               0.889              2.981             32.823
 Vibrational            197.374             59.965             60.731
 Vibration     1          0.593              1.984              6.007
 Vibration     2          0.594              1.983              5.690
 Vibration     3          0.597              1.973              4.453
 Vibration     4          0.600              1.961              3.837
 Vibration     5          0.602              1.956              3.638
 Vibration     6          0.611              1.925              2.967
 Vibration     7          0.614              1.917              2.852
 Vibration     8          0.625              1.881              2.446
 Vibration     9          0.630              1.864              2.302
 Vibration    10          0.634              1.852              2.218
 Vibration    11          0.639              1.836              2.109
 Vibration    12          0.645              1.817              1.994
 Vibration    13          0.648              1.808              1.945
 Vibration    14          0.654              1.790              1.853
 Vibration    15          0.675              1.725              1.584
 Vibration    16          0.694              1.669              1.404
 Vibration    17          0.705              1.638              1.318
 Vibration    18          0.721              1.591              1.202
 Vibration    19          0.751              1.510              1.034
 Vibration    20          0.771              1.456              0.939
 Vibration    21          0.787              1.416              0.875
 Vibration    22          0.796              1.392              0.840
 Vibration    23          0.832              1.305              0.723
 Vibration    24          0.861              1.237              0.644
 Vibration    25          0.901              1.150              0.554
 Vibration    26          0.925              1.098              0.506
 Vibration    27          0.933              1.082              0.491
 Vibration    28          0.955              1.037              0.454

                           ! Non-Optimized Parameters !
 Normal termination of Gaussian 16 at Thu Dec 10 23:03:38 2020.

 ----------------------------------------------------------------------
 # B3LYP/6-311++G(d,p) empiricaldispersion=gd3bj scf=xqc pop=npa geom=c
 heck
 ----------------------------------------------------------------------

 ---------------------------------------
 CID_136299162_JID_6429_Energie_neutraal
 ---------------------------------------
 Structure from the checkpoint file:  "JID_6429.chk"
 Charge =  0 Multiplicity = 1

 SCF Done:  E(RB3LYP) =  -1068.58909038     A.U. after   15 cycles
 Normal termination of Gaussian 16 at Thu Dec 10 23:09:36 2020.

 ----------------------------------------------------------------------
 # B3LYP/6-311++G(d,p) empiricaldispersion=gd3bj scf=xqc pop=npa geom=c
 heck
 ----------------------------------------------------------------------

 -------------------------------------
 CID_136299162_JID_6429_Energie_kation
 -------------------------------------
 Structure from the checkpoint file:  "JID_6429.chk"
 Charge =  1 Multiplicity = 2

 SCF Done:  E(UB3LYP) =  -1068.27864749     A.U. after   29 cycles
 Normal termination of Gaussian 16 at Thu Dec 10 23:24:49 2020.
 Gaussian 16:  ES64L-G16RevA.03 25-Dec-2016

 ----------------------------------------------------------------------
 # B3LYP/6-311++G(d,p) empiricaldispersion=gd3bj scf=xqc pop=npa geom=c
 heck
 ----------------------------------------------------------------------

 ------------------------------------
 CID_136299162_JID_6429_Energie_anion
 ------------------------------------
 Structure from the checkpoint file:  "JID_6429.chk"
 Charge = -1 Multiplicity = 2

                         Standard orientation:
 ---------------------------------------------------------------------
 Center     Atomic      Atomic             Coordinates (Angstroms)
 Number     Number       Type             X           Y           Z
 ---------------------------------------------------------------------
      1          6           0       -0.159488    2.578028   -1.105996
      2          6           0       -0.947896    1.281870   -1.318136
      3          6           0       -1.939771    0.960202   -0.184094
      4          6           0       -2.975257    2.082422   -0.021142
      5          6           0       -2.654760   -0.394336   -0.397924
      6          6           0       -1.708340   -1.593266   -0.639861
      7         16           0       -0.666259   -2.034467    0.827397
      8          6           0        0.778718   -1.019595    0.532008
      9          7           0        1.077277   -0.059426    1.351525
     10          6           0        2.215060    0.679274    1.069991
     11          6           0        2.990004    0.460695   -0.033168
     12          6           0        2.686198   -0.607664   -0.960120
     13          8           0        3.292266   -0.931793   -1.969802
     14          7           0        1.531296   -1.331004   -0.560494
     15          6           0        2.510608    1.762586    2.065363
     16          7           0       -3.590603   -0.633766    0.702358
     17          1           0       -0.801771    3.462476   -1.155939
     18          1           0        0.619045    2.687628   -1.868458
     19          1           0        0.333065    2.575490   -0.126886
     20          1           0       -1.497477    1.337341   -2.269504
     21          1           0       -0.225320    0.468325   -1.432683
     22          1           0       -1.365726    0.882195    0.750772
     23          1           0       -3.503731    2.258646   -0.967744
     24          1           0       -3.718683    1.815329    0.731529
     25          1           0       -2.497766    3.021139    0.274768
     26          1           0       -3.256732   -0.312434   -1.316810
     27          1           0       -2.307364   -2.492319   -0.818771
     28          1           0       -1.063511   -1.459271   -1.512053
     29          1           0        3.863690    1.064874   -0.245646
     30          1           0        1.292462   -2.132394   -1.133922
     31          1           0        3.409865    2.323274    1.799431
     32          1           0        1.662379    2.453893    2.127279
     33          1           0        2.639647    1.328285    3.063138
     34          1           0       -4.092839   -1.508312    0.556915
     35          1           0       -3.063462   -0.740287    1.569383
 ---------------------------------------------------------------------

 SCF Done:  E(UB3LYP) =  -1068.60052926     A.U. after   29 cycles

 The electronic state is 2-A.
 Alpha  occ. eigenvalues --  -88.72184 -18.94709 -14.21022 -14.18986 -14.15842
 Alpha  occ. eigenvalues --  -10.13092 -10.10814 -10.09653 -10.07982 -10.06469
 Alpha  occ. eigenvalues --  -10.06163 -10.05567 -10.05062 -10.05034 -10.04640
 Alpha  occ. eigenvalues --  -10.01217  -7.80718  -5.77092  -5.76743  -5.76132
 Alpha  occ. eigenvalues --   -0.90194  -0.83980  -0.79125  -0.75258  -0.69555
 Alpha  occ. eigenvalues --   -0.67406  -0.64296  -0.61845  -0.59109  -0.57559
 Alpha  occ. eigenvalues --   -0.53556  -0.50309  -0.47786  -0.47737  -0.44592
 Alpha  occ. eigenvalues --   -0.41268  -0.38899  -0.37848  -0.35735  -0.35572
 Alpha  occ. eigenvalues --   -0.34173  -0.32106  -0.31810  -0.31117  -0.30650
 Alpha  occ. eigenvalues --   -0.29775  -0.28872  -0.28683  -0.28341  -0.27477
 Alpha  occ. eigenvalues --   -0.26589  -0.26170  -0.24980  -0.24367  -0.23318
 Alpha  occ. eigenvalues --   -0.21730  -0.21646  -0.21203  -0.19448  -0.16573
 Alpha  occ. eigenvalues --   -0.14527  -0.13821  -0.12530  -0.11580  -0.09853
 Alpha  occ. eigenvalues --    0.04233
 Alpha virt. eigenvalues --    0.06884   0.07981   0.08829   0.09160   0.10373
 Alpha virt. eigenvalues --    0.10596   0.11091   0.11450   0.11688   0.12169
 Alpha virt. eigenvalues --    0.12904   0.13166   0.13484   0.13743   0.14065

  Beta  occ. eigenvalues --  -88.72192 -18.94699 -14.20735 -14.18979 -14.15910
  Beta  occ. eigenvalues --  -10.13103 -10.10272 -10.09650 -10.07823 -10.06182
  Beta  occ. eigenvalues --  -10.06164 -10.05566 -10.05060 -10.05033 -10.04661
  Beta  occ. eigenvalues --  -10.00981  -7.80724  -5.77101  -5.76768  -5.76131
  Beta  occ. eigenvalues --   -0.90055  -0.83501  -0.79096  -0.74835  -0.69532
  Beta  occ. eigenvalues --   -0.66989  -0.63996  -0.61831  -0.58901  -0.57286
  Beta  occ. eigenvalues --   -0.53376  -0.50079  -0.47619  -0.47375  -0.44504
  Beta  occ. eigenvalues --   -0.40983  -0.38865  -0.37601  -0.35688  -0.35386
  Beta  occ. eigenvalues --   -0.34100  -0.31754  -0.31357  -0.30851  -0.30496
  Beta  occ. eigenvalues --   -0.29580  -0.28701  -0.28314  -0.28180  -0.27427
  Beta  occ. eigenvalues --   -0.26540  -0.26078  -0.24936  -0.24029  -0.22683
  Beta  occ. eigenvalues --   -0.21707  -0.21607  -0.21112  -0.19053  -0.15038
  Beta  occ. eigenvalues --   -0.14474  -0.13744  -0.12398  -0.11359  -0.08698
  Beta virt. eigenvalues --    0.07097   0.08009   0.08766   0.09103   0.09943
  Beta virt. eigenvalues --    0.10525   0.10844   0.11251   0.11528   0.11824
  Beta virt. eigenvalues --    0.12421   0.13017   0.13149   0.13611   0.13824

 Mulliken charges and spin densities:
               1          2
     1  C   -0.660620  -0.048152
     2  C   -0.120958   0.031597
     3  C    0.283500  -0.212749
     4  C   -0.447152  -0.031128
     5  C   -0.775961   0.284954
     6  C    0.270034  -0.510751
     7  S   -0.267262   0.063522
     8  C   -0.425962   0.422887
     9  N    0.116878  -0.045613
    10  C    0.239885   0.099013
    11  C   -0.175030   0.251393
    12  C   -0.159175  -0.012432
    13  O   -0.393959   0.005306
    14  N   -0.184640   0.081445
    15  C   -0.546539   0.014629
    16  N   -0.272677  -0.043555
    17  H    0.117977   0.000204
    18  H    0.134801   0.002617
    19  H    0.156029   0.002921
    20  H    0.132936   0.013625
    21  H    0.157942  -0.005404
    22  H    0.198867   0.004252
    23  H    0.118374  -0.001783
    24  H    0.170333  -0.000613
    25  H    0.126611   0.000237
    26  H    0.108016   0.049757
    27  H   -0.349885   0.612388
    28  H    0.222527  -0.114549
    29  H    0.150321  -0.016961
    30  H    0.282769   0.030187
    31  H    0.122546  -0.000613
    32  H    0.130240   0.008106
    33  H    0.141525   0.011217
    34  H    0.158978   0.060182
    35  H    0.238730  -0.006137
 Sum of Mulliken charges =  -1.00000   1.00000

 Dipole moment (field-independent basis, Debye):
    X=             -4.2902    Y=              2.9817    Z=              0.6274  Tot=              5.2621
 Quadrupole moment (field-independent basis, Debye-Ang):
   XX=           -157.0859   YY=           -129.2999   ZZ=           -128.3414
   XY=              3.1017   XZ=             11.4394   YZ=             -2.0786

 Summary of Natural Population Analysis:

                                       Natural Population
                Natural  -----------------------------------------------
    Atom  No    Charge         Core      Valence    Rydberg      Total
 -----------------------------------------------------------------------
      C    1   -0.28411      0.99967     2.28009    0.00434     3.28411
      C    2   -0.19058      0.99962     2.18427    0.00668     3.19058
      C    3   -0.12484      0.99958     2.11390    0.01136     3.12484
      C    4   -0.28600      0.99966     2.28153    0.00482     3.28600
      C    5   -0.01416      0.99957     2.00099    0.01361     3.01416
      C    6   -0.23555      0.99955     2.22332    0.01268     3.23555
      S    7    0.08167      4.99956     2.90012    0.01865     7.91833
      C    8    0.25071      0.99956     1.72869    0.02104     2.74929
      N    9   -0.29939      0.99962     2.78858    0.01119     3.79939
      C   10    0.15371      0.99952     1.83501    0.01176     2.84629
      C   11   -0.14717      0.99944     2.13777    0.00995     3.14717
      C   12    0.32012      0.99963     1.65886    0.02139     2.67988
      O   13   -0.34294      0.99988     3.33655    0.00652     4.34294
      N   14   -0.27654      0.99962     2.76642    0.01050     3.77654
      C   15   -0.29679      0.99964     2.29208    0.00506     3.29679
      N   16   -0.42921      0.99977     2.91941    0.01004     3.92921
      H   17    0.08816      0.00000     0.41094    0.00089     0.41184
      H   18    0.09960      0.00000     0.39957    0.00082     0.40040
      H   19    0.10409      0.00000     0.39504    0.00087     0.39591
      H   20    0.08674      0.00000     0.41227    0.00099     0.41326
      H   21    0.10569      0.00000     0.39250    0.00181     0.39431
      H   22    0.11056      0.00000     0.38787    0.00157     0.38944
      H   23    0.08992      0.00000     0.40919    0.00088     0.41008
      H   24    0.10884      0.00000     0.39035    0.00082     0.39116
      H   25    0.09499      0.00000     0.40428    0.00073     0.40501
      H   26    0.08617      0.00000     0.41201    0.00182     0.41383
      H   27    0.10054      0.00000     0.39731    0.00214     0.39946
      H   28    0.10238      0.00000     0.39629    0.00133     0.39762
      H   29    0.09711      0.00000     0.40206    0.00083     0.40289
      H   30    0.19567      0.00000     0.30221    0.00212     0.30433
      H   31    0.09420      0.00000     0.40502    0.00078     0.40580
      H   32    0.10208      0.00000     0.39682    0.00111     0.39792
      H   33    0.10334      0.00000     0.39564    0.00103     0.39666
      H   34    0.17187      0.00000     0.32655    0.00158     0.32813
      H   35    0.17912      0.00000     0.31921    0.00167     0.32088
 =======================================================================
   * Total *   -0.00000     19.99388    44.80273    0.20339    65.00000

 Normal termination of Gaussian 16 at Thu Dec 10 23:40:04 2020.
