 Gaussian 16, Revision A.03,

 -----------------------------------------------------------
 # opt freq B3LYP/6-31G(d) empiricaldispersion=gd3bj scf=xqc
 -----------------------------------------------------------

 --------------------------------
 CID_104612582_JID_10827_neutraal
 --------------------------------
 Symbolic Z-matrix:
 Charge =  0 Multiplicity = 1

 SCF Done:  E(RB3LYP) =  -899.021393504     A.U. after   15 cycles
 SCF Done:  E(RB3LYP) =  -899.028467264     A.U. after   13 cycles
 SCF Done:  E(RB3LYP) =  -899.031118507     A.U. after   14 cycles
 SCF Done:  E(RB3LYP) =  -899.032040877     A.U. after   13 cycles
 SCF Done:  E(RB3LYP) =  -899.032425110     A.U. after   13 cycles
 SCF Done:  E(RB3LYP) =  -899.033012106     A.U. after   13 cycles
 SCF Done:  E(RB3LYP) =  -899.033430409     A.U. after   12 cycles
 SCF Done:  E(RB3LYP) =  -899.033897194     A.U. after   15 cycles
 SCF Done:  E(RB3LYP) =  -899.034220592     A.U. after   13 cycles
 SCF Done:  E(RB3LYP) =  -899.034428139     A.U. after   13 cycles
 SCF Done:  E(RB3LYP) =  -899.034567776     A.U. after    8 cycles
 SCF Done:  E(RB3LYP) =  -899.034567951     A.U. after    7 cycles
 SCF Done:  E(RB3LYP) =  -899.034568047     A.U. after    7 cycles
 SCF Done:  E(RB3LYP) =  -899.034568118     A.U. after    6 cycles
 SCF Done:  E(RB3LYP) =  -899.034568192     A.U. after    7 cycles
 Optimization completed.
    -- Stationary point found.
 Normal termination of Gaussian 16 at Mon Dec 14 19:17:42 2020.

 --------------------------------------------------------------------
 #N Geom=AllCheck Guess=TCheck SCRF=Check GenChk RB3LYP/6-31G(d) Freq
 --------------------------------------------------------------------

 Structure from the checkpoint file:  "JID_10827.chk"
 --------------------------------
 CID_104612582_JID_10827_neutraal
 --------------------------------
 Charge =  0 Multiplicity = 1

 SCF Done:  E(RB3LYP) =  -899.034568192     A.U. after    1 cycles

  Exact polarizability: 242.415 -21.934 171.165 -28.135 -22.060 143.364
 Approx polarizability: 314.383 -41.592 277.745 -55.529 -54.595 244.116

                      1                      2                      3
                      A                      A                      A
 Frequencies --     11.7990                25.5125                32.2324
 Red. masses --      5.3947                 5.3580                 5.4503
 Frc consts  --      0.0004                 0.0021                 0.0033
 IR Inten    --      1.9159                 9.5080                 0.1063

                      4                      5                      6
                      A                      A                      A
 Frequencies --     40.4446                63.1752                90.8169
 Red. masses --      4.0775                 3.7701                 4.0952
 Frc consts  --      0.0039                 0.0089                 0.0199
 IR Inten    --      2.7699                 1.7045                 0.4322

                      7                      8                      9
                      A                      A                      A
 Frequencies --    107.3408               134.6588               158.1034
 Red. masses --      3.5951                 3.7941                 3.5818
 Frc consts  --      0.0244                 0.0405                 0.0528
 IR Inten    --      3.2351                 4.1311                 4.9658

                     10                     11                     12
                      A                      A                      A
 Frequencies --    170.9169               217.0928               221.8911
 Red. masses --      3.7694                 1.9057                 1.3580
 Frc consts  --      0.0649                 0.0529                 0.0394
 IR Inten    --      3.8165                36.4662               183.4930

                     13                     14                     15
                      A                      A                      A
 Frequencies --    248.7444               271.0483               278.1750
 Red. masses --      3.6145                 1.9170                 1.5494
 Frc consts  --      0.1318                 0.0830                 0.0706
 IR Inten    --      5.3367                26.5513                 0.2033

                     16                     17                     18
                      A                      A                      A
 Frequencies --    301.5108               310.3271               340.4680
 Red. masses --      2.1331                 2.2578                 3.0806
 Frc consts  --      0.1143                 0.1281                 0.2104
 IR Inten    --      4.3455                 5.0285                 2.1317

                     19                     20                     21
                      A                      A                      A
 Frequencies --    351.2615               372.3510               378.6453
 Red. masses --      1.8358                 4.5029                 2.6195
 Frc consts  --      0.1335                 0.3678                 0.2213
 IR Inten    --      7.9238                 3.9151                 9.9259

                     22                     23                     24
                      A                      A                      A
 Frequencies --    396.1486               430.2650               430.7231
 Red. masses --      4.1745                 2.1883                 3.6611
 Frc consts  --      0.3860                 0.2387                 0.4002
 IR Inten    --     10.8263                 1.6776                 0.1808

                     25                     26                     27
                      A                      A                      A
 Frequencies --    463.3611               502.7887               508.9717
 Red. masses --      3.6127                 2.6434                 1.7475
 Frc consts  --      0.4570                 0.3937                 0.2667
 IR Inten    --      0.5177                 1.8659                 6.3846

                     28                     29                     30
                      A                      A                      A
 Frequencies --    532.6091               549.7644               579.5368
 Red. masses --      4.0219                 2.7703                 3.7627
 Frc consts  --      0.6722                 0.4933                 0.7446
 IR Inten    --      3.8546                11.9920                 3.3594

                     31                     32                     33
                      A                      A                      A
 Frequencies --    593.4925               610.6422               638.3579
 Red. masses --      3.2942                 3.2595                 2.6013
 Frc consts  --      0.6836                 0.7161                 0.6246
 IR Inten    --     38.0979                17.3383                 8.2285

                     34                     35                     36
                      A                      A                      A
 Frequencies --    644.3263               662.7471               689.6057
 Red. masses --      2.3410                 2.2559                 1.6923
 Frc consts  --      0.5726                 0.5838                 0.4742
 IR Inten    --      5.3460                34.7785               208.9109

                     37                     38                     39
                      A                      A                      A
 Frequencies --    710.8320               733.3143               765.2695
 Red. masses --      3.0515                 3.6755                 2.6096
 Frc consts  --      0.9084                 1.1645                 0.9004
 IR Inten    --     21.4750                47.2616                18.5777

                     40                     41                     42
                      A                      A                      A
 Frequencies --    810.7146               820.7993               851.4477
 Red. masses --      2.2490                 1.6108                 1.7539
 Frc consts  --      0.8709                 0.6394                 0.7491
 IR Inten    --      7.5788                55.1605                 2.6278

                     43                     44                     45
                      A                      A                      A
 Frequencies --    852.5124               876.0224               905.2876
 Red. masses --      2.6909                 3.4653                 1.9122
 Frc consts  --      1.1522                 1.5668                 0.9233
 IR Inten    --      0.3386                 1.6858                 3.8881

                     46                     47                     48
                      A                      A                      A
 Frequencies --    914.0008               931.3022               953.5436
 Red. masses --      1.4895                 1.3100                 2.4894
 Frc consts  --      0.7331                 0.6694                 1.3336
 IR Inten    --      4.2078                 7.0261                 2.7010

                     49                     50                     51
                      A                      A                      A
 Frequencies --    962.0036               972.0687              1009.3439
 Red. masses --      2.5957                 1.8524                 2.0169
 Frc consts  --      1.4153                 1.0313                 1.2106
 IR Inten    --     44.5412                 1.4572                21.2835

                     52                     53                     54
                      A                      A                      A
 Frequencies --   1022.3875              1051.0215              1055.6608
 Red. masses --      1.6572                 2.3474                 1.8377
 Frc consts  --      1.0206                 1.5278                 1.2066
 IR Inten    --      5.0916                22.8005                 3.0244

                     55                     56                     57
                      A                      A                      A
 Frequencies --   1081.1154              1092.8296              1109.8393
 Red. masses --      2.2986                 1.9538                 2.4310
 Frc consts  --      1.5829                 1.3748                 1.7642
 IR Inten    --      0.4005                 1.3684                14.6491

                     58                     59                     60
                      A                      A                      A
 Frequencies --   1115.2265              1141.8720              1154.9305
 Red. masses --      1.6360                 3.0147                 2.0373
 Frc consts  --      1.1988                 2.3159                 1.6011
 IR Inten    --      3.9092                 2.5291                23.9735

                     61                     62                     63
                      A                      A                      A
 Frequencies --   1183.3587              1209.3896              1219.5732
 Red. masses --      1.8511                 1.2243                 1.3363
 Frc consts  --      1.5273                 1.0551                 1.1710
 IR Inten    --     16.4897                11.1771                 2.1557

                     64                     65                     66
                      A                      A                      A
 Frequencies --   1232.6080              1262.2077              1277.2586
 Red. masses --      1.5872                 1.8601                 1.6273
 Frc consts  --      1.4208                 1.7460                 1.5641
 IR Inten    --     30.3033                53.0286               134.3395

                     67                     68                     69
                      A                      A                      A
 Frequencies --   1285.7297              1290.7885              1299.6534
 Red. masses --      1.7514                 2.3022                 1.3502
 Frc consts  --      1.7058                 2.2600                 1.3437
 IR Inten    --     88.2923                24.0648                41.1030

                     70                     71                     72
                      A                      A                      A
 Frequencies --   1304.2803              1343.1212              1347.6078
 Red. masses --      1.4562                 1.5658                 1.5685
 Frc consts  --      1.4595                 1.6642                 1.6783
 IR Inten    --     56.0802                11.3356                68.8442

                     73                     74                     75
                      A                      A                      A
 Frequencies --   1357.7689              1376.8588              1384.7896
 Red. masses --      1.3697                 4.1939                 1.3914
 Frc consts  --      1.4877                 4.6843                 1.5720
 IR Inten    --     14.0974                41.9966                27.1291

                     76                     77                     78
                      A                      A                      A
 Frequencies --   1394.7554              1412.5902              1418.7678
 Red. masses --      1.5389                 1.2965                 1.4927
 Frc consts  --      1.7639                 1.5242                 1.7703
 IR Inten    --     49.1713                35.2896                12.8408

                     79                     80                     81
                      A                      A                      A
 Frequencies --   1422.9286              1434.7667              1445.2519
 Red. masses --      1.5183                 1.7145                 1.9464
 Frc consts  --      1.8112                 2.0794                 2.3954
 IR Inten    --     47.1877                26.5957                52.6927

                     82                     83                     84
                      A                      A                      A
 Frequencies --   1470.2750              1493.3442              1503.3568
 Red. masses --      4.0506                 1.0930                 1.0614
 Frc consts  --      5.1591                 1.4361                 1.4134
 IR Inten    --    133.4637                 6.0757                15.9563

                     85                     86                     87
                      A                      A                      A
 Frequencies --   1514.4882              1519.1176              1522.2357
 Red. masses --      1.0639                 1.0909                 1.0901
 Frc consts  --      1.4378                 1.4833                 1.4883
 IR Inten    --     11.8207                 1.3879                 4.4661

                     88                     89                     90
                      A                      A                      A
 Frequencies --   1538.0667              1545.7805              1558.4813
 Red. masses --      1.1136                 1.2635                 2.0537
 Frc consts  --      1.5522                 1.7788                 2.9389
 IR Inten    --     54.9662                71.8461               233.7198

                     91                     92                     93
                      A                      A                      A
 Frequencies --   1617.3055              1645.2770              1677.1942
 Red. masses --      5.8821                 1.2448                 4.9859
 Frc consts  --      9.0649                 1.9853                 8.2635
 IR Inten    --     25.9839               118.5491                61.0644

                     94                     95                     96
                      A                      A                      A
 Frequencies --   1702.2367              1755.9765              1803.5794
 Red. masses --      1.1748                10.2119                 8.9358
 Frc consts  --      2.0056                18.5522                17.1260
 IR Inten    --     44.8514               171.5363               248.3666

                     97                     98                     99
                      A                      A                      A
 Frequencies --   3009.6487              3022.2588              3029.5368
 Red. masses --      1.0723                 1.0614                 1.0672
 Frc consts  --      5.7229                 5.7119                 5.7712
 IR Inten    --     61.9388                 5.5791                30.9605

                    100                    101                    102
                      A                      A                      A
 Frequencies --   3031.2209              3032.3756              3044.3093
 Red. masses --      1.0679                 1.0496                 1.0714
 Frc consts  --      5.7811                 5.6865                 5.8504
 IR Inten    --     29.7179                11.0561                87.7039

                    103                    104                    105
                      A                      A                      A
 Frequencies --   3056.8190              3069.9796              3086.9066
 Red. masses --      1.0961                 1.0936                 1.0927
 Frc consts  --      6.0346                 6.0727                 6.1348
 IR Inten    --     11.6760                 0.7830                69.5676

                    106                    107                    108
                      A                      A                      A
 Frequencies --   3098.8616              3117.9198              3118.4623
 Red. masses --      1.0916                 1.0942                 1.0838
 Frc consts  --      6.1759                 6.2672                 6.2096
 IR Inten    --      9.8172                33.3881                12.7467

                    109                    110                    111
                      A                      A                      A
 Frequencies --   3122.2435              3164.5440              3169.6310
 Red. masses --      1.0947                 1.0888                 1.1049
 Frc consts  --      6.2876                 6.4243                 6.5403
 IR Inten    --     17.8548                28.0973                 7.2639

                    112                    113                    114
                      A                      A                      A
 Frequencies --   3218.5593              3238.6372              3543.2288
 Red. masses --      1.0905                 1.0885                 1.0496
 Frc consts  --      6.6559                 6.7265                 7.7635
 IR Inten    --     19.3099                10.3490                 4.4764

                    115                    116                    117
                      A                      A                      A
 Frequencies --   3587.2586              3640.3608              3713.7135
 Red. masses --      1.0451                 1.0952                 1.1046
 Frc consts  --      7.9241                 8.5516                 8.9754
 IR Inten    --     35.3882                 6.2423                27.0443

 - Thermochemistry -
 -------------------
 Temperature   298.150 Kelvin.  Pressure   1.00000 Atm.
 Atom     1 has atomic number  6 and mass  12.00000

 Molecular mass:   275.16338 amu.
 Principal axes and moments of inertia in atomic units:
                           1         2         3
     Eigenvalues --  2991.57691********************
           X            0.99993  -0.00734  -0.00876
           Y            0.00723   0.99989  -0.01256
           Z            0.00885   0.01250   0.99988
 This molecule is an asymmetric top.
 Rotational symmetry number  1.
 Warning -- assumption of classical behavior for rotation
           may cause significant error
 Rotational temperatures (Kelvin)      0.02895     0.00736     0.00686
 Rotational constants (GHZ):           0.60327     0.15335     0.14293
 Zero-point vibrational energy     921964.6 (Joules/Mol)
                                  220.35483 (Kcal/Mol)
 Warning -- explicit consideration of  32 degrees of freedom as
           vibrations may cause significant error
 Vibrational temperatures:     16.98    36.71    46.38    58.19    90.90
          (Kelvin)            130.67   154.44   193.74   227.48   245.91
                              312.35   319.25   357.89   389.98   400.23
                              433.81   446.49   489.86   505.39   535.73
                              544.79   569.97   619.06   619.71   666.67
                              723.40   732.30   766.31   790.99   833.82
                              853.90   878.58   918.45   927.04   953.55
                              992.19  1022.73  1055.08  1101.05  1166.44
                             1180.95  1225.04  1226.58  1260.40  1302.51
                             1315.04  1339.94  1371.94  1384.11  1398.59
                             1452.22  1470.99  1512.19  1518.86  1555.48
                             1572.34  1596.81  1604.56  1642.90  1661.69
                             1702.59  1740.04  1754.69  1773.45  1816.04
                             1837.69  1849.88  1857.16  1869.91  1876.57
                             1932.45  1938.91  1953.53  1980.99  1992.40
                             2006.74  2032.40  2041.29  2047.28  2064.31
                             2079.40  2115.40  2148.59  2163.00  2179.01
                             2185.67  2190.16  2212.93  2224.03  2242.31
                             2326.94  2367.19  2413.11  2449.14  2526.46
                             2594.95  4330.21  4348.36  4358.83  4361.25
                             4362.91  4380.08  4398.08  4417.02  4441.37
                             4458.57  4485.99  4486.77  4492.21  4553.07
                             4560.39  4630.79  4659.68  5097.92  5161.26
                             5237.67  5343.21

 Zero-point correction=                           0.351158 (Hartree/Particle)
 Thermal correction to Energy=                    0.370820
 Thermal correction to Enthalpy=                  0.371764
 Thermal correction to Gibbs Free Energy=         0.300678
 Sum of electronic and zero-point Energies=           -898.683410
 Sum of electronic and thermal Energies=              -898.663748
 Sum of electronic and thermal Enthalpies=            -898.662804
 Sum of electronic and thermal Free Energies=         -898.733890

                     E (Thermal)             CV                S
                      KCal/Mol        Cal/Mol-Kelvin    Cal/Mol-Kelvin
 Total                  232.693             75.651            149.613
 Electronic               0.000              0.000              0.000
 Translational            0.889              2.981             42.735
 Rotational               0.889              2.981             34.452
 Vibrational            230.916             69.689             72.426
 Vibration     1          0.593              1.987              7.682
 Vibration     2          0.593              1.985              6.151
 Vibration     3          0.594              1.983              5.687
 Vibration     4          0.594              1.981              5.237
 Vibration     5          0.597              1.972              4.355
 Vibration     6          0.602              1.956              3.642
 Vibration     7          0.606              1.943              3.316
 Vibration     8          0.613              1.919              2.878
 Vibration     9          0.621              1.894              2.572
 Vibration    10          0.626              1.878              2.425
 Vibration    11          0.646              1.815              1.983
 Vibration    12          0.648              1.808              1.944
 Vibration    13          0.662              1.765              1.739
 Vibration    14          0.675              1.727              1.590
 Vibration    15          0.679              1.714              1.545
 Vibration    16          0.693              1.671              1.409
 Vibration    17          0.699              1.654              1.361
 Vibration    18          0.720              1.595              1.210
 Vibration    19          0.728              1.573              1.161
 Vibration    20          0.744              1.529              1.070
 Vibration    21          0.749              1.516              1.045
 Vibration    22          0.763              1.478              0.977
 Vibration    23          0.791              1.404              0.858
 Vibration    24          0.792              1.403              0.856
 Vibration    25          0.821              1.331              0.756
 Vibration    26          0.858              1.244              0.651
 Vibration    27          0.864              1.230              0.636
 Vibration    28          0.888              1.178              0.581
 Vibration    29          0.905              1.140              0.545
 Vibration    30          0.936              1.076              0.486
 Vibration    31          0.951              1.046              0.461
 Vibration    32          0.970              1.009              0.432

 Optimization completed.
    -- Stationary point found.
 Normal termination of Gaussian 16 at Mon Dec 14 19:40:23 2020.

 ----------------------------------------------------------------------
 # B3LYP/6-311++G(d,p) empiricaldispersion=gd3bj scf=xqc pop=npa geom=c
 heck
 ----------------------------------------------------------------------

 ----------------------------------------
 CID_104612582_JID_10827_Energie_neutraal
 ----------------------------------------
 Structure from the checkpoint file:  "JID_10827.chk"
 Charge =  0 Multiplicity = 1

 SCF Done:  E(RB3LYP) =  -899.295969011     A.U. after   15 cycles
 Normal termination of Gaussian 16 at Mon Dec 14 19:51:04 2020.

 ----------------------------------------------------------------------
 # B3LYP/6-311++G(d,p) empiricaldispersion=gd3bj scf=xqc pop=npa geom=c
 heck
 ----------------------------------------------------------------------

 --------------------------------------
 CID_104612582_JID_10827_Energie_kation
 --------------------------------------
 Structure from the checkpoint file:  "JID_10827.chk"
 Charge =  1 Multiplicity = 2

 SCF Done:  E(UB3LYP) =  -899.056385391     A.U. after   23 cycles
 Normal termination of Gaussian 16 at Mon Dec 14 20:14:16 2020.
 Gaussian 16:  ES64L-G16RevA.03 25-Dec-2016

 ----------------------------------------------------------------------
 # B3LYP/6-311++G(d,p) empiricaldispersion=gd3bj scf=xqc pop=npa geom=c
 heck
 ----------------------------------------------------------------------

 -------------------------------------
 CID_104612582_JID_10827_Energie_anion
 -------------------------------------
 Structure from the checkpoint file:  "JID_10827.chk"
 Charge = -1 Multiplicity = 2

                         Standard orientation:
 ---------------------------------------------------------------------
 Center     Atomic      Atomic             Coordinates (Angstroms)
 Number     Number       Type             X           Y           Z
 ---------------------------------------------------------------------
      1          6           0       -5.001777    1.902411    0.410852
      2          6           0       -3.797110    1.482458   -0.416131
      3          8           0       -3.474917    2.174832   -1.374067
      4          6           0       -2.992909    0.271346   -0.052778
      5          6           0       -3.333117   -0.696336    0.924087
      6          6           0       -2.412783   -1.730475    1.157760
      7          6           0       -1.209445   -1.825381    0.476313
      8          6           0       -0.868436   -0.892608   -0.525754
      9          6           0       -1.791683    0.129273   -0.768129
     10          7           0        0.312343   -0.977924   -1.265742
     11          6           0        0.987549    0.249187   -1.705890
     12          6           0        2.484739    0.230030   -1.337070
     13          6           0        2.674113   -0.423392    0.039131
     14          6           0        2.262485   -1.912496   -0.030123
     15          6           0        1.200054   -2.119022   -1.130056
     16          6           0        4.094701   -0.263504    0.580419
     17          6           0        4.440490    1.185883    0.917927
     18          8           0        3.594697    2.040205    1.140789
     19          7           0        5.780609    1.463925    0.953250
     20          7           0       -4.501417   -0.654411    1.708513
     21          1           0       -5.229309    2.941742    0.166690
     22          1           0       -4.832594    1.784146    1.484537
     23          1           0       -5.880058    1.298453    0.140294
     24          1           0       -2.647952   -2.477057    1.913896
     25          1           0       -0.532292   -2.631135    0.735988
     26          1           0       -1.609899    0.866677   -1.539846
     27          1           0        0.859898    0.406898   -2.787217
     28          1           0        0.519222    1.096128   -1.196527
     29          1           0        3.069604   -0.315562   -2.090568
     30          1           0        2.853930    1.259535   -1.326877
     31          1           0        2.004496    0.096509    0.733426
     32          1           0        1.883436   -2.233793    0.947422
     33          1           0        3.133281   -2.543890   -0.255891
     34          1           0        1.703082   -2.259213   -2.095230
     35          1           0        0.611426   -3.024371   -0.965823
     36          1           0        4.206000   -0.851856    1.503367
     37          1           0        4.826053   -0.668540   -0.132731
     38          1           0        6.476789    0.735689    0.900136
     39          1           0        6.063568    2.370342    1.299190
     40          1           0       -5.342211   -0.391703    1.211341
     41          1           0       -4.656684   -1.524676    2.205143
 ---------------------------------------------------------------------

 SCF Done:  E(UB3LYP) =  -899.300219507     A.U. after   33 cycles
 SCF Done:  E(UB3LYP) =  -899.300219507     a.u. after    1 cycles

 The electronic state is 2-A.
 Alpha  occ. eigenvalues --  -18.99780 -18.96246 -14.23984 -14.21835 -14.21318
 Alpha  occ. eigenvalues --  -10.18383 -10.11520 -10.10549 -10.09838 -10.09689
 Alpha  occ. eigenvalues --  -10.09096 -10.08754 -10.08145 -10.07618 -10.07237
 Alpha  occ. eigenvalues --  -10.05998 -10.05643 -10.05306 -10.05178 -10.03893
 Alpha  occ. eigenvalues --   -0.94767  -0.90094  -0.84293  -0.81655  -0.81321
 Alpha  occ. eigenvalues --   -0.73339  -0.71165  -0.66411  -0.64864  -0.64203
 Alpha  occ. eigenvalues --   -0.61852  -0.60504  -0.55118  -0.54002  -0.50773
 Alpha  occ. eigenvalues --   -0.49844  -0.48248  -0.45771  -0.44379  -0.43593
 Alpha  occ. eigenvalues --   -0.41373  -0.40663  -0.39947  -0.38481  -0.37598
 Alpha  occ. eigenvalues --   -0.36906  -0.35350  -0.34881  -0.33451  -0.32915
 Alpha  occ. eigenvalues --   -0.32609  -0.31867  -0.31521  -0.30853  -0.29726
 Alpha  occ. eigenvalues --   -0.29544  -0.28827  -0.27921  -0.27821  -0.27264
 Alpha  occ. eigenvalues --   -0.26809  -0.25845  -0.24720  -0.23873  -0.23386
 Alpha  occ. eigenvalues --   -0.22721  -0.22106  -0.20960  -0.18474  -0.16780
 Alpha  occ. eigenvalues --   -0.14681  -0.13829  -0.12259  -0.07434   0.03273
 Alpha virt. eigenvalues --    0.04380   0.06381   0.06876   0.07756   0.08228
 Alpha virt. eigenvalues --    0.08585   0.09472   0.09695   0.09909   0.10496
 Alpha virt. eigenvalues --    0.11221   0.11299   0.11584   0.11924   0.12108

  Beta  occ. eigenvalues --  -18.99775 -18.95967 -14.23920 -14.21822 -14.21332
  Beta  occ. eigenvalues --  -10.18380 -10.11295 -10.10547 -10.09835 -10.09627
  Beta  occ. eigenvalues --  -10.09153 -10.08729 -10.08143 -10.07611 -10.07235
  Beta  occ. eigenvalues --  -10.06015 -10.05640 -10.05272 -10.04986 -10.03745
  Beta  occ. eigenvalues --   -0.94751  -0.89566  -0.84305  -0.81588  -0.81232
  Beta  occ. eigenvalues --   -0.73264  -0.71060  -0.66384  -0.64737  -0.63972
  Beta  occ. eigenvalues --   -0.61694  -0.60405  -0.55052  -0.53952  -0.50417
  Beta  occ. eigenvalues --   -0.49753  -0.48160  -0.45620  -0.44307  -0.43539
  Beta  occ. eigenvalues --   -0.41304  -0.40565  -0.39778  -0.38445  -0.37538
  Beta  occ. eigenvalues --   -0.36892  -0.35285  -0.34801  -0.33370  -0.32585
  Beta  occ. eigenvalues --   -0.32480  -0.31746  -0.31478  -0.30790  -0.29613
  Beta  occ. eigenvalues --   -0.29498  -0.28733  -0.27747  -0.27732  -0.27124
  Beta  occ. eigenvalues --   -0.26739  -0.25716  -0.24625  -0.23525  -0.22713
  Beta  occ. eigenvalues --   -0.22547  -0.21972  -0.20697  -0.18424  -0.16757
  Beta  occ. eigenvalues --   -0.14514  -0.12901  -0.11988  -0.06991
  Beta virt. eigenvalues --    0.05939   0.06370   0.07054   0.07390   0.07761
  Beta virt. eigenvalues --    0.08421   0.08910   0.09492   0.09695   0.10390
  Beta virt. eigenvalues --    0.10480   0.11319   0.11439   0.11614   0.12038

 Mulliken charges and spin densities:
               1          2
     1  C   -0.524201  -0.012072
     2  C   -0.218929   0.111169
     3  O   -0.330298   0.103790
     4  C    2.143689   0.048147
     5  C   -2.083074   0.016422
     6  C   -0.624584  -0.029974
     7  C    0.318830   0.141968
     8  C   -0.389820  -0.013772
     9  C   -0.140969   0.123595
    10  N    0.319214  -0.005924
    11  C   -0.391245   0.059962
    12  C   -0.384372  -0.240314
    13  C    0.164664   0.233158
    14  C   -0.321582  -0.230116
    15  C   -0.205907   0.004141
    16  C    0.362126  -0.805755
    17  C    0.068737  -0.152916
    18  O   -0.310693  -0.015271
    19  N   -0.287831  -0.005976
    20  N   -0.252971   0.008494
    21  H    0.157062  -0.001703
    22  H    0.175375   0.004319
    23  H    0.111248   0.020809
    24  H    0.113122   0.003151
    25  H    0.060049  -0.002287
    26  H    0.209066  -0.005623
    27  H    0.145797   0.007844
    28  H    0.155115  -0.001965
    29  H    0.130533   0.015405
    30  H    0.165967   0.020872
    31  H    0.263517  -0.017853
    32  H    0.149459  -0.010061
    33  H   -0.012153   0.164539
    34  H    0.142017   0.014925
    35  H    0.206587  -0.007223
    36  H   -0.077675   0.273471
    37  H   -0.013365   0.172740
    38  H   -0.444167   0.703587
    39  H   -0.008543   0.305507
    40  H    0.238317   0.001090
    41  H    0.221889  -0.000297
 Sum of Mulliken charges =  -1.00000   1.00000

 Dipole moment (field-independent basis, Debye):
    X=             -4.5925    Y=             -5.7464    Z=              0.0195  Tot=              7.3561
 Quadrupole moment (field-independent basis, Debye-Ang):
   XX=           -225.1366   YY=           -149.6025   ZZ=           -143.5847
   XY=              4.4981   XZ=            -21.2716   YZ=             -0.4663

 Summary of Natural Population Analysis:

                                       Natural Population
                Natural  -----------------------------------------------
    Atom  No    Charge         Core      Valence    Rydberg      Total
 -----------------------------------------------------------------------
      C    1   -0.33388      0.99964     2.32955    0.00470     3.33388
      C    2    0.29985      0.99966     1.68045    0.02004     2.70015
      O    3   -0.27904      0.99988     3.27206    0.00710     4.27904
      C    4   -0.07501      0.99938     2.06700    0.00862     3.07501
      C    5    0.08616      0.99947     1.90464    0.00973     2.91384
      C    6   -0.12522      0.99955     2.11720    0.00848     3.12522
      C    7   -0.07809      0.99954     2.07113    0.00743     3.07809
      C    8    0.06981      0.99948     1.92130    0.00941     2.93019
      C    9   -0.06925      0.99953     2.06148    0.00824     3.06925
      N   10   -0.26426      0.99966     2.75444    0.01016     3.76426
      C   11   -0.07655      0.99962     2.06887    0.00806     3.07655
      C   12   -0.19966      0.99961     2.19096    0.00909     3.19966
      C   13   -0.11640      0.99959     2.10597    0.01084     3.11640
      C   14   -0.19441      0.99962     2.18585    0.00894     3.19441
      C   15   -0.08283      0.99963     2.07362    0.00958     3.08283
      C   16   -0.23013      0.99956     2.22091    0.00965     3.23013
      C   17    0.34042      0.99970     1.63651    0.02337     2.65958
      O   18   -0.32153      0.99988     3.31605    0.00560     4.32153
      N   19   -0.40189      0.99971     2.89381    0.00837     3.90189
      N   20   -0.40200      0.99972     2.89313    0.00915     3.90200
      H   21    0.10636      0.00000     0.39218    0.00146     0.39364
      H   22    0.10901      0.00000     0.38980    0.00119     0.39099
      H   23    0.09646      0.00000     0.40235    0.00119     0.40354
      H   24    0.08779      0.00000     0.41049    0.00172     0.41221
      H   25    0.09236      0.00000     0.40633    0.00131     0.40764
      H   26    0.11191      0.00000     0.38656    0.00153     0.38809
      H   27    0.08691      0.00000     0.41209    0.00100     0.41309
      H   28    0.10455      0.00000     0.39426    0.00120     0.39545
      H   29    0.08996      0.00000     0.40879    0.00125     0.41004
      H   30    0.11043      0.00000     0.38866    0.00091     0.38957
      H   31    0.10995      0.00000     0.38819    0.00186     0.39005
      H   32    0.09895      0.00000     0.40009    0.00096     0.40105
      H   33    0.09265      0.00000     0.40607    0.00128     0.40735
      H   34    0.08980      0.00000     0.40920    0.00100     0.41020
      H   35    0.10103      0.00000     0.39785    0.00111     0.39897
      H   36    0.11147      0.00000     0.38751    0.00102     0.38853
      H   37    0.10335      0.00000     0.39505    0.00160     0.39665
      H   38    0.19815      0.00000     0.29063    0.01122     0.30185
      H   39    0.19519      0.00000     0.30281    0.00200     0.30481
      H   40    0.18143      0.00000     0.31682    0.00175     0.31857
      H   41    0.17625      0.00000     0.32229    0.00146     0.32375
 =======================================================================
   * Total *    0.00000     19.99244    53.77298    0.23458    74.00000

 Normal termination of Gaussian 16 at Mon Dec 14 20:46:58 2020.
