 Gaussian 16, Revision A.03,

 -----------------------------------------------------------
 # opt freq B3LYP/6-31G(d) empiricaldispersion=gd3bj scf=xqc
 -----------------------------------------------------------

 ------------------------------
 CID_54903707_JID_7909_neutraal
 ------------------------------
 Symbolic Z-matrix:
 Charge =  0 Multiplicity = 1

 SCF Done:  E(RB3LYP) =  -745.124920629     A.U. after   15 cycles
 SCF Done:  E(RB3LYP) =  -745.127683130     A.U. after   13 cycles
 SCF Done:  E(RB3LYP) =  -745.123689802     A.U. after   14 cycles
 SCF Done:  E(RB3LYP) =  -745.128512367     A.U. after   13 cycles
 SCF Done:  E(RB3LYP) =  -745.130755242     A.U. after   15 cycles
 SCF Done:  E(RB3LYP) =  -745.131529738     A.U. after   11 cycles
 SCF Done:  E(RB3LYP) =  -745.131678243     A.U. after   12 cycles
 SCF Done:  E(RB3LYP) =  -745.131746436     A.U. after   12 cycles
 SCF Done:  E(RB3LYP) =  -745.131800473     A.U. after   12 cycles
 SCF Done:  E(RB3LYP) =  -745.131825204     A.U. after   11 cycles
 SCF Done:  E(RB3LYP) =  -745.133696248     A.U. after   11 cycles
 SCF Done:  E(RB3LYP) =  -745.133698461     A.U. after    9 cycles
 SCF Done:  E(RB3LYP) =  -745.133698890     A.U. after    8 cycles
 SCF Done:  E(RB3LYP) =  -745.133698907     A.U. after    7 cycles
 SCF Done:  E(RB3LYP) =  -745.133698933     A.U. after    7 cycles
 Optimization completed.
    -- Stationary point found.
 Normal termination of Gaussian 16 at Fri Dec 11 13:20:01 2020.

 --------------------------------------------------------------------
 #N Geom=AllCheck Guess=TCheck SCRF=Check GenChk RB3LYP/6-31G(d) Freq
 --------------------------------------------------------------------

 Structure from the checkpoint file:  "JID_7909.chk"
 ------------------------------
 CID_54903707_JID_7909_neutraal
 ------------------------------
 Charge =  0 Multiplicity = 1

 SCF Done:  E(RB3LYP) =  -745.133698933     A.U. after    1 cycles

  Exact polarizability: 151.926 -29.297 143.139  -6.258  -6.191 133.668
 Approx polarizability: 206.523 -57.517 221.583 -20.192 -18.472 255.944

                      1                      2                      3
                      A                      A                      A
 Frequencies --     19.6481                48.7943                72.8452
 Red. masses --      4.0819                 4.4321                 3.6405
 Frc consts  --      0.0009                 0.0062                 0.0114
 IR Inten    --      0.1091                 0.0935                 0.1530

                      4                      5                      6
                      A                      A                      A
 Frequencies --     76.1250                88.8389                98.7184
 Red. masses --      4.7942                 4.6897                 2.9702
 Frc consts  --      0.0164                 0.0218                 0.0171
 IR Inten    --      0.1062                 1.2305                 0.0509

                      7                      8                      9
                      A                      A                      A
 Frequencies --    142.5471               154.3386               172.8774
 Red. masses --      1.1232                 3.1565                 1.7112
 Frc consts  --      0.0134                 0.0443                 0.0301
 IR Inten    --      0.1131                 0.2267                 0.2353

                     10                     11                     12
                      A                      A                      A
 Frequencies --    210.0283               221.1051               256.4557
 Red. masses --      4.2848                 3.0142                 1.5644
 Frc consts  --      0.1114                 0.0868                 0.0606
 IR Inten    --      2.9005                 1.2156                 0.5830

                     13                     14                     15
                      A                      A                      A
 Frequencies --    277.8151               305.5080               337.3934
 Red. masses --      3.4241                 2.1818                 4.6399
 Frc consts  --      0.1557                 0.1200                 0.3112
 IR Inten    --      2.8157                 9.6035                 1.4512

                     16                     17                     18
                      A                      A                      A
 Frequencies --    393.2691               415.7732               422.1628
 Red. masses --      2.8849                 2.9753                 3.0464
 Frc consts  --      0.2629                 0.3030                 0.3199
 IR Inten    --      0.9781                 0.3640                 1.2067

                     19                     20                     21
                      A                      A                      A
 Frequencies --    432.4935               502.7927               570.3471
 Red. masses --      4.1359                 4.2695                 2.9801
 Frc consts  --      0.4558                 0.6359                 0.5712
 IR Inten    --      0.4203                 4.6411                 7.9866

                     22                     23                     24
                      A                      A                      A
 Frequencies --    595.3529               626.0557               636.7070
 Red. masses --      2.7625                 4.3772                 6.3680
 Frc consts  --      0.5769                 1.0108                 1.5210
 IR Inten    --      9.6917                 1.5146                 0.0233

                     25                     26                     27
                      A                      A                      A
 Frequencies --    674.5491               712.2064               717.4463
 Red. masses --      4.7461                 1.9511                 3.3970
 Frc consts  --      1.2724                 0.5831                 1.0302
 IR Inten    --      5.2449                41.9585                17.6568

                     28                     29                     30
                      A                      A                      A
 Frequencies --    735.1482               764.3888               783.3867
 Red. masses --      2.8237                 1.6782                 2.2867
 Frc consts  --      0.8991                 0.5777                 0.8268
 IR Inten    --     44.0885                13.4821                20.9744

                     31                     32                     33
                      A                      A                      A
 Frequencies --    818.9525               855.6007               862.1436
 Red. masses --      2.6293                 1.2637                 1.9140
 Frc consts  --      1.0390                 0.5451                 0.8382
 IR Inten    --     37.5492                 3.0830                59.6032

                     34                     35                     36
                      A                      A                      A
 Frequencies --    905.5797               916.0453               919.8119
 Red. masses --      4.7015                 1.9864                 1.6800
 Frc consts  --      2.2717                 0.9821                 0.8374
 IR Inten    --     15.7799                 2.7393                 4.2700

                     37                     38                     39
                      A                      A                      A
 Frequencies --    963.6028               968.0907               990.3864
 Red. masses --      1.3691                 2.0099                 1.2505
 Frc consts  --      0.7490                 1.1098                 0.7227
 IR Inten    --      0.4193                11.0278                 0.3885

                     40                     41                     42
                      A                      A                      A
 Frequencies --   1005.6206              1022.9785              1039.6198
 Red. masses --      2.8557                 6.0621                 2.6910
 Frc consts  --      1.7015                 3.7377                 1.7136
 IR Inten    --      2.8962                 0.3606                 0.4006

                     43                     44                     45
                      A                      A                      A
 Frequencies --   1052.2156              1060.5192              1066.9608
 Red. masses --      2.6984                 2.2871                 3.9519
 Frc consts  --      1.7602                 1.5155                 2.6507
 IR Inten    --      2.5316                 3.5205                 2.1025

                     46                     47                     48
                      A                      A                      A
 Frequencies --   1085.1091              1086.2067              1101.8182
 Red. masses --      2.0589                 1.5798                 1.8376
 Frc consts  --      1.4283                 1.0982                 1.3144
 IR Inten    --     15.1862                 7.3485                 1.4205

                     49                     50                     51
                      A                      A                      A
 Frequencies --   1124.0846              1141.4575              1162.8144
 Red. masses --      1.8443                 3.8497                 2.1077
 Frc consts  --      1.3730                 2.9553                 1.6791
 IR Inten    --      6.0843                51.0333                 7.2658

                     52                     53                     54
                      A                      A                      A
 Frequencies --   1193.9573              1218.1905              1225.5694
 Red. masses --      1.0983                 1.1352                 2.2751
 Frc consts  --      0.9225                 0.9925                 2.0134
 IR Inten    --      0.1886                 0.1639                 5.6856

                     55                     56                     57
                      A                      A                      A
 Frequencies --   1240.3387              1283.0485              1312.0334
 Red. masses --      2.1776                 1.3747                 2.0045
 Frc consts  --      1.9739                 1.3333                 2.0330
 IR Inten    --     13.3318                 0.9284                 3.1307

                     58                     59                     60
                      A                      A                      A
 Frequencies --   1341.2342              1357.8706              1369.1506
 Red. masses --      1.6102                 1.4581                 2.3528
 Frc consts  --      1.7067                 1.5840                 2.5986
 IR Inten    --      9.9306                 1.2465                 0.6633

                     61                     62                     63
                      A                      A                      A
 Frequencies --   1375.9978              1394.3420              1399.0550
 Red. masses --      1.8641                 1.5567                 1.4281
 Frc consts  --      2.0795                 1.7832                 1.6469
 IR Inten    --     50.1421                17.0669                 1.0116

                     64                     65                     66
                      A                      A                      A
 Frequencies --   1417.3790              1442.1477              1445.5186
 Red. masses --      1.4589                 1.2487                 1.6572
 Frc consts  --      1.7268                 1.5301                 2.0402
 IR Inten    --      2.0942                 1.9385                37.9108

                     67                     68                     69
                      A                      A                      A
 Frequencies --   1489.8028              1500.5354              1504.4240
 Red. masses --      1.0822                 1.1705                 2.0971
 Frc consts  --      1.4151                 1.5528                 2.7965
 IR Inten    --      7.1452                14.8622                 7.9691

                     70                     71                     72
                      A                      A                      A
 Frequencies --   1507.0834              1520.5694              1523.4144
 Red. masses --      1.0967                 1.0703                 1.2059
 Frc consts  --      1.4676                 1.4581                 1.6489
 IR Inten    --      8.5413                 3.7534                23.9842

                     73                     74                     75
                      A                      A                      A
 Frequencies --   1529.7390              1539.0346              1546.8462
 Red. masses --      1.0533                 1.0666                 2.1740
 Frc consts  --      1.4523                 1.4885                 3.0648
 IR Inten    --      3.7671                 4.1824                 4.4262

                     76                     77                     78
                      A                      A                      A
 Frequencies --   1571.9200              1634.3946              1647.0410
 Red. masses --      5.4159                 7.5490                 5.4475
 Frc consts  --      7.8847                11.8810                 8.7067
 IR Inten    --      0.5752                51.0386                 1.3391

                     79                     80                     81
                      A                      A                      A
 Frequencies --   1666.4349              3034.3125              3045.1958
 Red. masses --      5.5559                 1.0762                 1.0699
 Frc consts  --      9.0903                 5.8378                 5.8458
 IR Inten    --      1.5961                 4.8120                19.7148

                     82                     83                     84
                      A                      A                      A
 Frequencies --   3050.3532              3064.9397              3068.7350
 Red. masses --      1.0413                 1.0622                 1.0360
 Frc consts  --      5.7085                 5.8789                 5.7484
 IR Inten    --     40.9062                23.8985                 9.1221

                     85                     86                     87
                      A                      A                      A
 Frequencies --   3091.5386              3114.0699              3117.7761
 Red. masses --      1.0962                 1.1013                 1.1025
 Frc consts  --      6.1728                 6.2924                 6.3140
 IR Inten    --     17.4326                36.7253                 8.6707

                     88                     89                     90
                      A                      A                      A
 Frequencies --   3130.0006              3131.0988              3163.6707
 Red. masses --      1.1020                 1.1015                 1.1027
 Frc consts  --      6.3609                 6.3623                 6.5028
 IR Inten    --     44.8867                 7.3953                 5.6383

                     91                     92                     93
                      A                      A                      A
 Frequencies --   3174.9586              3183.6265              3189.4537
 Red. masses --      1.0856                 1.0868                 1.0902
 Frc consts  --      6.4473                 6.4900                 6.5341
 IR Inten    --      5.6691                 3.6654                11.0619

                     94                     95                     96
                      A                      A                      A
 Frequencies --   3200.5212              3212.1435              3495.3821
 Red. masses --      1.0940                 1.0975                 1.0735
 Frc consts  --      6.6027                 6.6720                 7.7277
 IR Inten    --     31.3706                15.4685                 0.4089

 - Thermochemistry -
 -------------------
 Temperature   298.150 Kelvin.  Pressure   1.00000 Atm.
 Atom     1 has atomic number  6 and mass  12.00000

 Molecular mass:   231.13716 amu.
 Principal axes and moments of inertia in atomic units:
                           1         2         3
     Eigenvalues --  2520.061514213.755935519.83143
           X            0.99935  -0.03408   0.01202
           Y            0.03411   0.99942  -0.00236
           Z           -0.01193   0.00277   0.99993
 This molecule is an asymmetric top.
 Rotational symmetry number  1.
 Warning -- assumption of classical behavior for rotation
           may cause significant error
 Rotational temperatures (Kelvin)      0.03437     0.02056     0.01569
 Rotational constants (GHZ):           0.71615     0.42830     0.32696
 Zero-point vibrational energy     755319.7 (Joules/Mol)
                                  180.52573 (Kcal/Mol)
 Warning -- explicit consideration of  22 degrees of freedom as
           vibrations may cause significant error
 Vibrational temperatures:     28.27    70.20   104.81   109.53   127.82
          (Kelvin)            142.03   205.09   222.06   248.73   302.18
                              318.12   368.98   399.71   439.56   485.43
                              565.83   598.20   607.40   622.26   723.41
                              820.60   856.58   900.75   916.08   970.53
                             1024.71  1032.25  1057.71  1099.78  1127.12
                             1178.29  1231.02  1240.43  1302.93  1317.98
                             1323.40  1386.41  1392.87  1424.95  1446.86
                             1471.84  1495.78  1513.90  1525.85  1535.12
                             1561.23  1562.81  1585.27  1617.31  1642.30
                             1673.03  1717.84  1752.70  1763.32  1784.57
                             1846.02  1887.72  1929.74  1953.67  1969.90
                             1979.75  2006.15  2012.93  2039.29  2074.93
                             2079.78  2143.49  2158.94  2164.53  2168.36
                             2187.76  2191.85  2200.95  2214.33  2225.57
                             2261.64  2351.53  2369.72  2397.63  4365.70
                             4381.36  4388.78  4409.76  4415.23  4448.03
                             4480.45  4485.78  4503.37  4504.95  4551.82
                             4568.06  4580.53  4588.91  4604.84  4621.56
                             5029.08

 Zero-point correction=                           0.287686 (Hartree/Particle)
 Thermal correction to Energy=                    0.303651
 Thermal correction to Enthalpy=                  0.304595
 Thermal correction to Gibbs Free Energy=         0.243166
 Sum of electronic and zero-point Energies=           -744.846013
 Sum of electronic and thermal Energies=              -744.830048
 Sum of electronic and thermal Enthalpies=            -744.829104
 Sum of electronic and thermal Free Energies=         -744.890532

                     E (Thermal)             CV                S
                      KCal/Mol        Cal/Mol-Kelvin    Cal/Mol-Kelvin
 Total                  190.544             60.388            129.288
 Electronic               0.000              0.000              0.000
 Translational            0.889              2.981             42.215
 Rotational               0.889              2.981             32.439
 Vibrational            188.766             54.427             54.634
 Vibration     1          0.593              1.986              6.669
 Vibration     2          0.595              1.978              4.866
 Vibration     3          0.599              1.967              4.075
 Vibration     4          0.599              1.965              3.988
 Vibration     5          0.602              1.957              3.685
 Vibration     6          0.604              1.950              3.479
 Vibration     7          0.616              1.911              2.769
 Vibration     8          0.620              1.898              2.618
 Vibration     9          0.626              1.876              2.404
 Vibration    10          0.642              1.825              2.043
 Vibration    11          0.648              1.809              1.950
 Vibration    12          0.666              1.752              1.686
 Vibration    13          0.679              1.715              1.547
 Vibration    14          0.696              1.663              1.387
 Vibration    15          0.718              1.601              1.224
 Vibration    16          0.760              1.485              0.988
 Vibration    17          0.779              1.436              0.906
 Vibration    18          0.784              1.422              0.885
 Vibration    19          0.793              1.399              0.851
 Vibration    20          0.858              1.244              0.651
 Vibration    21          0.926              1.095              0.504
 Vibration    22          0.953              1.042              0.458

 Optimization completed.
    -- Stationary point found.
 Normal termination of Gaussian 16 at Fri Dec 11 13:33:45 2020.

 ----------------------------------------------------------------------
 # B3LYP/6-311++G(d,p) empiricaldispersion=gd3bj scf=xqc pop=npa geom=c
 heck
 ----------------------------------------------------------------------

 --------------------------------------
 CID_54903707_JID_7909_Energie_neutraal
 --------------------------------------
 Structure from the checkpoint file:  "JID_7909.chk"
 Charge =  0 Multiplicity = 1

 SCF Done:  E(RB3LYP) =  -745.333616544     A.U. after   16 cycles
 Normal termination of Gaussian 16 at Fri Dec 11 13:39:26 2020.

 ----------------------------------------------------------------------
 # B3LYP/6-311++G(d,p) empiricaldispersion=gd3bj scf=xqc pop=npa geom=c
 heck
 ----------------------------------------------------------------------

 ------------------------------------
 CID_54903707_JID_7909_Energie_kation
 ------------------------------------
 Structure from the checkpoint file:  "JID_7909.chk"
 Charge =  1 Multiplicity = 2

 SCF Done:  E(UB3LYP) =  -745.027207388     A.U. after   29 cycles
 Normal termination of Gaussian 16 at Fri Dec 11 13:53:28 2020.
 Gaussian 16:  ES64L-G16RevA.03 25-Dec-2016

 ----------------------------------------------------------------------
 # B3LYP/6-311++G(d,p) empiricaldispersion=gd3bj scf=xqc pop=npa geom=c
 heck
 ----------------------------------------------------------------------

 -----------------------------------
 CID_54903707_JID_7909_Energie_anion
 -----------------------------------
 Structure from the checkpoint file:  "JID_7909.chk"
 Charge = -1 Multiplicity = 2

                         Standard orientation:
 ---------------------------------------------------------------------
 Center     Atomic      Atomic             Coordinates (Angstroms)
 Number     Number       Type             X           Y           Z
 ---------------------------------------------------------------------
      1          6           0        4.100672    0.529444    0.435812
      2          6           0        3.351228   -0.510054   -0.399362
      3          6           0        1.917462   -0.767469    0.091918
      4          6           0        1.071101    0.500773    0.118275
      5          6           0        0.892201    1.264126   -1.043296
      6          6           0        0.074174    2.390600   -1.038726
      7          6           0       -0.584898    2.774044    0.132758
      8          6           0       -0.412296    2.025026    1.295502
      9          6           0        0.417725    0.902434    1.286274
     10          7           0        1.341640   -1.864132   -0.711008
     11          6           0        0.170672   -2.520591   -0.142746
     12          6           0       -1.060067   -1.662230   -0.015015
     13          7           0       -1.647161   -0.963985   -0.942783
     14          6           0       -2.649572   -0.319657   -0.244182
     15          7           0       -2.700406   -0.615413    1.032561
     16          8           0       -1.630021   -1.523836    1.193795
     17          6           0       -3.579047    0.658426   -0.874125
     18          1           0        3.607075    1.505578    0.393495
     19          1           0        5.127879    0.652290    0.076572
     20          1           0        4.148911    0.227025    1.489116
     21          1           0        3.320861   -0.189405   -1.449820
     22          1           0        3.878721   -1.469996   -0.386430
     23          1           0        1.981407   -1.148454    1.119916
     24          1           0        1.386335    0.969351   -1.965810
     25          1           0       -0.052806    2.969532   -1.949508
     26          1           0       -1.227239    3.650260    0.136740
     27          1           0       -0.927583    2.306043    2.209138
     28          1           0        0.538258    0.315743    2.193121
     29          1           0        1.110117   -1.519002   -1.641495
     30          1           0       -0.074790   -3.380045   -0.777218
     31          1           0        0.425252   -2.908069    0.848573
     32          1           0       -4.093325    0.203964   -1.726751
     33          1           0       -4.316684    1.005075   -0.147393
     34          1           0       -3.006855    1.516267   -1.242520
 ---------------------------------------------------------------------

 SCF Done:  E(UB3LYP) =  -745.320184308     A.U. after   33 cycles
 SCF Done:  E(UB3LYP) =  -745.320184308     a.u. after    1 cycles

 The electronic state is 2-A.
 Alpha  occ. eigenvalues --  -19.10287 -14.24970 -14.20836 -14.20491 -10.15765
 Alpha  occ. eigenvalues --  -10.13288 -10.11752 -10.10736 -10.07629 -10.07472
 Alpha  occ. eigenvalues --  -10.07112 -10.07105 -10.07041 -10.06957 -10.06870
 Alpha  occ. eigenvalues --  -10.06842 -10.06416  -1.05031  -0.83119  -0.82080
 Alpha  occ. eigenvalues --   -0.76384  -0.75187  -0.69271  -0.64635  -0.64348
 Alpha  occ. eigenvalues --   -0.63748  -0.61490  -0.56155  -0.51640  -0.50600
 Alpha  occ. eigenvalues --   -0.50298  -0.48863  -0.47206  -0.42370  -0.40332
 Alpha  occ. eigenvalues --   -0.39878  -0.37532  -0.37209  -0.35718  -0.34765
 Alpha  occ. eigenvalues --   -0.34343  -0.33635  -0.32307  -0.32029  -0.31802
 Alpha  occ. eigenvalues --   -0.31102  -0.29410  -0.29217  -0.28177  -0.26965
 Alpha  occ. eigenvalues --   -0.26260  -0.25364  -0.24804  -0.23848  -0.23286
 Alpha  occ. eigenvalues --   -0.23168  -0.21460  -0.19134  -0.18292  -0.15257
 Alpha  occ. eigenvalues --   -0.14877  -0.13512   0.04579
 Alpha virt. eigenvalues --    0.06585   0.06696   0.07517   0.07669   0.08456
 Alpha virt. eigenvalues --    0.08630   0.08820   0.09049   0.09488   0.09569
 Alpha virt. eigenvalues --    0.10678   0.11344   0.11677   0.11975   0.12628

  Beta  occ. eigenvalues --  -19.10183 -14.24868 -14.20811 -14.20484 -10.15622
  Beta  occ. eigenvalues --  -10.13283 -10.11753 -10.10733 -10.07608 -10.07440
  Beta  occ. eigenvalues --  -10.07099 -10.07095 -10.07037 -10.06938 -10.06846
  Beta  occ. eigenvalues --  -10.06801 -10.06402  -1.04858  -0.83029  -0.82015
  Beta  occ. eigenvalues --   -0.76231  -0.75119  -0.69227  -0.64581  -0.64293
  Beta  occ. eigenvalues --   -0.63691  -0.61394  -0.56072  -0.51572  -0.50524
  Beta  occ. eigenvalues --   -0.50251  -0.48741  -0.47144  -0.42321  -0.40248
  Beta  occ. eigenvalues --   -0.39575  -0.37380  -0.37166  -0.35639  -0.34708
  Beta  occ. eigenvalues --   -0.34303  -0.33559  -0.32235  -0.31968  -0.31745
  Beta  occ. eigenvalues --   -0.31031  -0.29346  -0.29180  -0.28137  -0.26895
  Beta  occ. eigenvalues --   -0.26195  -0.25310  -0.24753  -0.23778  -0.23194
  Beta  occ. eigenvalues --   -0.23118  -0.21170  -0.19061  -0.17814  -0.15179
  Beta  occ. eigenvalues --   -0.14674  -0.13394
  Beta virt. eigenvalues --    0.06648   0.07318   0.07635   0.07970   0.08113
  Beta virt. eigenvalues --    0.08607   0.08850   0.09240   0.09559   0.09742
  Beta virt. eigenvalues --    0.09998   0.10841   0.11534   0.11995   0.12277

 Mulliken charges and spin densities:
               1          2
     1  C    0.084492  -0.754412
     2  C   -0.289502   0.446672
     3  C    0.665473  -2.059104
     4  C    0.359901   1.000755
     5  C   -0.948109   0.453440
     6  C    0.737081  -1.176717
     7  C    1.084544  -1.329722
     8  C   -0.244719  -0.176369
     9  C   -0.973066   0.920395
    10  N    0.096275   0.076575
    11  C   -0.882841   0.011355
    12  C   -0.053094  -0.069181
    13  N   -0.048859   0.101576
    14  C   -0.261005   0.970214
    15  N   -0.273176   0.113841
    16  O    0.227693   0.017559
    17  C    1.150632  -1.858066
    18  H    0.094716   0.056454
    19  H   -0.197554   0.339248
    20  H    0.029347   0.093416
    21  H   -0.153786   0.286244
    22  H   -0.049031   0.216046
    23  H    0.033085   0.117373
    24  H   -0.092263   0.254597
    25  H   -0.720396   0.909901
    26  H   -0.355106   0.517780
    27  H   -0.091997   0.262098
    28  H    0.073736   0.104517
    29  H    0.046683   0.202463
    30  H   -0.285069   0.496149
    31  H    0.165308   0.017692
    32  H   -0.033051   0.195172
    33  H    0.016212   0.137369
    34  H    0.087445   0.104670
 Sum of Mulliken charges =  -1.00000   1.00000

 Dipole moment (field-independent basis, Debye):
    X=             -0.1046    Y=             -2.6300    Z=              2.7050  Tot=              3.7743
 Quadrupole moment (field-independent basis, Debye-Ang):
   XX=           -159.6287   YY=           -153.7963   ZZ=           -136.8544
   XY=              4.9700   XZ=              4.6986   YZ=              2.2806

 Summary of Natural Population Analysis:

                                       Natural Population
                Natural  -----------------------------------------------
    Atom  No    Charge         Core      Valence    Rydberg      Total
 -----------------------------------------------------------------------
      C    1   -0.28603      0.99966     2.28229    0.00408     3.28603
      C    2   -0.18701      0.99962     2.17834    0.00905     3.18701
      C    3   -0.01569      0.99954     2.00206    0.01409     3.01569
      C    4   -0.02255      0.99948     2.00996    0.01310     3.02255
      C    5   -0.09743      0.99949     2.08688    0.01106     3.09743
      C    6   -0.09876      0.99956     2.08806    0.01114     3.09876
      C    7   -0.10235      0.99956     2.09195    0.01084     3.10235
      C    8   -0.09509      0.99956     2.08492    0.01062     3.09509
      C    9   -0.10129      0.99950     2.09210    0.00969     3.10129
      N   10   -0.32793      0.99975     2.81647    0.01171     3.82793
      C   11   -0.11513      0.99957     2.10381    0.01175     3.11513
      C   12    0.29827      0.99962     1.68196    0.02015     2.70173
      N   13   -0.27469      0.99966     2.76557    0.00947     3.77469
      C   14    0.17615      0.99966     1.80571    0.01848     2.82385
      N   15   -0.08841      0.99966     2.57697    0.01177     3.58841
      O   16   -0.16621      0.99985     3.15862    0.00774     4.16621
      C   17   -0.30454      0.99961     2.29943    0.00550     3.30454
      H   18    0.10312      0.00000     0.39582    0.00105     0.39688
      H   19    0.09783      0.00000     0.40133    0.00085     0.40217
      H   20    0.09374      0.00000     0.40525    0.00101     0.40626
      H   21    0.09537      0.00000     0.40324    0.00139     0.40463
      H   22    0.10053      0.00000     0.39811    0.00137     0.39947
      H   23    0.09189      0.00000     0.40632    0.00180     0.40811
      H   24    0.09975      0.00000     0.39865    0.00160     0.40025
      H   25    0.10197      0.00000     0.39641    0.00162     0.39803
      H   26    0.10159      0.00000     0.39701    0.00141     0.39841
      H   27    0.10078      0.00000     0.39830    0.00093     0.39922
      H   28    0.09981      0.00000     0.39872    0.00147     0.40019
      H   29    0.17810      0.00000     0.31893    0.00297     0.32190
      H   30    0.11042      0.00000     0.38820    0.00138     0.38958
      H   31    0.10179      0.00000     0.39692    0.00129     0.39821
      H   32    0.10679      0.00000     0.39235    0.00086     0.39321
      H   33    0.10823      0.00000     0.39080    0.00097     0.39177
      H   34    0.11699      0.00000     0.38163    0.00139     0.38301
 =======================================================================
   * Total *    0.00000     16.99334    44.79306    0.21360    62.00000

 Normal termination of Gaussian 16 at Fri Dec 11 14:09:24 2020.
