 Gaussian 16, Revision A.03,

 -----------------------------------------------------------
 # opt freq B3LYP/6-31G(d) empiricaldispersion=gd3bj scf=xqc
 -----------------------------------------------------------

 ------------------------------
 CID_78969857_JID_6848_neutraal
 ------------------------------
 Symbolic Z-matrix:
 Charge =  0 Multiplicity = 1

 SCF Done:  E(RB3LYP) =  -709.457040328     A.U. after   16 cycles
 SCF Done:  E(RB3LYP) =  -709.480624457     A.U. after   13 cycles
 SCF Done:  E(RB3LYP) =  -709.482665199     A.U. after   13 cycles
 SCF Done:  E(RB3LYP) =  -709.482857906     A.U. after   13 cycles
 SCF Done:  E(RB3LYP) =  -709.483262300     A.U. after   12 cycles
 SCF Done:  E(RB3LYP) =  -709.483330323     A.U. after   11 cycles
 SCF Done:  E(RB3LYP) =  -709.483353120     A.U. after   11 cycles
 SCF Done:  E(RB3LYP) =  -709.483358689     A.U. after   10 cycles
 SCF Done:  E(RB3LYP) =  -709.483359286     A.U. after    9 cycles
 SCF Done:  E(RB3LYP) =  -709.483360185     A.U. after    8 cycles
 SCF Done:  E(RB3LYP) =  -709.483360264     A.U. after    8 cycles
 SCF Done:  E(RB3LYP) =  -709.483360284     A.U. after    7 cycles
 Optimization completed.
    -- Stationary point found.
 Normal termination of Gaussian 16 at Fri Dec 11 00:53:25 2020.

 --------------------------------------------------------------------
 #N Geom=AllCheck Guess=TCheck SCRF=Check GenChk RB3LYP/6-31G(d) Freq
 --------------------------------------------------------------------

 Structure from the checkpoint file:  "JID_6848.chk"
 ------------------------------
 CID_78969857_JID_6848_neutraal
 ------------------------------
 Charge =  0 Multiplicity = 1

 SCF Done:  E(RB3LYP) =  -709.483360284     A.U. after    1 cycles

  Exact polarizability: 161.313   0.562 137.150  -6.139  -4.580 125.767
 Approx polarizability: 200.614   6.464 204.146 -17.317 -19.757 194.833

                      1                      2                      3
                      A                      A                      A
 Frequencies --     36.5694                47.1377                60.0656
 Red. masses --      4.0880                 3.8526                 3.6991
 Frc consts  --      0.0032                 0.0050                 0.0079
 IR Inten    --      0.6167                 3.3228                 1.5049

                      4                      5                      6
                      A                      A                      A
 Frequencies --     73.2015                83.5187                95.7117
 Red. masses --      4.0040                 2.9426                 4.4630
 Frc consts  --      0.0126                 0.0121                 0.0241
 IR Inten    --      5.1513                 0.1634                 2.5738

                      7                      8                      9
                      A                      A                      A
 Frequencies --    138.5173               151.0399               164.9446
 Red. masses --      2.5737                 6.1286                 3.1743
 Frc consts  --      0.0291                 0.0824                 0.0509
 IR Inten    --      3.6968                 2.9392                 2.1873

                     10                     11                     12
                      A                      A                      A
 Frequencies --    218.3958               222.9173               240.4984
 Red. masses --      2.1381                 1.7241                 1.8389
 Frc consts  --      0.0601                 0.0505                 0.0627
 IR Inten    --      1.4005                 2.5128                 1.4638

                     13                     14                     15
                      A                      A                      A
 Frequencies --    265.3126               281.5369               290.4727
 Red. masses --      1.9656                 1.5021                 2.7467
 Frc consts  --      0.0815                 0.0702                 0.1365
 IR Inten    --      1.7295                 2.6773                 1.8873

                     16                     17                     18
                      A                      A                      A
 Frequencies --    323.5803               366.4848               389.4109
 Red. masses --      2.2101                 2.4329                 2.7937
 Frc consts  --      0.1363                 0.1925                 0.2496
 IR Inten    --      4.0592                 6.3811                 0.4502

                     19                     20                     21
                      A                      A                      A
 Frequencies --    409.7877               432.4510               447.2228
 Red. masses --      2.3382                 2.4014                 2.7897
 Frc consts  --      0.2313                 0.2646                 0.3287
 IR Inten    --      3.2508                10.1548                 0.3110

                     22                     23                     24
                      A                      A                      A
 Frequencies --    509.5946               520.7488               542.6551
 Red. masses --      3.3655                 3.6159                 3.2496
 Frc consts  --      0.5149                 0.5777                 0.5638
 IR Inten    --      3.3964                 3.6495                 6.5831

                     25                     26                     27
                      A                      A                      A
 Frequencies --    558.8958               589.2368               614.2904
 Red. masses --      4.8821                 2.1209                 4.9123
 Frc consts  --      0.8985                 0.4339                 1.0921
 IR Inten    --      1.6235                 1.7338                14.5478

                     28                     29                     30
                      A                      A                      A
 Frequencies --    739.7322               793.7769               815.8743
 Red. masses --      3.7670                 5.9733                 1.2528
 Frc consts  --      1.2145                 2.2175                 0.4913
 IR Inten    --      3.6896                 8.4272                 5.7869

                     31                     32                     33
                      A                      A                      A
 Frequencies --    822.9398               831.0207               835.6389
 Red. masses --      1.5260                 3.0176                 3.1399
 Frc consts  --      0.6089                 1.2278                 1.2918
 IR Inten    --      0.0982                 2.4881                 1.4457

                     34                     35                     36
                      A                      A                      A
 Frequencies --    866.2333               879.5731               908.6570
 Red. masses --      1.5905                 1.9762                 2.3606
 Frc consts  --      0.7031                 0.9008                 1.1483
 IR Inten    --     12.1775                 0.6697                 3.2984

                     37                     38                     39
                      A                      A                      A
 Frequencies --    916.9331               938.8274               975.9569
 Red. masses --      2.3529                 1.7148                 1.3410
 Frc consts  --      1.1655                 0.8905                 0.7526
 IR Inten    --      2.9423                 7.1354                 4.5371

                     40                     41                     42
                      A                      A                      A
 Frequencies --    982.6672              1030.8404              1046.4859
 Red. masses --      1.9508                 2.4695                 2.3077
 Frc consts  --      1.1099                 1.5461                 1.4890
 IR Inten    --      9.2981                10.1461                33.3103

                     43                     44                     45
                      A                      A                      A
 Frequencies --   1077.0044              1083.4081              1089.6450
 Red. masses --      2.3089                 1.6704                 2.5041
 Frc consts  --      1.5779                 1.1552                 1.7517
 IR Inten    --      6.7358                 0.9041                 7.7952

                     46                     47                     48
                      A                      A                      A
 Frequencies --   1119.3016              1132.0188              1140.8283
 Red. masses --      2.0838                 1.8359                 1.7221
 Frc consts  --      1.5382                 1.3861                 1.3205
 IR Inten    --     22.2125                10.1548                 3.8478

                     49                     50                     51
                      A                      A                      A
 Frequencies --   1147.3561              1170.4880              1198.9570
 Red. masses --      2.1723                 1.9304                 1.3417
 Frc consts  --      1.6849                 1.5583                 1.1363
 IR Inten    --     26.7137                61.1122                 1.5105

                     52                     53                     54
                      A                      A                      A
 Frequencies --   1221.2880              1248.7393              1260.5332
 Red. masses --      2.3798                 2.1376                 2.3095
 Frc consts  --      2.0913                 1.9639                 2.1621
 IR Inten    --     18.9157                62.6824                45.5068

                     55                     56                     57
                      A                      A                      A
 Frequencies --   1281.9104              1300.0221              1331.0912
 Red. masses --      1.8823                 1.2415                 1.3339
 Frc consts  --      1.8224                 1.2362                 1.3924
 IR Inten    --    144.3841                 7.2843                17.7731

                     58                     59                     60
                      A                      A                      A
 Frequencies --   1334.9607              1343.9513              1356.4895
 Red. masses --      1.2296                 1.4128                 1.2053
 Frc consts  --      1.2910                 1.5035                 1.3067
 IR Inten    --     30.4286                39.3157                11.1807

                     61                     62                     63
                      A                      A                      A
 Frequencies --   1373.9809              1389.5138              1396.0014
 Red. masses --      1.2994                 1.3804                 1.4131
 Frc consts  --      1.4453                 1.5703                 1.6225
 IR Inten    --      2.2474                13.9655                25.1404

                     64                     65                     66
                      A                      A                      A
 Frequencies --   1399.8802              1407.2509              1418.0447
 Red. masses --      1.4509                 1.4292                 1.2844
 Frc consts  --      1.6752                 1.6675                 1.5217
 IR Inten    --     15.8169                 4.5163                15.0664

                     67                     68                     69
                      A                      A                      A
 Frequencies --   1419.8600              1434.2513              1441.0060
 Red. masses --      1.3066                 1.3135                 1.3926
 Frc consts  --      1.5520                 1.5920                 1.7038
 IR Inten    --     19.5534                20.1895                36.5672

                     70                     71                     72
                      A                      A                      A
 Frequencies --   1449.6808              1461.8169              1501.6984
 Red. masses --      1.2501                 1.7397                 1.0861
 Frc consts  --      1.5479                 2.1903                 1.4430
 IR Inten    --     15.7139               185.0983                 5.7428

                     73                     74                     75
                      A                      A                      A
 Frequencies --   1505.2274              1509.5533              1513.0884
 Red. masses --      1.0855                 1.0980                 1.0842
 Frc consts  --      1.4491                 1.4742                 1.4625
 IR Inten    --      4.0442                 8.7116                 1.0641

                     76                     77                     78
                      A                      A                      A
 Frequencies --   1516.9273              1518.9199              1527.1406
 Red. masses --      1.0759                 1.0909                 1.0808
 Frc consts  --      1.4587                 1.4829                 1.4850
 IR Inten    --      1.4444                20.1695                 8.2107

                     79                     80                     81
                      A                      A                      A
 Frequencies --   1529.4616              1533.7952              1539.2578
 Red. masses --      1.0812                 1.1382                 1.0448
 Frc consts  --      1.4902                 1.5777                 1.4586
 IR Inten    --     11.3170                44.6672                16.8698

                     82                     83                     84
                      A                      A                      A
 Frequencies --   1545.1390              1736.8433              2362.2723
 Red. masses --      1.0699                 9.9226                12.6457
 Frc consts  --      1.5049                17.6359                41.5770
 IR Inten    --     12.3770               233.4134                14.3021

                     85                     86                     87
                      A                      A                      A
 Frequencies --   3022.9298              3035.2043              3038.4794
 Red. masses --      1.0686                 1.0694                 1.0677
 Frc consts  --      5.7535                 5.8047                 5.8080
 IR Inten    --     23.6729                24.2076                10.7841

                     88                     89                     90
                      A                      A                      A
 Frequencies --   3043.8528              3045.7309              3053.8171
 Red. masses --      1.0690                 1.0626                 1.0615
 Frc consts  --      5.8353                 5.8075                 5.8325
 IR Inten    --     55.0586                27.0950                25.0642

                     91                     92                     93
                      A                      A                      A
 Frequencies --   3057.2548              3060.3512              3071.7846
 Red. masses --      1.0807                 1.0378                 1.0362
 Frc consts  --      5.9512                 5.7267                 5.7606
 IR Inten    --      9.8154                23.8715                14.6941

                     94                     95                     96
                      A                      A                      A
 Frequencies --   3072.6966              3080.3371              3085.1657
 Red. masses --      1.0693                 1.0936                 1.1033
 Frc consts  --      5.9485                 6.1135                 6.1873
 IR Inten    --     17.6701                54.7055                48.8311

                     97                     98                     99
                      A                      A                      A
 Frequencies --   3093.6100              3101.0819              3125.4982
 Red. masses --      1.1008                 1.1036                 1.1029
 Frc consts  --      6.2069                 6.2532                 6.3479
 IR Inten    --     20.4839                51.7483                34.3153

                    100                    101                    102
                      A                      A                      A
 Frequencies --   3143.3763              3156.6432              3158.1044
 Red. masses --      1.1036                 1.1011                 1.0936
 Frc consts  --      6.4248                 6.4645                 6.4266
 IR Inten    --     18.7078                12.7010                 7.8523

                    103                    104                    105
                      A                      A                      A
 Frequencies --   3158.9025              3159.8588              3166.4618
 Red. masses --      1.1008                 1.0975                 1.0937
 Frc consts  --      6.4720                 6.4562                 6.4608
 IR Inten    --      8.1575                25.2983                 4.7973

 - Thermochemistry -
 -------------------
 Temperature   298.150 Kelvin.  Pressure   1.00000 Atm.
 Atom     1 has atomic number  6 and mass  12.00000

 Molecular mass:   223.16846 amu.
 Principal axes and moments of inertia in atomic units:
                           1         2         3
     Eigenvalues --  2292.185305473.129506213.31346
           X            0.99955  -0.02697   0.01297
           Y            0.02638   0.99870   0.04358
           Z           -0.01413  -0.04322   0.99897
 This molecule is an asymmetric top.
 Rotational symmetry number  1.
 Warning -- assumption of classical behavior for rotation
           may cause significant error
 Rotational temperatures (Kelvin)      0.03779     0.01583     0.01394
 Rotational constants (GHZ):           0.78735     0.32975     0.29046
 Zero-point vibrational energy     865253.6 (Joules/Mol)
                                  206.80057 (Kcal/Mol)
 Warning -- explicit consideration of  27 degrees of freedom as
           vibrations may cause significant error
 Vibrational temperatures:     52.62    67.82    86.42   105.32   120.16
          (Kelvin)            137.71   199.30   217.31   237.32   314.22
                              320.73   346.02   381.73   405.07   417.93
                              465.56   527.29   560.28   589.59   622.20
                              643.45   733.19   749.24   780.76   804.13
                              847.78   883.83  1064.31  1142.07  1173.86
                             1184.03  1195.65  1202.30  1246.32  1265.51
                             1307.35  1319.26  1350.76  1404.18  1413.84
                             1483.15  1505.66  1549.57  1558.78  1567.76
                             1610.43  1628.72  1641.40  1650.79  1684.07
                             1725.03  1757.16  1796.66  1813.63  1844.38
                             1870.44  1915.14  1920.71  1933.65  1951.69
                             1976.85  1999.20  2008.53  2014.12  2024.72
                             2040.25  2042.86  2063.57  2073.29  2085.77
                             2103.23  2160.61  2165.69  2171.91  2177.00
                             2182.52  2185.39  2197.21  2200.55  2206.79
                             2214.65  2223.11  2498.93  3398.78  4349.32
                             4366.98  4371.69  4379.43  4382.13  4393.76
                             4398.71  4403.16  4419.61  4420.93  4431.92
                             4438.87  4451.01  4461.77  4496.89  4522.62
                             4541.71  4543.81  4544.96  4546.33  4555.83

 Zero-point correction=                           0.329558 (Hartree/Particle)
 Thermal correction to Energy=                    0.346359
 Thermal correction to Enthalpy=                  0.347303
 Thermal correction to Gibbs Free Energy=         0.284626
 Sum of electronic and zero-point Energies=           -709.153803
 Sum of electronic and thermal Energies=              -709.137001
 Sum of electronic and thermal Enthalpies=            -709.136057
 Sum of electronic and thermal Free Energies=         -709.198734

                     E (Thermal)             CV                S
                      KCal/Mol        Cal/Mol-Kelvin    Cal/Mol-Kelvin
 Total                  217.344             63.048            131.916
 Electronic               0.000              0.000              0.000
 Translational            0.889              2.981             42.111
 Rotational               0.889              2.981             32.722
 Vibrational            215.566             57.086             57.083
 Vibration     1          0.594              1.982              5.437
 Vibration     2          0.595              1.979              4.934
 Vibration     3          0.597              1.973              4.455
 Vibration     4          0.599              1.967              4.065
 Vibration     5          0.600              1.961              3.806
 Vibration     6          0.603              1.952              3.540
 Vibration     7          0.614              1.915              2.824
 Vibration     8          0.618              1.902              2.659
 Vibration     9          0.623              1.886              2.492
 Vibration    10          0.646              1.813              1.972
 Vibration    11          0.649              1.806              1.935
 Vibration    12          0.658              1.778              1.799
 Vibration    13          0.671              1.737              1.627
 Vibration    14          0.681              1.708              1.524
 Vibration    15          0.686              1.691              1.471
 Vibration    16          0.708              1.628              1.292
 Vibration    17          0.739              1.541              1.094
 Vibration    18          0.757              1.493              1.002
 Vibration    19          0.774              1.449              0.927
 Vibration    20          0.793              1.400              0.851
 Vibration    21          0.806              1.367              0.804
 Vibration    22          0.865              1.229              0.635
 Vibration    23          0.876              1.204              0.608
 Vibration    24          0.898              1.156              0.560
 Vibration    25          0.914              1.120              0.526
 Vibration    26          0.947              1.055              0.469
 Vibration    27          0.974              1.002              0.426

 Optimization completed.
    -- Stationary point found.
 Normal termination of Gaussian 16 at Fri Dec 11 01:07:40 2020.

 ----------------------------------------------------------------------
 # B3LYP/6-311++G(d,p) empiricaldispersion=gd3bj scf=xqc pop=npa geom=c
 heck
 ----------------------------------------------------------------------

 --------------------------------------
 CID_78969857_JID_6848_Energie_neutraal
 --------------------------------------
 Structure from the checkpoint file:  "JID_6848.chk"
 Charge =  0 Multiplicity = 1

 SCF Done:  E(RB3LYP) =  -709.679841359     A.U. after   14 cycles
 Normal termination of Gaussian 16 at Fri Dec 11 01:13:41 2020.

 ----------------------------------------------------------------------
 # B3LYP/6-311++G(d,p) empiricaldispersion=gd3bj scf=xqc pop=npa geom=c
 heck
 ----------------------------------------------------------------------

 ------------------------------------
 CID_78969857_JID_6848_Energie_kation
 ------------------------------------
 Structure from the checkpoint file:  "JID_6848.chk"
 Charge =  1 Multiplicity = 2

 SCF Done:  E(UB3LYP) =  -709.374709159     A.U. after   22 cycles
 Normal termination of Gaussian 16 at Fri Dec 11 01:26:28 2020.
 Gaussian 16:  ES64L-G16RevA.03 25-Dec-2016

 ----------------------------------------------------------------------
 # B3LYP/6-311++G(d,p) empiricaldispersion=gd3bj scf=xqc pop=npa geom=c
 heck
 ----------------------------------------------------------------------

 -----------------------------------
 CID_78969857_JID_6848_Energie_anion
 -----------------------------------
 Structure from the checkpoint file:  "JID_6848.chk"
 Charge = -1 Multiplicity = 2

                         Standard orientation:
 ---------------------------------------------------------------------
 Center     Atomic      Atomic             Coordinates (Angstroms)
 Number     Number       Type             X           Y           Z
 ---------------------------------------------------------------------
      1          6           0       -0.065170    3.312857    0.459319
      2          6           0       -1.124165    2.273424    0.100195
      3          7           0       -0.646887    0.901908    0.324689
      4          6           0       -1.646115   -0.052989    0.788901
      5          6           0       -2.812821   -0.265376   -0.219976
      6          6           0       -2.333106   -0.810970   -1.577153
      7          6           0       -3.796478   -1.165654    0.392771
      8          7           0       -4.546276   -1.893409    0.899013
      9          6           0        0.369184    0.471978   -0.540997
     10          8           0        0.643254    1.080586   -1.573953
     11          7           0        1.023704   -0.687461   -0.156338
     12          6           0        1.414660   -0.903990    1.244490
     13          6           0        2.804277   -0.316030    1.527706
     14          6           0        3.850168   -0.851323    0.541225
     15          6           0        3.390161   -0.639923   -0.907335
     16          6           0        1.992013   -1.230082   -1.116320
     17          1           0        0.246504    3.199481    1.503200
     18          1           0       -0.466872    4.323008    0.324300
     19          1           0        0.809887    3.204477   -0.185458
     20          1           0       -2.001628    2.408243    0.741351
     21          1           0       -1.443901    2.407945   -0.940781
     22          1           0       -1.171883   -1.018412    0.964407
     23          1           0       -2.056302    0.295298    1.743113
     24          1           0       -3.313432    0.697720   -0.381917
     25          1           0       -1.797386   -1.755897   -1.444001
     26          1           0       -3.181302   -0.984841   -2.244973
     27          1           0       -1.657700   -0.093777   -2.049697
     28          1           0        1.414946   -1.985982    1.433402
     29          1           0        0.675180   -0.448574    1.901803
     30          1           0        3.090438   -0.544337    2.562024
     31          1           0        2.740190    0.777340    1.443024
     32          1           0        4.818779   -0.367775    0.713888
     33          1           0        3.997702   -1.926502    0.721763
     34          1           0        3.346708    0.430532   -1.140603
     35          1           0        4.095597   -1.101132   -1.609313
     36          1           0        1.622894   -1.021425   -2.120398
     37          1           0        2.016112   -2.318879   -0.971999
 ---------------------------------------------------------------------

 SCF Done:  E(UB3LYP) =  -709.669793018     A.U. after   30 cycles

 The electronic state is 2-A.
 Alpha  occ. eigenvalues --  -18.99604 -14.24400 -14.24202 -14.22742 -10.20094
 Alpha  occ. eigenvalues --  -10.13600 -10.13143 -10.12543 -10.11275 -10.11050
 Alpha  occ. eigenvalues --  -10.10726 -10.09003 -10.07665 -10.07589 -10.07494
 Alpha  occ. eigenvalues --  -10.06689  -0.96119  -0.85491  -0.83974  -0.82361
 Alpha  occ. eigenvalues --   -0.73121  -0.70762  -0.67241  -0.66314  -0.61973
 Alpha  occ. eigenvalues --   -0.58658  -0.56036  -0.54827  -0.53159  -0.49508
 Alpha  occ. eigenvalues --   -0.44998  -0.43866  -0.43062  -0.39705  -0.38982
 Alpha  occ. eigenvalues --   -0.38081  -0.37154  -0.36141  -0.35404  -0.34916
 Alpha  occ. eigenvalues --   -0.34207  -0.32695  -0.31656  -0.31297  -0.30531
 Alpha  occ. eigenvalues --   -0.29883  -0.29659  -0.29290  -0.28380  -0.27843
 Alpha  occ. eigenvalues --   -0.27710  -0.26441  -0.26155  -0.25137  -0.24676
 Alpha  occ. eigenvalues --   -0.24225  -0.23745  -0.23322  -0.18846  -0.15652
 Alpha  occ. eigenvalues --   -0.14421   0.03935
 Alpha virt. eigenvalues --    0.05670   0.06513   0.07135   0.07711   0.08095
 Alpha virt. eigenvalues --    0.08488   0.09564   0.09706   0.09800   0.10218
 Alpha virt. eigenvalues --    0.10557   0.10914   0.11205   0.11647   0.11837

  Beta  occ. eigenvalues --  -18.99595 -14.24402 -14.24206 -14.22734 -10.20086
  Beta  occ. eigenvalues --  -10.13584 -10.13122 -10.12542 -10.11258 -10.11023
  Beta  occ. eigenvalues --  -10.10711 -10.08982 -10.07643 -10.07567 -10.07485
  Beta  occ. eigenvalues --  -10.06665  -0.96105  -0.85478  -0.83963  -0.82345
  Beta  occ. eigenvalues --   -0.73090  -0.70730  -0.67208  -0.66279  -0.61932
  Beta  occ. eigenvalues --   -0.58618  -0.55987  -0.54783  -0.53104  -0.49459
  Beta  occ. eigenvalues --   -0.44953  -0.43828  -0.43032  -0.39666  -0.38942
  Beta  occ. eigenvalues --   -0.38049  -0.37119  -0.36107  -0.35377  -0.34885
  Beta  occ. eigenvalues --   -0.34184  -0.32667  -0.31619  -0.31275  -0.30499
  Beta  occ. eigenvalues --   -0.29848  -0.29626  -0.29254  -0.28349  -0.27803
  Beta  occ. eigenvalues --   -0.27686  -0.26409  -0.26125  -0.25109  -0.24654
  Beta  occ. eigenvalues --   -0.24198  -0.23707  -0.23287  -0.18833  -0.15631
  Beta  occ. eigenvalues --   -0.14410
  Beta virt. eigenvalues --    0.06051   0.06636   0.07029   0.07720   0.08271
  Beta virt. eigenvalues --    0.08467   0.09013   0.09753   0.09883   0.10037
  Beta virt. eigenvalues --    0.10487   0.10835   0.11245   0.11398   0.11941

 Mulliken charges and spin densities:
               1          2
     1  C    0.461293  -0.997811
     2  C    0.161296  -0.164559
     3  N    0.053172   0.268521
     4  C    0.133326  -1.077836
     5  C    0.210493   1.107305
     6  C   -0.087689  -0.615722
     7  C    0.020774  -0.695725
     8  N   -0.290972   0.018665
     9  C   -0.500791  -0.368301
    10  O   -0.259326   0.024016
    11  N    0.077088   0.110068
    12  C   -0.039329  -0.080162
    13  C   -0.245581  -0.004620
    14  C    0.770684  -1.360552
    15  C   -0.213455   0.044373
    16  C    0.308871  -0.453972
    17  H   -0.144036   0.285413
    18  H   -0.168210   0.317404
    19  H    0.071060   0.104298
    20  H   -0.359822   0.512634
    21  H    0.030815   0.145041
    22  H    0.143888   0.035247
    23  H   -0.138251   0.369101
    24  H   -0.194545   0.404820
    25  H    0.076410   0.098814
    26  H   -0.088006   0.277883
    27  H    0.142478   0.070190
    28  H   -0.168139   0.351793
    29  H   -0.112760   0.289714
    30  H   -0.587004   0.776195
    31  H    0.255321  -0.113764
    32  H   -0.376719   0.537278
    33  H    0.003707   0.134355
    34  H    0.156412   0.018110
    35  H   -0.112570   0.279043
    36  H    0.184091   0.003665
    37  H   -0.173973   0.349079
 Sum of Mulliken charges =  -1.00000   1.00000

 Dipole moment (field-independent basis, Debye):
    X=              0.8914    Y=              0.3006    Z=             -3.4735  Tot=              3.5987
 Quadrupole moment (field-independent basis, Debye-Ang):
   XX=           -187.8926   YY=           -149.6659   ZZ=           -143.8280
   XY=              1.4604   XZ=              0.1085   YZ=              3.7149

 Summary of Natural Population Analysis:

                                       Natural Population
                Natural  -----------------------------------------------
    Atom  No    Charge         Core      Valence    Rydberg      Total
 -----------------------------------------------------------------------
      C    1   -0.28900      0.99966     2.28383    0.00552     3.28900
      C    2   -0.08593      0.99962     2.07458    0.01174     3.08593
      N    3   -0.28404      0.99965     2.77049    0.01390     3.78404
      C    4   -0.07309      0.99958     2.06119    0.01232     3.07309
      C    5   -0.17021      0.99952     2.16146    0.00923     3.17021
      C    6   -0.28344      0.99964     2.27748    0.00632     3.28344
      C    7    0.16517      0.99965     1.81705    0.01813     2.83483
      N    8   -0.18519      0.99979     2.67401    0.01139     3.68519
      C    9    0.42431      0.99962     1.55187    0.02420     2.57569
      O   10   -0.33555      0.99988     3.33109    0.00457     4.33555
      N   11   -0.27546      0.99966     2.76488    0.01093     3.77546
      C   12   -0.08371      0.99960     2.07306    0.01105     3.08371
      C   13   -0.19593      0.99963     2.18780    0.00851     3.19593
      C   14   -0.19046      0.99963     2.18262    0.00822     3.19046
      C   15   -0.19888      0.99962     2.19091    0.00834     3.19888
      C   16   -0.08363      0.99961     2.07300    0.01102     3.08363
      H   17    0.09917      0.00000     0.39952    0.00130     0.40083
      H   18    0.09932      0.00000     0.39986    0.00082     0.40068
      H   19    0.10617      0.00000     0.39269    0.00115     0.39383
      H   20    0.09653      0.00000     0.40153    0.00194     0.40347
      H   21    0.09569      0.00000     0.40298    0.00132     0.40431
      H   22    0.10654      0.00000     0.39101    0.00245     0.39346
      H   23    0.10350      0.00000     0.39442    0.00208     0.39650
      H   24    0.12022      0.00000     0.37722    0.00257     0.37978
      H   25    0.10337      0.00000     0.39542    0.00121     0.39663
      H   26    0.10452      0.00000     0.39468    0.00080     0.39548
      H   27    0.11295      0.00000     0.38593    0.00113     0.38705
      H   28    0.09384      0.00000     0.40466    0.00150     0.40616
      H   29    0.10695      0.00000     0.39134    0.00171     0.39305
      H   30    0.10385      0.00000     0.39443    0.00172     0.39615
      H   31    0.09584      0.00000     0.40262    0.00154     0.40416
      H   32    0.10032      0.00000     0.39855    0.00113     0.39968
      H   33    0.09390      0.00000     0.40445    0.00164     0.40610
      H   34    0.10203      0.00000     0.39671    0.00127     0.39797
      H   35    0.09872      0.00000     0.40041    0.00087     0.40128
      H   36    0.10969      0.00000     0.38930    0.00101     0.39031
      H   37    0.09190      0.00000     0.40689    0.00121     0.40810
 =======================================================================
   * Total *   -0.00000     15.99434    44.79992    0.20574    61.00000

 Normal termination of Gaussian 16 at Fri Dec 11 01:43:50 2020.
