 Gaussian 16, Revision A.03,

 -----------------------------------------------------------
 # opt freq B3LYP/6-31G(d) empiricaldispersion=gd3bj scf=xqc
 -----------------------------------------------------------

 -------------------------------
 CID_145459712_JID_3407_neutraal
 -------------------------------
 Symbolic Z-matrix:
 Charge =  0 Multiplicity = 1

 SCF Done:  E(RB3LYP) =  -593.871506225     A.U. after   14 cycles
 SCF Done:  E(RB3LYP) =  -593.876024699     A.U. after   12 cycles
 SCF Done:  E(RB3LYP) =  -593.876872000     A.U. after   13 cycles
 SCF Done:  E(RB3LYP) =  -593.877566234     A.U. after   12 cycles
 SCF Done:  E(RB3LYP) =  -593.877855242     A.U. after   12 cycles
 SCF Done:  E(RB3LYP) =  -593.878168767     A.U. after   11 cycles
 SCF Done:  E(RB3LYP) =  -593.878367665     A.U. after   11 cycles
 SCF Done:  E(RB3LYP) =  -593.878809117     A.U. after   13 cycles
 SCF Done:  E(RB3LYP) =  -593.879014033     A.U. after   11 cycles
 SCF Done:  E(RB3LYP) =  -593.879179463     A.U. after   12 cycles
 SCF Done:  E(RB3LYP) =  -593.894039364     A.U. after    9 cycles
 SCF Done:  E(RB3LYP) =  -593.894043566     A.U. after    8 cycles
 SCF Done:  E(RB3LYP) =  -593.894048351     A.U. after    9 cycles
 SCF Done:  E(RB3LYP) =  -593.894049943     A.U. after    8 cycles
 SCF Done:  E(RB3LYP) =  -593.894050298     A.U. after    7 cycles
 SCF Done:  E(RB3LYP) =  -593.894050381     A.U. after    7 cycles
 Optimization completed.
    -- Stationary point found.
 Normal termination of Gaussian 16 at Wed Dec  9 23:24:17 2020.

 --------------------------------------------------------------------
 #N Geom=AllCheck Guess=TCheck SCRF=Check GenChk RB3LYP/6-31G(d) Freq
 --------------------------------------------------------------------

 Structure from the checkpoint file:  "JID_3407.chk"
 -------------------------------
 CID_145459712_JID_3407_neutraal
 -------------------------------
 Charge =  0 Multiplicity = 1

 SCF Done:  E(RB3LYP) =  -593.894050381     A.U. after    1 cycles

  Exact polarizability: 125.023  -0.762 124.512   5.203   5.778  96.917
 Approx polarizability: 158.781  -0.946 185.750   6.141  13.179 147.815

                      1                      2                      3
                      A                      A                      A
 Frequencies --     36.7642                60.9801                68.0216
 Red. masses --      4.6653                 3.0166                 4.0629
 Frc consts  --      0.0037                 0.0066                 0.0111
 IR Inten    --      0.7577                 0.3228                 0.9167

                      4                      5                      6
                      A                      A                      A
 Frequencies --     89.3066               126.1108               172.8416
 Red. masses --      4.4449                 3.0248                 2.6344
 Frc consts  --      0.0209                 0.0283                 0.0464
 IR Inten    --      2.8107                 1.4367                 3.7270

                      7                      8                      9
                      A                      A                      A
 Frequencies --    180.5928               229.3012               266.1644
 Red. masses --      1.3227                 2.6460                 1.8195
 Frc consts  --      0.0254                 0.0820                 0.0759
 IR Inten    --      0.1990                 2.0774                 0.9918

                     10                     11                     12
                      A                      A                      A
 Frequencies --    285.4839               312.1541               333.5164
 Red. masses --      1.9687                 2.5334                 2.4256
 Frc consts  --      0.0945                 0.1454                 0.1590
 IR Inten    --      1.6872                 4.9668                 5.6805

                     13                     14                     15
                      A                      A                      A
 Frequencies --    358.0103               389.2061               426.3091
 Red. masses --      2.1489                 3.3177                 2.0212
 Frc consts  --      0.1623                 0.2961                 0.2164
 IR Inten    --      6.2590                 3.6116                 1.4722

                     16                     17                     18
                      A                      A                      A
 Frequencies --    437.5237               448.4493               499.1783
 Red. masses --      1.9317                 3.1099                 2.7348
 Frc consts  --      0.2179                 0.3685                 0.4015
 IR Inten    --      2.4814                 1.3787                 1.0325

                     19                     20                     21
                      A                      A                      A
 Frequencies --    556.4671               614.9626               644.3726
 Red. masses --      3.2824                 1.9885                 2.3773
 Frc consts  --      0.5988                 0.4431                 0.5816
 IR Inten    --      2.6647                 9.8210                 0.5075

                     22                     23                     24
                      A                      A                      A
 Frequencies --    761.0753               813.3936               821.3282
 Red. masses --      1.7457                 2.6516                 2.1612
 Frc consts  --      0.5958                 1.0336                 0.8590
 IR Inten    --     14.0807                 2.3293                45.8131

                     25                     26                     27
                      A                      A                      A
 Frequencies --    847.4190               876.5703               882.9628
 Red. masses --      2.3964                 1.7348                 2.3680
 Frc consts  --      1.0139                 0.7854                 1.0877
 IR Inten    --      4.2842                 0.2340                 2.4176

                     28                     29                     30
                      A                      A                      A
 Frequencies --    896.7379               935.1688               999.8041
 Red. masses --      2.8594                 2.2473                 2.0412
 Frc consts  --      1.3548                 1.1580                 1.2022
 IR Inten    --     23.3493                 6.6759                28.0827

                     31                     32                     33
                      A                      A                      A
 Frequencies --   1027.6150              1049.6826              1058.8499
 Red. masses --      1.8687                 2.1038                 1.1871
 Frc consts  --      1.1626                 1.3658                 0.7842
 IR Inten    --     21.0417                 1.4507                55.9178

                     34                     35                     36
                      A                      A                      A
 Frequencies --   1066.8540              1093.7943              1096.0351
 Red. masses --      2.0424                 2.1572                 1.8404
 Frc consts  --      1.3696                 1.5206                 1.3026
 IR Inten    --      0.2572                16.2956                13.1676

                     37                     38                     39
                      A                      A                      A
 Frequencies --   1112.0561              1153.5293              1155.2214
 Red. masses --      1.7757                 1.9714                 3.1286
 Frc consts  --      1.2938                 1.5456                 2.4600
 IR Inten    --      4.2389                28.6242                66.7043

                     40                     41                     42
                      A                      A                      A
 Frequencies --   1158.1081              1167.9197              1185.0229
 Red. masses --      1.7511                 1.8388                 2.6221
 Frc consts  --      1.3837                 1.4778                 2.1694
 IR Inten    --      7.2685                 4.0316                56.0934

                     43                     44                     45
                      A                      A                      A
 Frequencies --   1214.0118              1245.8068              1250.8579
 Red. masses --      1.9244                 1.2183                 1.1955
 Frc consts  --      1.6710                 1.1141                 1.1021
 IR Inten    --     69.9828                39.2944                51.1362

                     46                     47                     48
                      A                      A                      A
 Frequencies --   1272.1107              1307.6298              1319.1825
 Red. masses --      1.3560                 1.6054                 1.5114
 Frc consts  --      1.2929                 1.6174                 1.5497
 IR Inten    --     13.5548                 4.7637                17.4319

                     49                     50                     51
                      A                      A                      A
 Frequencies --   1327.2209              1343.6326              1353.2372
 Red. masses --      1.4588                 1.3911                 1.2158
 Frc consts  --      1.5140                 1.4797                 1.3118
 IR Inten    --     16.0185                24.2726                 0.9040

                     52                     53                     54
                      A                      A                      A
 Frequencies --   1380.8002              1394.8324              1400.8155
 Red. masses --      1.3276                 1.5132                 1.2998
 Frc consts  --      1.4914                 1.7345                 1.5028
 IR Inten    --      6.6023                26.6174                21.2786

                     55                     56                     57
                      A                      A                      A
 Frequencies --   1414.1979              1428.8712              1437.7097
 Red. masses --      1.3532                 1.4545                 1.8654
 Frc consts  --      1.5945                 1.7496                 2.2718
 IR Inten    --     11.4103                20.7180                66.7400

                     58                     59                     60
                      A                      A                      A
 Frequencies --   1445.3027              1455.4043              1458.8292
 Red. masses --      1.3686                 1.3889                 1.2470
 Frc consts  --      1.6844                 1.7334                 1.5636
 IR Inten    --      7.7891                 1.2306                 6.8859

                     61                     62                     63
                      A                      A                      A
 Frequencies --   1479.2234              1508.9588              1511.9562
 Red. masses --      1.1835                 1.0785                 1.0842
 Frc consts  --      1.5258                 1.4469                 1.4603
 IR Inten    --      7.9688                 4.4877                 5.8978

                     64                     65                     66
                      A                      A                      A
 Frequencies --   1513.4569              1519.0985              1521.8779
 Red. masses --      1.0892                 1.0831                 1.1070
 Frc consts  --      1.4699                 1.4726                 1.5106
 IR Inten    --      0.5057                 4.3402                 3.9528

                     67                     68                     69
                      A                      A                      A
 Frequencies --   1522.1778              1526.5170              1538.6595
 Red. masses --      1.0690                 1.1062                 1.1062
 Frc consts  --      1.4594                 1.5187                 1.5430
 IR Inten    --     11.5844                 6.7059                 8.5762

                     70                     71                     72
                      A                      A                      A
 Frequencies --   1543.7030              1705.1229              2932.6500
 Red. masses --      1.0688                 6.2231                 1.0730
 Frc consts  --      1.5006                10.6603                 5.4372
 IR Inten    --      5.3761               260.0987                30.3557

                     73                     74                     75
                      A                      A                      A
 Frequencies --   2936.9194              2947.8509              2989.8554
 Red. masses --      1.0729                 1.0724                 1.0703
 Frc consts  --      5.4527                 5.4908                 5.6371
 IR Inten    --     19.9104               154.7949                40.8277

                     76                     77                     78
                      A                      A                      A
 Frequencies --   3001.8464              3003.5989              3042.4131
 Red. masses --      1.0536                 1.0699                 1.0654
 Frc consts  --      5.5940                 5.6870                 5.8104
 IR Inten    --     31.4330                91.7049                25.4233

                     79                     80                     81
                      A                      A                      A
 Frequencies --   3053.6069              3073.4818              3085.1399
 Red. masses --      1.0652                 1.0977                 1.0874
 Frc consts  --      5.8521                 6.1093                 6.0983
 IR Inten    --     57.6541                 8.6021                29.9726

                     82                     83                     84
                      A                      A                      A
 Frequencies --   3087.7265              3092.9794              3098.8495
 Red. masses --      1.0828                 1.0929                 1.0897
 Frc consts  --      6.0826                 6.1600                 6.1656
 IR Inten    --     35.7755                34.1691                30.1536

                     85                     86                     87
                      A                      A                      A
 Frequencies --   3112.2976              3120.6260              3129.3326
 Red. masses --      1.0935                 1.0946                 1.0955
 Frc consts  --      6.2408                 6.2806                 6.3208
 IR Inten    --     47.6724                38.4091                18.3881

                     88                     89                     90
                      A                      A                      A
 Frequencies --   3136.2990              3168.5027              3435.3775
 Red. masses --      1.1019                 1.0890                 1.0730
 Frc consts  --      6.3859                 6.4412                 7.4611
 IR Inten    --     15.7369                22.1320                 9.9211

 - Thermochemistry -
 -------------------
 Temperature   298.150 Kelvin.  Pressure   1.00000 Atm.
 Atom     1 has atomic number  6 and mass  12.00000

 Molecular mass:   185.15281 amu.
 Principal axes and moments of inertia in atomic units:
                           1         2         3
     Eigenvalues --  1339.462903610.994434310.71018
           X            0.99996  -0.00570   0.00700
           Y            0.00560   0.99988   0.01451
           Z           -0.00708  -0.01447   0.99987
 This molecule is an asymmetric top.
 Rotational symmetry number  1.
 Warning -- assumption of classical behavior for rotation
           may cause significant error
 Rotational temperatures (Kelvin)      0.06466     0.02399     0.02009
 Rotational constants (GHZ):           1.34736     0.49979     0.41866
 Zero-point vibrational energy     762532.2 (Joules/Mol)
                                  182.24956 (Kcal/Mol)
 Warning -- explicit consideration of  20 degrees of freedom as
           vibrations may cause significant error
 Vibrational temperatures:     52.90    87.74    97.87   128.49   181.45
          (Kelvin)            248.68   259.83   329.91   382.95   410.75
                              449.12   479.86   515.10   559.98   613.36
                              629.50   645.22   718.21   800.63   884.79
                              927.11  1095.02  1170.29  1181.71  1219.25
                             1261.19  1270.39  1290.21  1345.50  1438.50
                             1478.51  1510.26  1523.45  1534.96  1573.73
                             1576.95  1600.00  1659.67  1662.11  1666.26
                             1680.38  1704.98  1746.69  1792.44  1799.71
                             1830.28  1881.39  1898.01  1909.57  1933.19
                             1947.01  1986.66  2006.85  2015.46  2034.72
                             2055.83  2068.54  2079.47  2094.00  2098.93
                             2128.27  2171.06  2175.37  2177.53  2185.64
                             2189.64  2190.07  2196.32  2213.79  2221.04
                             2453.29  4219.43  4225.57  4241.30  4301.74
                             4318.99  4321.51  4377.35  4393.46  4422.05
                             4438.83  4442.55  4450.11  4458.55  4477.90
                             4489.88  4502.41  4512.43  4558.77  4942.74

 Zero-point correction=                           0.290433 (Hartree/Particle)
 Thermal correction to Energy=                    0.303842
 Thermal correction to Enthalpy=                  0.304786
 Thermal correction to Gibbs Free Energy=         0.249966
 Sum of electronic and zero-point Energies=           -593.603617
 Sum of electronic and thermal Energies=              -593.590209
 Sum of electronic and thermal Enthalpies=            -593.589264
 Sum of electronic and thermal Free Energies=         -593.644085

                     E (Thermal)             CV                S
                      KCal/Mol        Cal/Mol-Kelvin    Cal/Mol-Kelvin
 Total                  190.664             50.757            115.379
 Electronic               0.000              0.000              0.000
 Translational            0.889              2.981             41.554
 Rotational               0.889              2.981             31.411
 Vibrational            188.886             44.796             42.413
 Vibration     1          0.594              1.982              5.426
 Vibration     2          0.597              1.973              4.425
 Vibration     3          0.598              1.969              4.210
 Vibration     4          0.602              1.957              3.675
 Vibration     5          0.611              1.927              3.005
 Vibration     6          0.626              1.876              2.404
 Vibration     7          0.630              1.866              2.322
 Vibration     8          0.652              1.796              1.884
 Vibration     9          0.672              1.735              1.621
 Vibration    10          0.683              1.701              1.501
 Vibration    11          0.700              1.651              1.351
 Vibration    12          0.715              1.609              1.243
 Vibration    13          0.733              1.559              1.131
 Vibration    14          0.757              1.493              1.003
 Vibration    15          0.788              1.413              0.871
 Vibration    16          0.798              1.388              0.834
 Vibration    17          0.807              1.364              0.800
 Vibration    18          0.855              1.252              0.660
 Vibration    19          0.912              1.126              0.531
 Vibration    20          0.974              1.000              0.425

                           ! Non-Optimized Parameters !
 Normal termination of Gaussian 16 at Wed Dec  9 23:33:28 2020.

 ----------------------------------------------------------------------
 # B3LYP/6-311++G(d,p) empiricaldispersion=gd3bj scf=xqc pop=npa geom=c
 heck
 ----------------------------------------------------------------------

 ---------------------------------------
 CID_145459712_JID_3407_Energie_neutraal
 ---------------------------------------
 Structure from the checkpoint file:  "JID_3407.chk"
 Charge =  0 Multiplicity = 1

 SCF Done:  E(RB3LYP) =  -594.066244872     A.U. after   13 cycles
 Normal termination of Gaussian 16 at Wed Dec  9 23:36:48 2020.

 ----------------------------------------------------------------------
 # B3LYP/6-311++G(d,p) empiricaldispersion=gd3bj scf=xqc pop=npa geom=c
 heck
 ----------------------------------------------------------------------

 -------------------------------------
 CID_145459712_JID_3407_Energie_kation
 -------------------------------------
 Structure from the checkpoint file:  "JID_3407.chk"
 Charge =  1 Multiplicity = 2

 SCF Done:  E(UB3LYP) =  -593.777175150     A.U. after   21 cycles
 Normal termination of Gaussian 16 at Wed Dec  9 23:44:03 2020.
 Gaussian 16:  ES64L-G16RevA.03 25-Dec-2016

 ----------------------------------------------------------------------
 # B3LYP/6-311++G(d,p) empiricaldispersion=gd3bj scf=xqc pop=npa geom=c
 heck
 ----------------------------------------------------------------------

 ------------------------------------
 CID_145459712_JID_3407_Energie_anion
 ------------------------------------
 Structure from the checkpoint file:  "JID_3407.chk"
 Charge = -1 Multiplicity = 2

                         Standard orientation:
 ---------------------------------------------------------------------
 Center     Atomic      Atomic             Coordinates (Angstroms)
 Number     Number       Type             X           Y           Z
 ---------------------------------------------------------------------
      1          6           0        3.587437    0.011233    0.251958
      2          7           0        2.402223    0.088882   -0.578508
      3          6           0        1.730919   -1.160478   -0.920672
      4          6           0        1.138801   -1.900327    0.290300
      5          6           0        0.219241   -1.011781    1.135100
      6          7           0       -0.830183   -0.374008    0.347163
      7          6           0       -1.905504   -1.291065   -0.021905
      8          6           0       -2.916893   -0.568847   -0.907194
      9          8           0       -3.446237    0.576112   -0.259799
     10          6           0       -2.402993    1.476820    0.092868
     11          6           0       -1.377453    0.813929    1.004745
     12          6           0        1.687747    1.267732   -0.624773
     13          7           0        1.923378    2.393412   -0.057178
     14          1           0        4.125548   -0.911832    0.020306
     15          1           0        3.362237    0.019888    1.330289
     16          1           0        4.251323    0.854794    0.035253
     17          1           0        0.929555   -0.916667   -1.622103
     18          1           0        2.441985   -1.813884   -1.442383
     19          1           0        0.606143   -2.788374   -0.072933
     20          1           0        1.943247   -2.274500    0.936511
     21          1           0       -0.196988   -1.598450    1.976656
     22          1           0        0.819556   -0.211109    1.580094
     23          1           0       -2.422629   -1.687469    0.874155
     24          1           0       -1.489146   -2.143765   -0.570042
     25          1           0       -2.428179   -0.278711   -1.852528
     26          1           0       -3.765918   -1.220002   -1.134993
     27          1           0       -2.879436    2.322581    0.595980
     28          1           0       -1.898797    1.844342   -0.815649
     29          1           0       -1.859083    0.559834    1.968786
     30          1           0       -0.558448    1.515071    1.198170
     31          1           0        0.801154    1.188437   -1.253716
     32          1           0        2.752033    2.349619    0.543632
 ---------------------------------------------------------------------

 SCF Done:  E(UB3LYP) =  -594.054799897     A.U. after   29 cycles

 The electronic state is 2-A.
 Alpha  occ. eigenvalues --  -19.03797 -14.23538 -14.21352 -14.17283 -10.12971
 Alpha  occ. eigenvalues --  -10.12768 -10.12627 -10.10082 -10.10008 -10.09964
 Alpha  occ. eigenvalues --  -10.09709 -10.09532 -10.06644  -0.95496  -0.86325
 Alpha  occ. eigenvalues --   -0.83356  -0.76528  -0.68387  -0.67891  -0.62520
 Alpha  occ. eigenvalues --   -0.60440  -0.56499  -0.55978  -0.49927  -0.47826
 Alpha  occ. eigenvalues --   -0.46615  -0.42335  -0.40914  -0.39318  -0.38887
 Alpha  occ. eigenvalues --   -0.37745  -0.37704  -0.36467  -0.35060  -0.33372
 Alpha  occ. eigenvalues --   -0.32099  -0.31357  -0.30231  -0.29629  -0.28880
 Alpha  occ. eigenvalues --   -0.27511  -0.26968  -0.26753  -0.24807  -0.24330
 Alpha  occ. eigenvalues --   -0.23299  -0.22254  -0.17416  -0.16782  -0.13229
 Alpha  occ. eigenvalues --   -0.12361   0.04379
 Alpha virt. eigenvalues --    0.06535   0.07543   0.07806   0.08493   0.09336
 Alpha virt. eigenvalues --    0.09558   0.10041   0.10509   0.11408   0.11666
 Alpha virt. eigenvalues --    0.12206   0.12553   0.12771   0.12967   0.13501

  Beta  occ. eigenvalues --  -19.03794 -14.23538 -14.21343 -14.17273 -10.12968
  Beta  occ. eigenvalues --  -10.12766 -10.12614 -10.10059 -10.10005 -10.09939
  Beta  occ. eigenvalues --  -10.09646 -10.09518 -10.06608  -0.95488  -0.86311
  Beta  occ. eigenvalues --   -0.83336  -0.76509  -0.68367  -0.67847  -0.62466
  Beta  occ. eigenvalues --   -0.60386  -0.56468  -0.55940  -0.49874  -0.47782
  Beta  occ. eigenvalues --   -0.46559  -0.42308  -0.40877  -0.39293  -0.38854
  Beta  occ. eigenvalues --   -0.37718  -0.37674  -0.36420  -0.35028  -0.33341
  Beta  occ. eigenvalues --   -0.32067  -0.31318  -0.30198  -0.29591  -0.28834
  Beta  occ. eigenvalues --   -0.27476  -0.26941  -0.26714  -0.24769  -0.24298
  Beta  occ. eigenvalues --   -0.23272  -0.22239  -0.17393  -0.16770  -0.13179
  Beta  occ. eigenvalues --   -0.12333
  Beta virt. eigenvalues --    0.06839   0.07500   0.07962   0.08170   0.09107
  Beta virt. eigenvalues --    0.09927   0.10100   0.10583   0.10755   0.11694
  Beta virt. eigenvalues --    0.12021   0.12598   0.12762   0.12940   0.13313

 Mulliken charges and spin densities:
               1          2
     1  C    1.367093  -1.746403
     2  N   -0.162278   0.267658
     3  C    0.330275  -0.725295
     4  C    0.754690  -1.078568
     5  C   -0.847940   0.560812
     6  N    0.214670  -0.039927
     7  C    0.504792  -0.607025
     8  C    0.079482  -0.583975
     9  O   -0.141137   0.023100
    10  C   -0.353351  -0.100554
    11  C    0.091241  -0.130759
    12  C   -0.052891  -0.365416
    13  N   -0.316852   0.036329
    14  H   -0.588717   0.763247
    15  H   -0.404425   0.579137
    16  H   -0.159751   0.293245
    17  H   -0.018525   0.157680
    18  H   -0.493651   0.693952
    19  H   -0.594873   0.756662
    20  H   -0.365028   0.533229
    21  H   -0.373665   0.508209
    22  H   -0.058571   0.247657
    23  H    0.094975   0.045177
    24  H   -0.299038   0.429932
    25  H    0.119719   0.017704
    26  H   -0.111132   0.289308
    27  H    0.169197   0.000507
    28  H    0.090711   0.048141
    29  H    0.044412   0.096227
    30  H    0.125946   0.009259
    31  H    0.235399  -0.049093
    32  H    0.119222   0.069843
 Sum of Mulliken charges =  -1.00000   1.00000

 Dipole moment (field-independent basis, Debye):
    X=             -6.0979    Y=              4.5619    Z=             -0.3519  Tot=              7.6236
 Quadrupole moment (field-independent basis, Debye-Ang):
   XX=           -156.1614   YY=           -139.2696   ZZ=           -112.2730
   XY=              5.1145   XZ=             -2.9878   YZ=              0.1734

 Summary of Natural Population Analysis:

                                       Natural Population
                Natural  -----------------------------------------------
    Atom  No    Charge         Core      Valence    Rydberg      Total
 -----------------------------------------------------------------------
      C    1   -0.18593      0.99963     2.17599    0.01030     3.18593
      N    2   -0.25969      0.99968     2.74754    0.01247     3.75969
      C    3   -0.07830      0.99960     2.06583    0.01287     3.07830
      C    4   -0.20299      0.99962     2.19314    0.01024     3.20299
      C    5   -0.08483      0.99961     2.07357    0.01166     3.08483
      N    6   -0.29055      0.99970     2.77790    0.01295     3.79055
      C    7   -0.09969      0.99961     2.08773    0.01235     3.09969
      C    8   -0.01459      0.99958     2.00089    0.01413     3.01459
      O    9   -0.29947      0.99989     3.29094    0.00864     4.29947
      C   10   -0.01291      0.99958     2.00191    0.01142     3.01291
      C   11   -0.09960      0.99962     2.09157    0.00842     3.09960
      C   12    0.15613      0.99966     1.82584    0.01838     2.84387
      N   13   -0.37505      0.99975     2.86688    0.00842     3.87505
      H   14    0.10716      0.00000     0.39053    0.00231     0.39284
      H   15    0.09265      0.00000     0.40540    0.00195     0.40735
      H   16    0.09835      0.00000     0.40027    0.00139     0.40165
      H   17    0.09970      0.00000     0.39798    0.00231     0.40030
      H   18    0.09947      0.00000     0.39874    0.00179     0.40053
      H   19    0.10252      0.00000     0.39487    0.00261     0.39748
      H   20    0.10454      0.00000     0.39297    0.00249     0.39546
      H   21    0.08742      0.00000     0.41114    0.00144     0.41258
      H   22    0.09780      0.00000     0.40023    0.00197     0.40220
      H   23    0.08218      0.00000     0.41619    0.00163     0.41782
      H   24    0.10375      0.00000     0.39435    0.00189     0.39625
      H   25    0.07869      0.00000     0.41982    0.00148     0.42131
      H   26    0.09162      0.00000     0.40725    0.00113     0.40838
      H   27    0.08972      0.00000     0.40929    0.00100     0.41028
      H   28    0.08063      0.00000     0.41785    0.00151     0.41937
      H   29    0.08079      0.00000     0.41772    0.00149     0.41921
      H   30    0.10950      0.00000     0.38924    0.00126     0.39050
      H   31    0.08145      0.00000     0.41585    0.00270     0.41855
      H   32    0.15952      0.00000     0.33813    0.00234     0.34048
 =======================================================================
   * Total *   -0.00000     12.99552    37.81754    0.18693    51.00000

 Normal termination of Gaussian 16 at Wed Dec  9 23:53:56 2020.
