 Gaussian 16, Revision A.03,

 -----------------------------------------------------------
 # opt freq B3LYP/6-31G(d) empiricaldispersion=gd3bj scf=xqc
 -----------------------------------------------------------

 ------------------------------
 CID_10443897_JID_8496_neutraal
 ------------------------------
 Symbolic Z-matrix:
 Charge =  0 Multiplicity = 1

 SCF Done:  E(RB3LYP) =  -710.430850677     A.U. after   16 cycles
 SCF Done:  E(RB3LYP) =  -710.460325867     A.U. after   14 cycles
 SCF Done:  E(RB3LYP) =  -710.461775338     A.U. after   13 cycles
 SCF Done:  E(RB3LYP) =  -710.462151549     A.U. after   13 cycles
 SCF Done:  E(RB3LYP) =  -710.462236251     A.U. after   12 cycles
 SCF Done:  E(RB3LYP) =  -710.462275779     A.U. after   11 cycles
 SCF Done:  E(RB3LYP) =  -710.462286922     A.U. after   11 cycles
 SCF Done:  E(RB3LYP) =  -710.462288176     A.U. after    8 cycles
 SCF Done:  E(RB3LYP) =  -710.462288418     A.U. after    8 cycles
 SCF Done:  E(RB3LYP) =  -710.462288480     A.U. after    8 cycles
 SCF Done:  E(RB3LYP) =  -710.462288492     A.U. after    7 cycles
 Optimization completed.
    -- Stationary point found.
 Normal termination of Gaussian 16 at Fri Dec 11 20:52:06 2020.

 --------------------------------------------------------------------
 #N Geom=AllCheck Guess=TCheck SCRF=Check GenChk RB3LYP/6-31G(d) Freq
 --------------------------------------------------------------------

 Structure from the checkpoint file:  "JID_8496.chk"
 ------------------------------
 CID_10443897_JID_8496_neutraal
 ------------------------------
 Charge =  0 Multiplicity = 1

 SCF Done:  E(RB3LYP) =  -710.462288492     A.U. after    1 cycles

  Exact polarizability: 283.114  -0.056 207.316  -0.019  -9.072  79.935
 Approx polarizability: 491.920  -0.148 355.697  -0.034 -21.436 137.826

                      1                      2                      3
                      A                      A                      A
 Frequencies --     16.3912                30.1106                57.0314
 Red. masses --      1.2042                 5.3468                 4.9711
 Frc consts  --      0.0002                 0.0029                 0.0095
 IR Inten    --      1.1607                 2.4597                 1.3250

                      4                      5                      6
                      A                      A                      A
 Frequencies --     87.1782               103.8486               144.7883
 Red. masses --      5.8529                 3.5530                 3.1520
 Frc consts  --      0.0262                 0.0226                 0.0389
 IR Inten    --      1.9342                 0.0027                 0.7047

                      7                      8                      9
                      A                      A                      A
 Frequencies --    175.6273               236.2018               270.6479
 Red. masses --      5.6324                 4.6297                 4.8363
 Frc consts  --      0.1024                 0.1522                 0.2087
 IR Inten    --      3.3828                 0.1584                 0.2993

                     10                     11                     12
                      A                      A                      A
 Frequencies --    319.5625               369.7096               383.7042
 Red. masses --      6.7877                 4.9605                 5.8909
 Frc consts  --      0.4084                 0.3995                 0.5110
 IR Inten    --      3.6903                 0.1025                 0.8532

                     13                     14                     15
                      A                      A                      A
 Frequencies --    391.8309               404.3271               421.1356
 Red. masses --      2.4671                 3.9999                 2.1496
 Frc consts  --      0.2232                 0.3853                 0.2246
 IR Inten    --      0.2803                 4.3264                 0.1798

                     16                     17                     18
                      A                      A                      A
 Frequencies --    440.0597               443.5350               488.1678
 Red. masses --      5.0268                 6.2190                 2.7752
 Frc consts  --      0.5735                 0.7208                 0.3897
 IR Inten    --      0.0006                 0.8373                 0.5230

                     19                     20                     21
                      A                      A                      A
 Frequencies --    506.5811               545.1197               588.4953
 Red. masses --      3.6699                 4.7743                 3.9462
 Frc consts  --      0.5549                 0.8359                 0.8052
 IR Inten    --      0.0021                 1.6912                 4.3549

                     22                     23                     24
                      A                      A                      A
 Frequencies --    594.4803               602.0700               619.3004
 Red. masses --      3.9157                 3.3507                 6.5633
 Frc consts  --      0.8153                 0.7156                 1.4831
 IR Inten    --      0.0093                 2.3530                 5.0866

                     25                     26                     27
                      A                      A                      A
 Frequencies --    673.4206               697.7208               753.6410
 Red. masses --      5.1341                 4.8192                 3.6575
 Frc consts  --      1.3718                 1.3822                 1.2239
 IR Inten    --      3.6978                 4.0264                 0.0352

                     28                     29                     30
                      A                      A                      A
 Frequencies --    766.2809               767.4481               784.3799
 Red. masses --      1.6213                 1.3814                 3.2648
 Frc consts  --      0.5609                 0.4794                 1.1835
 IR Inten    --     72.0152                 0.5759                12.8231

                     31                     32                     33
                      A                      A                      A
 Frequencies --    807.2796               837.3588               863.0470
 Red. masses --      3.2252                 2.5708                 1.5947
 Frc consts  --      1.2384                 1.0620                 0.6999
 IR Inten    --     11.0728                 3.6150                 0.0665

                     34                     35                     36
                      A                      A                      A
 Frequencies --    867.3873               902.9584               939.0809
 Red. masses --      1.9673                 3.3076                 4.2514
 Frc consts  --      0.8721                 1.5889                 2.2090
 IR Inten    --      1.8084                 0.0067                 4.9324

                     37                     38                     39
                      A                      A                      A
 Frequencies --    956.5644               956.9016               987.5966
 Red. masses --      1.3386                 1.3539                 1.3672
 Frc consts  --      0.7216                 0.7304                 0.7857
 IR Inten    --      0.3533                 0.6790                 0.0599

                     40                     41                     42
                      A                      A                      A
 Frequencies --    989.1200               995.0536              1046.3384
 Red. masses --      1.2884                 2.5021                 5.2112
 Frc consts  --      0.7427                 1.4596                 3.3615
 IR Inten    --      0.4776                 1.7969                 1.1956

                     43                     44                     45
                      A                      A                      A
 Frequencies --   1055.6716              1063.9260              1067.7418
 Red. masses --      2.0815                 1.6994                 2.0850
 Frc consts  --      1.3667                 1.1334                 1.4006
 IR Inten    --      3.7490                 5.5683                 0.9131

                     46                     47                     48
                      A                      A                      A
 Frequencies --   1079.2052              1100.4694              1144.4408
 Red. masses --      4.5104                 1.6897                 2.5582
 Frc consts  --      3.0951                 1.2057                 1.9741
 IR Inten    --      0.3649                 0.4559                 0.0027

                     49                     50                     51
                      A                      A                      A
 Frequencies --   1197.8563              1215.6061              1216.9320
 Red. masses --      1.2674                 1.2274                 1.2333
 Frc consts  --      1.0714                 1.0686                 1.0761
 IR Inten    --      0.2981                 0.8281                 0.9038

                     52                     53                     54
                      A                      A                      A
 Frequencies --   1230.1277              1272.6240              1311.0897
 Red. masses --      1.1874                 1.3465                 1.6551
 Frc consts  --      1.0587                 1.2849                 1.6762
 IR Inten    --      0.0754                 0.1294                 1.7514

                     55                     56                     57
                      A                      A                      A
 Frequencies --   1323.2463              1340.2451              1346.1659
 Red. masses --      3.2660                 3.4458                 1.4201
 Frc consts  --      3.3694                 3.6468                 1.5163
 IR Inten    --      3.3961                 0.5986                 2.8490

                     58                     59                     60
                      A                      A                      A
 Frequencies --   1403.2783              1413.9212              1432.1965
 Red. masses --      5.3694                 5.1320                 1.5781
 Frc consts  --      6.2296                 6.0448                 1.9072
 IR Inten    --      2.8139                20.3309                 0.2563

                     61                     62                     63
                      A                      A                      A
 Frequencies --   1442.9137              1460.0892              1496.2409
 Red. masses --      1.2580                 7.3047                 2.4284
 Frc consts  --      1.5432                 9.1751                 3.2032
 IR Inten    --      1.9201                 0.0561                 3.0047

                     64                     65                     66
                      A                      A                      A
 Frequencies --   1499.1041              1515.0752              1515.7967
 Red. masses --      1.7663                 1.2004                 1.2394
 Frc consts  --      2.3387                 1.6235                 1.6779
 IR Inten    --     13.2995                 0.6234                20.1311

                     67                     68                     69
                      A                      A                      A
 Frequencies --   1539.8989              1565.3323              1588.3233
 Red. masses --      1.3396                 1.4709                 5.2394
 Frc consts  --      1.8716                 2.1234                 7.7877
 IR Inten    --      8.7765                 5.4813                 5.3318

                     70                     71                     72
                      A                      A                      A
 Frequencies --   1611.4988              1615.3409              1677.2654
 Red. masses --      6.0808                 7.1856                 5.3071
 Frc consts  --      9.3040                11.0469                 8.7965
 IR Inten    --      0.6908                 2.5387                 0.9639

                     73                     74                     75
                      A                      A                      A
 Frequencies --   1690.5114              2368.2554              3048.6166
 Red. masses --      5.4024                12.5838                 1.0515
 Frc consts  --      9.0965                41.5834                 5.7578
 IR Inten    --      6.0245                11.6613                24.6494

                     76                     77                     78
                      A                      A                      A
 Frequencies --   3087.0445              3117.9051              3128.0617
 Red. masses --      1.0602                 1.1015                 1.0850
 Frc consts  --      5.9527                 6.3092                 6.2552
 IR Inten    --      9.0651                 0.7929                18.2896

                     79                     80                     81
                      A                      A                      A
 Frequencies --   3154.0434              3191.4336              3191.5998
 Red. masses --      1.1008                 1.0864                 1.0865
 Frc consts  --      6.4521                 6.5192                 6.5206
 IR Inten    --     10.1058                 7.9271                 0.1206

                     82                     83                     84
                      A                      A                      A
 Frequencies --   3205.3846              3205.4970              3224.8193
 Red. masses --      1.0906                 1.0906                 1.0926
 Frc consts  --      6.6019                 6.6027                 6.6945
 IR Inten    --     31.9827                 3.6420                12.2984

                     85                     86                     87
                      A                      A                      A
 Frequencies --   3225.6165              3234.0066              3234.7761
 Red. masses --      1.0926                 1.0920                 1.0921
 Frc consts  --      6.6979                 6.7290                 6.7331
 IR Inten    --     34.8465                20.4790                16.9001

 - Thermochemistry -
 -------------------
 Temperature   298.150 Kelvin.  Pressure   1.00000 Atm.
 Atom     1 has atomic number  6 and mass  12.00000

 Molecular mass:   231.10480 amu.
 Principal axes and moments of inertia in atomic units:
                           1         2         3
     Eigenvalues --  3275.979024185.267787125.93136
           X            1.00000   0.00007  -0.00003
           Y           -0.00007   0.99983  -0.01843
           Z            0.00003   0.01843   0.99983
 This molecule is an asymmetric top.
 Rotational symmetry number  1.
 Warning -- assumption of classical behavior for rotation
           may cause significant error
 Rotational temperatures (Kelvin)      0.02644     0.02069     0.01215
 Rotational constants (GHZ):           0.55090     0.43121     0.25326
 Zero-point vibrational energy     657232.4 (Joules/Mol)
                                  157.08231 (Kcal/Mol)
 Warning -- explicit consideration of  24 degrees of freedom as
           vibrations may cause significant error
 Vibrational temperatures:     23.58    43.32    82.06   125.43   149.41
          (Kelvin)            208.32   252.69   339.84   389.40   459.78
                              531.93   552.06   563.76   581.74   605.92
                              633.15   638.15   702.36   728.86   784.31
                              846.71   855.32   866.24   891.04   968.90
                             1003.86  1084.32  1102.51  1104.19  1128.55
                             1161.50  1204.77  1241.73  1247.98  1299.16
                             1351.13  1376.28  1376.77  1420.93  1423.12
                             1431.66  1505.45  1518.88  1530.75  1536.24
                             1552.74  1583.33  1646.60  1723.45  1748.99
                             1750.89  1769.88  1831.02  1886.37  1903.86
                             1928.31  1936.83  2019.00  2034.32  2060.61
                             2076.03  2100.74  2152.76  2156.88  2179.86
                             2180.89  2215.57  2252.16  2285.24  2318.59
                             2324.12  2413.21  2432.27  3407.39  4386.28
                             4441.57  4485.97  4500.58  4537.96  4591.76
                             4592.00  4611.83  4612.00  4639.80  4640.94
                             4653.01  4654.12

 Zero-point correction=                           0.250327 (Hartree/Particle)
 Thermal correction to Energy=                    0.264805
 Thermal correction to Enthalpy=                  0.265749
 Thermal correction to Gibbs Free Energy=         0.206940
 Sum of electronic and zero-point Energies=           -710.211962
 Sum of electronic and thermal Energies=              -710.197483
 Sum of electronic and thermal Enthalpies=            -710.196539
 Sum of electronic and thermal Free Energies=         -710.255349

                     E (Thermal)             CV                S
                      KCal/Mol        Cal/Mol-Kelvin    Cal/Mol-Kelvin
 Total                  166.168             57.220            123.776
 Electronic               0.000              0.000              0.000
 Translational            0.889              2.981             42.215
 Rotational               0.889              2.981             32.946
 Vibrational            164.390             51.258             48.614
 Vibration     1          0.593              1.986              7.029
 Vibration     2          0.594              1.984              5.822
 Vibration     3          0.596              1.975              4.557
 Vibration     4          0.601              1.958              3.722
 Vibration     5          0.605              1.946              3.381
 Vibration     6          0.616              1.908              2.740
 Vibration     7          0.628              1.872              2.374
 Vibration     8          0.655              1.785              1.831
 Vibration     9          0.674              1.727              1.592
 Vibration    10          0.705              1.636              1.312
 Vibration    11          0.742              1.534              1.081
 Vibration    12          0.753              1.505              1.025
 Vibration    13          0.759              1.488              0.993
 Vibration    14          0.770              1.461              0.947
 Vibration    15          0.784              1.424              0.888
 Vibration    16          0.800              1.383              0.826
 Vibration    17          0.803              1.375              0.816
 Vibration    18          0.844              1.276              0.688
 Vibration    19          0.862              1.235              0.642
 Vibration    20          0.900              1.150              0.554
 Vibration    21          0.946              1.056              0.470
 Vibration    22          0.952              1.044              0.459
 Vibration    23          0.960              1.027              0.446
 Vibration    24          0.979              0.991              0.418

                           ! Non-Optimized Parameters !
 Normal termination of Gaussian 16 at Fri Dec 11 21:06:09 2020.

 ----------------------------------------------------------------------
 # B3LYP/6-311++G(d,p) empiricaldispersion=gd3bj scf=xqc pop=npa geom=c
 heck
 ----------------------------------------------------------------------

 --------------------------------------
 CID_10443897_JID_8496_Energie_neutraal
 --------------------------------------
 Structure from the checkpoint file:  "JID_8496.chk"
 Charge =  0 Multiplicity = 1

 SCF Done:  E(RB3LYP) =  -710.636939309     A.U. after   15 cycles
 Normal termination of Gaussian 16 at Fri Dec 11 21:12:35 2020.

 ----------------------------------------------------------------------
 # B3LYP/6-311++G(d,p) empiricaldispersion=gd3bj scf=xqc pop=npa geom=c
 heck
 ----------------------------------------------------------------------

 ------------------------------------
 CID_10443897_JID_8496_Energie_kation
 ------------------------------------
 Structure from the checkpoint file:  "JID_8496.chk"
 Charge =  1 Multiplicity = 2

 SCF Done:  E(UB3LYP) =  -710.370808413     A.U. after   19 cycles
 Normal termination of Gaussian 16 at Fri Dec 11 21:24:07 2020.
 Gaussian 16:  ES64L-G16RevA.03 25-Dec-2016

 ----------------------------------------------------------------------
 # B3LYP/6-311++G(d,p) empiricaldispersion=gd3bj scf=xqc pop=npa geom=c
 heck
 ----------------------------------------------------------------------

 -----------------------------------
 CID_10443897_JID_8496_Energie_anion
 -----------------------------------
 Structure from the checkpoint file:  "JID_8496.chk"
 Charge = -1 Multiplicity = 2

                         Standard orientation:
 ---------------------------------------------------------------------
 Center     Atomic      Atomic             Coordinates (Angstroms)
 Number     Number       Type             X           Y           Z
 ---------------------------------------------------------------------
      1          6           0       -0.010595   -3.340145    0.226739
      2          6           0       -0.003560   -1.837349    0.058427
      3          6           0        1.217621   -1.131159   -0.006743
      4          6           0        2.480092   -1.783328    0.171038
      5          6           0        3.662332   -1.095130    0.125529
      6          6           0        3.663112    0.306014   -0.101575
      7          6           0        2.482412    0.974232   -0.281001
      8          6           0        1.221648    0.296368   -0.245208
      9          6           0        0.002046    0.976965   -0.420219
     10          6           0       -1.220459    0.301503   -0.244871
     11          6           0       -2.478758    0.983804   -0.280032
     12          6           0       -3.661732    0.319360   -0.100752
     13          6           0       -3.665874   -1.081934    0.125284
     14          6           0       -2.485867   -1.774175    0.170236
     15          6           0       -1.221616   -1.125644   -0.006953
     16          6           0        0.004953    2.452838   -0.793719
     17          6           0        0.007922    3.342361    0.373880
     18          7           0        0.010280    4.030467    1.308616
     19          1           0        0.873371   -3.800393   -0.217520
     20          1           0       -0.039376   -3.632801    1.284780
     21          1           0       -0.874433   -3.794031   -0.262646
     22          1           0        2.502163   -2.846695    0.374426
     23          1           0        4.602210   -1.618170    0.275569
     24          1           0        4.602727    0.850290   -0.119384
     25          1           0        2.507204    2.049568   -0.412399
     26          1           0       -2.499940    2.059293   -0.410944
     27          1           0       -4.599485    0.866860   -0.118078
     28          1           0       -4.607608   -1.601789    0.274774
     29          1           0       -2.510626   -2.837839    0.372092
     30          1           0        0.875484    2.690617   -1.411493
     31          1           0       -0.865708    2.694343   -1.409848
 ---------------------------------------------------------------------

 SCF Done:  E(UB3LYP) =  -710.671324773     A.U. after   19 cycles

 The electronic state is 2-A.
 Alpha  occ. eigenvalues --  -14.19622 -10.09851 -10.09819 -10.05043 -10.05040
 Alpha  occ. eigenvalues --  -10.04726 -10.04698 -10.04659 -10.04005 -10.03949
 Alpha  occ. eigenvalues --  -10.03947 -10.03885 -10.03883 -10.03535 -10.03533
 Alpha  occ. eigenvalues --  -10.03458 -10.03439 -10.03428  -0.79495  -0.75059
 Alpha  occ. eigenvalues --   -0.71655  -0.69163  -0.67336  -0.62815  -0.62027
 Alpha  occ. eigenvalues --   -0.60565  -0.59480  -0.54367  -0.51147  -0.48740
 Alpha  occ. eigenvalues --   -0.46172  -0.44339  -0.40972  -0.40327  -0.39501
 Alpha  occ. eigenvalues --   -0.36938  -0.34367  -0.33604  -0.33338  -0.32276
 Alpha  occ. eigenvalues --   -0.30857  -0.30460  -0.29244  -0.28980  -0.27245
 Alpha  occ. eigenvalues --   -0.26358  -0.26074  -0.25399  -0.25168  -0.25007
 Alpha  occ. eigenvalues --   -0.23499  -0.22344  -0.21702  -0.21597  -0.20029
 Alpha  occ. eigenvalues --   -0.18867  -0.17608  -0.16004  -0.13129  -0.11430
 Alpha  occ. eigenvalues --   -0.07221   0.01817
 Alpha virt. eigenvalues --    0.08036   0.08614   0.08731   0.09691   0.10070
 Alpha virt. eigenvalues --    0.10666   0.11071   0.11469   0.11546   0.12130
 Alpha virt. eigenvalues --    0.12828   0.13368   0.13842   0.14289   0.14776

  Beta  occ. eigenvalues --  -14.19614 -10.09865 -10.09802 -10.05083 -10.05081
  Beta  occ. eigenvalues --  -10.04799 -10.04771 -10.04686 -10.03872 -10.03872
  Beta  occ. eigenvalues --  -10.03827 -10.03826 -10.03681 -10.03382 -10.03379
  Beta  occ. eigenvalues --  -10.03256 -10.03247 -10.03066  -0.79465  -0.74785
  Beta  occ. eigenvalues --   -0.71395  -0.68846  -0.66946  -0.62678  -0.61699
  Beta  occ. eigenvalues --   -0.60410  -0.59239  -0.54111  -0.50625  -0.48671
  Beta  occ. eigenvalues --   -0.45899  -0.44077  -0.40621  -0.40208  -0.39336
  Beta  occ. eigenvalues --   -0.36764  -0.34300  -0.33422  -0.33200  -0.32201
  Beta  occ. eigenvalues --   -0.30664  -0.30103  -0.29094  -0.28887  -0.27126
  Beta  occ. eigenvalues --   -0.26153  -0.25878  -0.25339  -0.24940  -0.24796
  Beta  occ. eigenvalues --   -0.22829  -0.22253  -0.21633  -0.21491  -0.19870
  Beta  occ. eigenvalues --   -0.18745  -0.16689  -0.14940  -0.12157  -0.10906
  Beta  occ. eigenvalues --   -0.05456
  Beta virt. eigenvalues --    0.06722   0.08024   0.08586   0.08731   0.09681
  Beta virt. eigenvalues --    0.10054   0.10735   0.11429   0.11584   0.11620
  Beta virt. eigenvalues --    0.12560   0.12833   0.13461   0.14006   0.14420

 Mulliken charges and spin densities:
               1          2
     1  C   -0.800964  -0.030845
     2  C    0.381600   0.255042
     3  C    0.523271  -0.041882
     4  C   -0.539956   0.123561
     5  C   -0.499772   0.040169
     6  C   -0.522529   0.074321
     7  C   -0.482044   0.095203
     8  C    0.423928  -0.010355
     9  C    0.421021   0.202616
    10  C    0.430500  -0.010746
    11  C   -0.483713   0.096305
    12  C   -0.522519   0.073247
    13  C   -0.502794   0.041416
    14  C   -0.536879   0.123836
    15  C    0.525384  -0.042521
    16  C    0.610317  -0.021405
    17  C   -0.491110   0.009974
    18  N   -0.362167   0.004110
    19  H    0.103848   0.008216
    20  H    0.130479   0.025621
    21  H    0.102096   0.009097
    22  H    0.059611  -0.011732
    23  H    0.112499  -0.002893
    24  H    0.113342  -0.005162
    25  H    0.086628  -0.009261
    26  H    0.086230  -0.009327
    27  H    0.113360  -0.005112
    28  H    0.112305  -0.002961
    29  H    0.064466  -0.011643
    30  H    0.171632   0.016576
    31  H    0.171931   0.016536
 Sum of Mulliken charges =  -1.00000   1.00000

 Dipole moment (field-independent basis, Debye):
    X=             -0.0024    Y=             -2.1948    Z=             -2.5413  Tot=              3.3579
 Quadrupole moment (field-independent basis, Debye-Ang):
   XX=           -137.6104   YY=           -136.9086   ZZ=           -121.3018
   XY=             -0.0476   XZ=             -0.0270   YZ=            -13.4733

 Summary of Natural Population Analysis:

                                       Natural Population
                Natural  -----------------------------------------------
    Atom  No    Charge         Core      Valence    Rydberg      Total
 -----------------------------------------------------------------------
      C    1   -0.29906      0.99963     2.29241    0.00702     3.29906
      C    2    0.12040      0.99949     1.86945    0.01067     2.87960
      C    3   -0.05883      0.99951     2.04552    0.01379     3.05883
      C    4   -0.06263      0.99954     2.05380    0.00928     3.06263
      C    5   -0.12223      0.99960     2.10654    0.01609     3.12223
      C    6   -0.05189      0.99957     2.04509    0.00723     3.05189
      C    7   -0.09298      0.99957     2.07698    0.01643     3.09298
      C    8   -0.02950      0.99946     2.01865    0.01139     3.02950
      C    9    0.02845      0.99945     1.95764    0.01446     2.97155
      C   10   -0.02957      0.99946     2.01874    0.01137     3.02957
      C   11   -0.09270      0.99957     2.07670    0.01643     3.09270
      C   12   -0.05208      0.99957     2.04528    0.00722     3.05208
      C   13   -0.12181      0.99960     2.10613    0.01608     3.12181
      C   14   -0.06298      0.99954     2.05414    0.00930     3.06298
      C   15   -0.05884      0.99951     2.04556    0.01376     3.05884
      C   16   -0.21254      0.99953     2.19887    0.01414     3.21254
      C   17    0.15465      0.99970     1.82564    0.02001     2.84535
      N   18   -0.20063      0.99979     2.68938    0.01147     3.70063
      H   19    0.10082      0.00000     0.39849    0.00069     0.39918
      H   20    0.10141      0.00000     0.39784    0.00076     0.39859
      H   21    0.10099      0.00000     0.39831    0.00070     0.39901
      H   22    0.09051      0.00000     0.40769    0.00181     0.40949
      H   23    0.08940      0.00000     0.40948    0.00112     0.41060
      H   24    0.08567      0.00000     0.41311    0.00122     0.41433
      H   25    0.09018      0.00000     0.40833    0.00149     0.40982
      H   26    0.09016      0.00000     0.40835    0.00149     0.40984
      H   27    0.08567      0.00000     0.41311    0.00122     0.41433
      H   28    0.08938      0.00000     0.40949    0.00113     0.41062
      H   29    0.09076      0.00000     0.40743    0.00181     0.40924
      H   30    0.11727      0.00000     0.38122    0.00151     0.38273
      H   31    0.11727      0.00000     0.38121    0.00151     0.38273
 =======================================================================
   * Total *    0.00473     17.99209    42.76059    0.24259    60.99527

 Normal termination of Gaussian 16 at Fri Dec 11 21:35:47 2020.
