 Gaussian 16, Revision A.03,

 -----------------------------------------------------------
 # opt freq B3LYP/6-31G(d) empiricaldispersion=gd3bj scf=xqc
 -----------------------------------------------------------

 ------------------------------
 CID_13869332_JID_2880_neutraal
 ------------------------------
 Symbolic Z-matrix:
 Charge =  0 Multiplicity = 1

 SCF Done:  E(RB3LYP) =  -1308.39724981     A.U. after   16 cycles
 SCF Done:  E(RB3LYP) =  -1308.40670591     A.U. after   13 cycles
 SCF Done:  E(RB3LYP) =  -1308.40740171     A.U. after   12 cycles
 SCF Done:  E(RB3LYP) =  -1308.40749990     A.U. after   11 cycles
 SCF Done:  E(RB3LYP) =  -1308.40751268     A.U. after    9 cycles
 SCF Done:  E(RB3LYP) =  -1308.40751845     A.U. after    9 cycles
 SCF Done:  E(RB3LYP) =  -1308.40752119     A.U. after    9 cycles
 SCF Done:  E(RB3LYP) =  -1308.40752447     A.U. after    9 cycles
 SCF Done:  E(RB3LYP) =  -1308.40752885     A.U. after    9 cycles
 SCF Done:  E(RB3LYP) =  -1308.40753541     A.U. after   11 cycles
 SCF Done:  E(RB3LYP) =  -1308.40770419     A.U. after   11 cycles
 SCF Done:  E(RB3LYP) =  -1308.40771529     A.U. after   11 cycles
 SCF Done:  E(RB3LYP) =  -1308.40772212     A.U. after   10 cycles
 SCF Done:  E(RB3LYP) =  -1308.40772657     A.U. after   10 cycles
 SCF Done:  E(RB3LYP) =  -1308.40772797     A.U. after    8 cycles
 SCF Done:  E(RB3LYP) =  -1308.40772877     A.U. after    9 cycles
 Optimization completed.
    -- Stationary point found.
 Normal termination of Gaussian 16 at Wed Dec  9 18:16:31 2020.

 --------------------------------------------------------------------
 #N Geom=AllCheck Guess=TCheck SCRF=Check GenChk RB3LYP/6-31G(d) Freq
 --------------------------------------------------------------------

 Structure from the checkpoint file:  "JID_2880.chk"
 ------------------------------
 CID_13869332_JID_2880_neutraal
 ------------------------------
 Charge =  0 Multiplicity = 1

 SCF Done:  E(RB3LYP) =  -1308.40772877     A.U. after    1 cycles

  Exact polarizability: 137.988  -1.016 118.569  -0.672   0.416  60.329
 Approx polarizability: 200.775   2.751 231.724  -1.327   1.564 107.603

                      1                      2                      3
                      A                      A                      A
 Frequencies --     74.8308                92.2334                97.0300
 Red. masses --      6.8140                 1.7327                 2.3294
 Frc consts  --      0.0225                 0.0087                 0.0129
 IR Inten    --      0.0444                 1.2195                 1.1044

                      4                      5                      6
                      A                      A                      A
 Frequencies --    135.1646               179.4640               185.5874
 Red. masses --      8.7251                 5.8889                 3.8887
 Frc consts  --      0.0939                 0.1117                 0.0789
 IR Inten    --      0.4557                 0.1305                 4.4979

                      7                      8                      9
                      A                      A                      A
 Frequencies --    285.5819               305.7973               320.3662
 Red. masses --      6.3559                 3.7308                 6.3187
 Frc consts  --      0.3054                 0.2056                 0.3821
 IR Inten    --      5.7140                 4.8653                 5.9113

                     10                     11                     12
                      A                      A                      A
 Frequencies --    365.6875               411.6372               426.1372
 Red. masses --      4.3141                 1.9095                10.2324
 Frc consts  --      0.3399                 0.1906                 1.0948
 IR Inten    --     18.1202                73.7023                 1.6841

                     13                     14                     15
                      A                      A                      A
 Frequencies --    478.5967               496.1754               528.6254
 Red. masses --     14.6310                 5.6972                 4.7771
 Frc consts  --      1.9745                 0.8264                 0.7865
 IR Inten    --      0.5491                81.7634                32.9031

                     16                     17                     18
                      A                      A                      A
 Frequencies --    568.5198               591.1218               605.1732
 Red. masses --     11.9218                 6.2814                 7.3584
 Frc consts  --      2.2703                 1.2932                 1.5878
 IR Inten    --     58.6921                26.0726                16.9122

                     19                     20                     21
                      A                      A                      A
 Frequencies --    654.3138               667.6474               755.1516
 Red. masses --      9.6667                 4.2588                 6.4795
 Frc consts  --      2.4384                 1.1185                 2.1770
 IR Inten    --      9.3470                 9.5874                15.8292

                     22                     23                     24
                      A                      A                      A
 Frequencies --    826.8793               863.3821               955.9876
 Red. masses --      4.1913                 1.4013                 6.9728
 Frc consts  --      1.6884                 0.6154                 3.7546
 IR Inten    --     53.7126                11.7303                 5.5654

                     25                     26                     27
                      A                      A                      A
 Frequencies --   1012.3987              1072.4764              1089.4148
 Red. masses --      1.6208                 1.4133                 8.8236
 Frc consts  --      0.9788                 0.9578                 6.1700
 IR Inten    --      0.1436                 1.6204                10.9184

                     28                     29                     30
                      A                      A                      A
 Frequencies --   1146.7261              1152.1218              1185.4020
 Red. masses --      4.6571                 2.7656                 4.9183
 Frc consts  --      3.6082                 2.1629                 4.0719
 IR Inten    --    139.8870               151.7735                27.8505

                     31                     32                     33
                      A                      A                      A
 Frequencies --   1252.1971              1318.0520              1345.0931
 Red. masses --      2.3842                 1.5833                 9.5881
 Frc consts  --      2.2026                 1.6206                10.2209
 IR Inten    --    150.1064               103.2828               179.6406

                     34                     35                     36
                      A                      A                      A
 Frequencies --   1441.2324              1450.7772              1506.1016
 Red. masses --      1.6950                 2.5517                 1.0412
 Frc consts  --      2.0743                 3.1644                 1.3915
 IR Inten    --     22.5884                30.2443                10.3390

                     37                     38                     39
                      A                      A                      A
 Frequencies --   1512.9209              1523.1806              1595.9968
 Red. masses --      2.3696                 1.7893                 5.6573
 Frc consts  --      3.1957                 2.4458                 8.4903
 IR Inten    --     15.4974                22.3719                 0.3405

                     40                     41                     42
                      A                      A                      A
 Frequencies --   1837.9462              3055.5282              3112.2078
 Red. masses --     11.5895                 1.0363                 1.1021
 Frc consts  --     23.0665                 5.7005                 6.2893
 IR Inten    --    388.6720                17.9872                 8.4389

                     43                     44                     45
                      A                      A                      A
 Frequencies --   3142.0394              3245.3305              3597.8520
 Red. masses --      1.1015                 1.0940                 1.0779
 Frc consts  --      6.4068                 6.7889                 8.2205
 IR Inten    --      6.3119                 1.5798               105.1421

 - Thermochemistry -
 -------------------
 Temperature   298.150 Kelvin.  Pressure   1.00000 Atm.
 Atom     1 has atomic number  6 and mass  12.00000

 Molecular mass:   202.97109 amu.
 Principal axes and moments of inertia in atomic units:
                           1         2         3
     Eigenvalues --  1505.192102875.488064005.92011
           X            1.00000  -0.00035  -0.00052
           Y            0.00035   1.00000   0.00012
           Z            0.00052  -0.00012   1.00000
 This molecule is an asymmetric top.
 Rotational symmetry number  1.
 Warning -- assumption of classical behavior for rotation
           may cause significant error
 Rotational temperatures (Kelvin)      0.05754     0.03012     0.02162
 Rotational constants (GHZ):           1.19901     0.62763     0.45052
 Zero-point vibrational energy     289891.6 (Joules/Mol)
                                   69.28575 (Kcal/Mol)
 Warning -- explicit consideration of  18 degrees of freedom as
           vibrations may cause significant error
 Vibrational temperatures:    107.66   132.70   139.60   194.47   258.21
          (Kelvin)            267.02   410.89   439.97   460.94   526.14
                              592.25   613.12   688.59   713.89   760.57
                              817.97   850.49   870.71   941.41   960.60
                             1086.49  1189.69  1242.21  1375.45  1456.62
                             1543.05  1567.42  1649.88  1657.65  1705.53
                             1801.63  1896.38  1935.29  2073.61  2087.34
                             2166.94  2176.76  2191.52  2296.28  2644.39
                             4396.22  4477.77  4520.69  4669.31  5176.51

 Zero-point correction=                           0.110414 (Hartree/Particle)
 Thermal correction to Energy=                    0.121452
 Thermal correction to Enthalpy=                  0.122396
 Thermal correction to Gibbs Free Energy=         0.072939
 Sum of electronic and zero-point Energies=          -1308.297315
 Sum of electronic and thermal Energies=             -1308.286277
 Sum of electronic and thermal Enthalpies=           -1308.285333
 Sum of electronic and thermal Free Energies=        -1308.334790

                     E (Thermal)             CV                S
                      KCal/Mol        Cal/Mol-Kelvin    Cal/Mol-Kelvin
 Total                   76.212             40.481            104.092
 Electronic               0.000              0.000              0.000
 Translational            0.889              2.981             41.828
 Rotational               0.889              2.981             31.228
 Vibrational             74.435             34.519             31.035
 Vibration     1          0.599              1.966              4.022
 Vibration     2          0.602              1.955              3.612
 Vibration     3          0.603              1.951              3.513
 Vibration     4          0.613              1.918              2.871
 Vibration     5          0.629              1.868              2.334
 Vibration     6          0.632              1.860              2.271
 Vibration     7          0.683              1.700              1.500
 Vibration     8          0.696              1.663              1.385
 Vibration     9          0.706              1.635              1.308
 Vibration    10          0.739              1.543              1.098
 Vibration    11          0.776              1.445              0.921
 Vibration    12          0.788              1.413              0.871
 Vibration    13          0.835              1.298              0.714
 Vibration    14          0.852              1.259              0.668
 Vibration    15          0.884              1.187              0.590
 Vibration    16          0.925              1.099              0.507
 Vibration    17          0.949              1.051              0.465
 Vibration    18          0.964              1.021              0.441

                           ! Non-Optimized Parameters !
 Normal termination of Gaussian 16 at Wed Dec  9 18:20:33 2020.

 ----------------------------------------------------------------------
 # B3LYP/6-311++G(d,p) empiricaldispersion=gd3bj scf=xqc pop=npa geom=c
 heck
 ----------------------------------------------------------------------

 --------------------------------------
 CID_13869332_JID_2880_Energie_neutraal
 --------------------------------------
 Structure from the checkpoint file:  "JID_2880.chk"
 Charge =  0 Multiplicity = 1

 SCF Done:  E(RB3LYP) =  -1308.60721849     A.U. after   17 cycles
 Normal termination of Gaussian 16 at Wed Dec  9 18:22:17 2020.

 ----------------------------------------------------------------------
 # B3LYP/6-311++G(d,p) empiricaldispersion=gd3bj scf=xqc pop=npa geom=c
 heck
 ----------------------------------------------------------------------

 ------------------------------------
 CID_13869332_JID_2880_Energie_kation
 ------------------------------------
 Structure from the checkpoint file:  "JID_2880.chk"
 Charge =  1 Multiplicity = 2

 SCF Done:  E(UB3LYP) =  -1308.26138315     A.U. after   30 cycles
 Normal termination of Gaussian 16 at Wed Dec  9 18:26:06 2020.
 Gaussian 16:  ES64L-G16RevA.03 25-Dec-2016

 ----------------------------------------------------------------------
 # B3LYP/6-311++G(d,p) empiricaldispersion=gd3bj scf=xqc pop=npa geom=c
 heck
 ----------------------------------------------------------------------

 -----------------------------------
 CID_13869332_JID_2880_Energie_anion
 -----------------------------------
 Structure from the checkpoint file:  "JID_2880.chk"
 Charge = -1 Multiplicity = 2

                         Standard orientation:
 ---------------------------------------------------------------------
 Center     Atomic      Atomic             Coordinates (Angstroms)
 Number     Number       Type             X           Y           Z
 ---------------------------------------------------------------------
      1          6           0        3.975107   -0.079966    0.004131
      2          6           0        2.483965    0.057684   -0.001014
      3          6           0        1.734883    1.206965   -0.024002
      4          6           0        0.339361    0.937201   -0.013439
      5          6           0        0.057651   -0.401625    0.025207
      6         16           0        1.467142   -1.384661    0.032359
      7         16           0       -1.680635   -0.735735   -0.001166
      8          8           0       -2.183394   -1.198272    1.290221
      9          8           0       -2.060970   -1.439137   -1.220086
     10          7           0       -1.989118    0.956704   -0.159709
     11          6           0       -0.869664    1.797263   -0.037510
     12          8           0       -0.923321    3.005919    0.032218
     13          1           0        4.433204    0.912482   -0.026995
     14          1           0        4.332946   -0.646462   -0.862977
     15          1           0        4.331411   -0.589960    0.906337
     16          1           0        2.161278    2.202418   -0.049315
     17          1           0       -2.905468    1.297723    0.112750
 ---------------------------------------------------------------------

 SCF Done:  E(UB3LYP) =  -1308.63864541     A.U. after   23 cycles

 The electronic state is 2-A.
 Alpha  occ. eigenvalues --  -88.93702 -88.73806 -18.98818 -18.98787 -18.95050
 Alpha  occ. eigenvalues --  -14.21564 -10.12994 -10.07141 -10.07080 -10.05237
 Alpha  occ. eigenvalues --  -10.04771 -10.03199  -7.99766  -7.82416  -5.96130
 Alpha  occ. eigenvalues --   -5.95960  -5.95857  -5.78746  -5.78372  -5.77990
 Alpha  occ. eigenvalues --   -0.99196  -0.90418  -0.88127  -0.79809  -0.74906
 Alpha  occ. eigenvalues --   -0.65445  -0.61079  -0.59057  -0.54243  -0.46775
 Alpha  occ. eigenvalues --   -0.44391  -0.41345  -0.38037  -0.36375  -0.34051
 Alpha  occ. eigenvalues --   -0.33625  -0.32044  -0.31058  -0.29434  -0.28957
 Alpha  occ. eigenvalues --   -0.26975  -0.25759  -0.24112  -0.22430  -0.21916
 Alpha  occ. eigenvalues --   -0.20727  -0.19278  -0.18815  -0.14562  -0.12891
 Alpha  occ. eigenvalues --   -0.12572  -0.10942   0.03241
 Alpha virt. eigenvalues --    0.07709   0.10432   0.10724   0.10947   0.12219
 Alpha virt. eigenvalues --    0.13031   0.13243   0.14177   0.15309   0.15976
 Alpha virt. eigenvalues --    0.16109   0.16345   0.16834   0.17327   0.18501

  Beta  occ. eigenvalues --  -88.93704 -88.73736 -18.98732 -18.98707 -18.94698
  Beta  occ. eigenvalues --  -14.21590 -10.12789 -10.07102 -10.06905 -10.04869
  Beta  occ. eigenvalues --  -10.04659 -10.03028  -7.99767  -7.82354  -5.96132
  Beta  occ. eigenvalues --   -5.95942  -5.95873  -5.78722  -5.78347  -5.77746
  Beta  occ. eigenvalues --   -0.99026  -0.89845  -0.87924  -0.79573  -0.74538
  Beta  occ. eigenvalues --   -0.64996  -0.60676  -0.58774  -0.53879  -0.46439
  Beta  occ. eigenvalues --   -0.43947  -0.41046  -0.37915  -0.36158  -0.33686
  Beta  occ. eigenvalues --   -0.33391  -0.31785  -0.30773  -0.29131  -0.27860
  Beta  occ. eigenvalues --   -0.26764  -0.25461  -0.23076  -0.22104  -0.21571
  Beta  occ. eigenvalues --   -0.20223  -0.18898  -0.18451  -0.13905  -0.12293
  Beta  occ. eigenvalues --   -0.11718  -0.08800
  Beta virt. eigenvalues --    0.07659   0.09649   0.10443   0.10848   0.11493
  Beta virt. eigenvalues --    0.12193   0.13136   0.14069   0.14317   0.15236
  Beta virt. eigenvalues --    0.15982   0.16186   0.16426   0.16940   0.17506

 Mulliken charges and spin densities:
               1          2
     1  C   -0.202896  -0.017279
     2  C   -0.333554   0.070228
     3  C    0.804523   0.009466
     4  C   -0.658417   0.128575
     5  C   -0.224258   0.296736
     6  S   -0.925974   0.133745
     7  S    1.307844   0.078991
     8  O   -0.175177   0.011462
     9  O   -0.188655   0.014788
    10  N   -0.457844  -0.022829
    11  C   -0.354799   0.119865
    12  O   -0.418209   0.118386
    13  H    0.143156  -0.000202
    14  H    0.122200   0.028174
    15  H    0.127802   0.023919
    16  H    0.131538   0.004373
    17  H    0.302720   0.001602
 Sum of Mulliken charges =  -1.00000   1.00000

 Dipole moment (field-independent basis, Debye):
    X=              3.1804    Y=             -0.4677    Z=              0.1681  Tot=              3.2190
 Quadrupole moment (field-independent basis, Debye-Ang):
   XX=            -97.6750   YY=           -113.2783   ZZ=            -97.0016
   XY=             -2.2625   XZ=             -0.5324   YZ=             -0.2411

 Summary of Natural Population Analysis:

                                       Natural Population
                Natural  -----------------------------------------------
    Atom  No    Charge         Core      Valence    Rydberg      Total
 -----------------------------------------------------------------------
      C    1   -0.29815      0.99962     2.29339    0.00515     3.29815
      C    2   -0.06061      0.99953     2.04910    0.01198     3.06061
      C    3   -0.14129      0.99943     2.13217    0.00969     3.14129
      C    4   -0.05971      0.99934     2.04994    0.01044     3.05971
      C    5   -0.12192      0.99924     2.11049    0.01219     3.12192
      S    6    0.23304      4.99934     2.74486    0.02276     7.76696
      S    7    1.10109      4.99918     1.79787    0.10187     6.89891
      O    8   -0.45472      0.99990     3.44907    0.00575     4.45472
      O    9   -0.45089      0.99990     3.44502    0.00597     4.45089
      N   10   -0.43723      0.99969     2.92940    0.00814     3.93723
      C   11    0.36453      0.99963     1.61232    0.02353     2.63547
      O   12   -0.27895      0.99987     3.27221    0.00687     4.27895
      H   13    0.10163      0.00000     0.39748    0.00090     0.39837
      H   14    0.10122      0.00000     0.39773    0.00104     0.39878
      H   15    0.10119      0.00000     0.39777    0.00104     0.39881
      H   16    0.10547      0.00000     0.39334    0.00119     0.39453
      H   17    0.19531      0.00000     0.30047    0.00422     0.30469
 =======================================================================
   * Total *   -0.00000     19.99467    31.77261    0.23272    52.00000

 Normal termination of Gaussian 16 at Wed Dec  9 18:29:01 2020.
