 Gaussian 16, Revision A.03,

 -----------------------------------------------------------
 # opt freq B3LYP/6-31G(d) empiricaldispersion=gd3bj scf=xqc
 -----------------------------------------------------------

 -------------------------------
 CID_117524500_JID_9983_neutraal
 -------------------------------
 Symbolic Z-matrix:
 Charge =  0 Multiplicity = 1

 SCF Done:  E(RB3LYP) =  -842.431820790     A.U. after   15 cycles
 SCF Done:  E(RB3LYP) =  -842.397834038     A.U. after   15 cycles
 SCF Done:  E(RB3LYP) =  -842.439523172     A.U. after   12 cycles
 SCF Done:  E(RB3LYP) =  -842.441189416     A.U. after   13 cycles
 SCF Done:  E(RB3LYP) =  -842.441311763     A.U. after   12 cycles
 SCF Done:  E(RB3LYP) =  -842.441648233     A.U. after   12 cycles
 SCF Done:  E(RB3LYP) =  -842.441755275     A.U. after   12 cycles
 SCF Done:  E(RB3LYP) =  -842.441830508     A.U. after   11 cycles
 SCF Done:  E(RB3LYP) =  -842.441888614     A.U. after   11 cycles
 SCF Done:  E(RB3LYP) =  -842.441934382     A.U. after   11 cycles
 SCF Done:  E(RB3LYP) =  -842.442254669     A.U. after    8 cycles
 SCF Done:  E(RB3LYP) =  -842.442259642     A.U. after    9 cycles
 SCF Done:  E(RB3LYP) =  -842.442261256     A.U. after    8 cycles
 SCF Done:  E(RB3LYP) =  -842.442262308     A.U. after    9 cycles
 SCF Done:  E(RB3LYP) =  -842.442263053     A.U. after    8 cycles
 Optimization completed.
    -- Stationary point found.
 Normal termination of Gaussian 16 at Sun Dec 13 16:57:03 2020.

 --------------------------------------------------------------------
 #N Geom=AllCheck Guess=TCheck SCRF=Check GenChk RB3LYP/6-31G(d) Freq
 --------------------------------------------------------------------

 Structure from the checkpoint file:  "JID_9983.chk"
 -------------------------------
 CID_117524500_JID_9983_neutraal
 -------------------------------
 Charge =  0 Multiplicity = 1

 SCF Done:  E(RB3LYP) =  -842.442263053     A.U. after    1 cycles

  Exact polarizability: 197.593  19.703 140.472   7.475 -19.879 142.419
 Approx polarizability: 296.518  33.951 204.657  18.006 -48.445 260.918

                      1                      2                      3
                      A                      A                      A
 Frequencies --     34.4724                45.2393                61.9333
 Red. masses --      4.1966                 4.2021                 4.6505
 Frc consts  --      0.0029                 0.0051                 0.0105
 IR Inten    --      0.7121                 0.3046                 0.2391

                      4                      5                      6
                      A                      A                      A
 Frequencies --     71.2608                74.5037                87.2699
 Red. masses --      3.0630                 2.4799                 1.3545
 Frc consts  --      0.0092                 0.0081                 0.0061
 IR Inten    --      0.1807                 0.0458                 0.4966

                      7                      8                      9
                      A                      A                      A
 Frequencies --    121.8757               159.9982               221.1111
 Red. masses --      3.6462                 4.2421                 3.6028
 Frc consts  --      0.0319                 0.0640                 0.1038
 IR Inten    --      1.3392                 0.0771                 1.6901

                     10                     11                     12
                      A                      A                      A
 Frequencies --    232.5655               240.4253               276.7280
 Red. masses --      3.3431                 3.8583                 2.4833
 Frc consts  --      0.1065                 0.1314                 0.1120
 IR Inten    --      8.5507                 2.4964                 4.7405

                     13                     14                     15
                      A                      A                      A
 Frequencies --    323.1405               330.4645               346.6266
 Red. masses --      2.0986                 2.8185                 2.6738
 Frc consts  --      0.1291                 0.1814                 0.1893
 IR Inten    --      6.9924                 3.9077                 2.4866

                     16                     17                     18
                      A                      A                      A
 Frequencies --    357.1993               406.5595               426.0911
 Red. masses --      3.9931                 3.9850                 3.3940
 Frc consts  --      0.3002                 0.3881                 0.3631
 IR Inten    --      1.5215                 3.9649                 1.2285

                     19                     20                     21
                      A                      A                      A
 Frequencies --    429.4958               443.2926               491.9470
 Red. masses --      4.9212                 3.0111                 4.8991
 Frc consts  --      0.5349                 0.3486                 0.6986
 IR Inten    --      0.8775                 1.1417                 2.6886

                     22                     23                     24
                      A                      A                      A
 Frequencies --    511.0488               525.8016               555.2705
 Red. masses --      2.6626                 3.0722                 2.8207
 Frc consts  --      0.4097                 0.5004                 0.5124
 IR Inten    --     12.7736                 2.8596                 5.4620

                     25                     26                     27
                      A                      A                      A
 Frequencies --    630.2538               656.4218               669.5211
 Red. masses --      3.3145                 6.6826                 4.7755
 Frc consts  --      0.7757                 1.6965                 1.2612
 IR Inten    --      0.2072                 0.3427                 1.0723

                     28                     29                     30
                      A                      A                      A
 Frequencies --    709.8133               713.0365               724.1483
 Red. masses --      2.6861                 3.3293                 3.4237
 Frc consts  --      0.7974                 0.9973                 1.0578
 IR Inten    --      8.0548                 0.5667                14.3795

                     31                     32                     33
                      A                      A                      A
 Frequencies --    738.7940               781.8906               816.5840
 Red. masses --      5.2645                 3.5484                 2.0125
 Frc consts  --      1.6930                 1.2781                 0.7907
 IR Inten    --      1.6390                 9.7552               121.0391

                     34                     35                     36
                      A                      A                      A
 Frequencies --    820.0421               837.3474               842.6742
 Red. masses --      1.6763                 1.6604                 3.3606
 Frc consts  --      0.6642                 0.6859                 1.4060
 IR Inten    --     24.5696                19.5425                19.4659

                     37                     38                     39
                      A                      A                      A
 Frequencies --    876.6501               891.2181               939.0814
 Red. masses --      1.6280                 2.6679                 1.2915
 Frc consts  --      0.7371                 1.2485                 0.6711
 IR Inten    --     14.4831                 8.1284                 1.9459

                     40                     41                     42
                      A                      A                      A
 Frequencies --    940.7074               954.7799               965.1121
 Red. masses --      2.1448                 1.3066                 2.7008
 Frc consts  --      1.1183                 0.7018                 1.4821
 IR Inten    --      9.8984                 0.4236                 2.5196

                     43                     44                     45
                      A                      A                      A
 Frequencies --    972.0882               983.3985               990.5428
 Red. masses --      3.3230                 3.3555                 1.7974
 Frc consts  --      1.8501                 1.9119                 1.0391
 IR Inten    --      3.2043                 0.6026                 0.1894

                     46                     47                     48
                      A                      A                      A
 Frequencies --   1019.6717              1037.5837              1075.5991
 Red. masses --      1.4193                 2.7321                 3.0462
 Frc consts  --      0.8695                 1.7330                 2.0764
 IR Inten    --      0.9526                 0.2547                53.5375

                     49                     50                     51
                      A                      A                      A
 Frequencies --   1080.3756              1087.4648              1118.9820
 Red. masses --      1.7324                 2.1177                 1.8831
 Frc consts  --      1.1914                 1.4755                 1.3892
 IR Inten    --     18.6507                 6.9482                12.3912

                     52                     53                     54
                      A                      A                      A
 Frequencies --   1130.8502              1151.0560              1156.1486
 Red. masses --      5.1161                 1.2586                 3.9512
 Frc consts  --      3.8548                 0.9825                 3.1118
 IR Inten    --     14.9430                 5.4412                17.5232

                     55                     56                     57
                      A                      A                      A
 Frequencies --   1199.4754              1207.7186              1214.0435
 Red. masses --      1.3284                 1.8725                 1.2254
 Frc consts  --      1.1261                 1.6092                 1.0641
 IR Inten    --      6.3769                 6.0240                26.8642

                     58                     59                     60
                      A                      A                      A
 Frequencies --   1230.1473              1246.4176              1260.3639
 Red. masses --      1.7532                 2.8139                 2.6114
 Frc consts  --      1.5631                 2.5757                 2.4441
 IR Inten    --     12.4507                 5.8283               115.2971

                     61                     62                     63
                      A                      A                      A
 Frequencies --   1269.0571              1300.1265              1312.7207
 Red. masses --      1.7005                 1.7009                 1.6285
 Frc consts  --      1.6136                 1.6940                 1.6534
 IR Inten    --     32.1896                 5.9752                40.8916

                     64                     65                     66
                      A                      A                      A
 Frequencies --   1319.0531              1341.6103              1345.9331
 Red. masses --      1.7697                 1.3573                 1.4570
 Frc consts  --      1.8142                 1.4394                 1.5551
 IR Inten    --     25.6617                 2.2264                11.0849

                     67                     68                     69
                      A                      A                      A
 Frequencies --   1358.8808              1380.6206              1389.0087
 Red. masses --      3.5088                 1.3158                 1.4691
 Frc consts  --      3.8175                 1.4777                 1.6699
 IR Inten    --     20.5656                 0.5666                11.3209

                     70                     71                     72
                      A                      A                      A
 Frequencies --   1412.8335              1419.2057              1437.7724
 Red. masses --      1.4507                 1.4574                 3.1135
 Frc consts  --      1.7061                 1.7295                 3.7921
 IR Inten    --     13.0920                 9.7720                13.5811

                     73                     74                     75
                      A                      A                      A
 Frequencies --   1446.0479              1463.9069              1490.1036
 Red. masses --      1.2472                 2.7645                 1.1470
 Frc consts  --      1.5365                 3.4905                 1.5006
 IR Inten    --      0.9455                 0.8428                 3.6872

                     76                     77                     78
                      A                      A                      A
 Frequencies --   1504.4794              1511.8117              1515.7042
 Red. masses --      1.0858                 1.1192                 1.0877
 Frc consts  --      1.4480                 1.5072                 1.4723
 IR Inten    --      2.5300                 5.7820                 7.7836

                     79                     80                     81
                      A                      A                      A
 Frequencies --   1518.5935              1520.8632              1527.2559
 Red. masses --      1.1168                 1.0955                 1.1007
 Frc consts  --      1.5174                 1.4930                 1.5127
 IR Inten    --      1.3167                 2.6592                 5.5971

                     82                     83                     84
                      A                      A                      A
 Frequencies --   1538.7809              1565.2489              1613.2862
 Red. masses --      1.0954                 2.5669                 9.3101
 Frc consts  --      1.5281                 3.7053                14.2767
 IR Inten    --      4.6958               111.2498                22.6795

                     85                     86                     87
                      A                      A                      A
 Frequencies --   1638.9365              1676.7407              1686.2164
 Red. masses --      5.9681                 5.8997                 8.5173
 Frc consts  --      9.4452                 9.7727                14.2686
 IR Inten    --      7.8644                28.8815                11.4102

                     88                     89                     90
                      A                      A                      A
 Frequencies --   3023.6475              3035.7259              3041.1755
 Red. masses --      1.0677                 1.0420                 1.0622
 Frc consts  --      5.7510                 5.6579                 5.7883
 IR Inten    --     41.6238                27.2668                28.7525

                     91                     92                     93
                      A                      A                      A
 Frequencies --   3064.4332              3074.0675              3076.4097
 Red. masses --      1.0670                 1.0593                 1.0850
 Frc consts  --      5.9036                 5.8977                 6.0502
 IR Inten    --     22.5586                25.2903                44.2737

                     94                     95                     96
                      A                      A                      A
 Frequencies --   3077.2284              3082.7524              3093.0864
 Red. masses --      1.0625                 1.1011                 1.0942
 Frc consts  --      5.9279                 6.1652                 6.1680
 IR Inten    --     27.2011                21.6892                26.6420

                     97                     98                     99
                      A                      A                      A
 Frequencies --   3112.4898              3121.2705              3122.5688
 Red. masses --      1.1070                 1.1025                 1.1046
 Frc consts  --      6.3187                 6.3285                 6.3454
 IR Inten    --     42.3136                15.7388                27.9109

                    100                    101                    102
                      A                      A                      A
 Frequencies --   3133.1351              3176.5399              3178.5474
 Red. masses --      1.1064                 1.0893                 1.0888
 Frc consts  --      6.3990                 6.4763                 6.4811
 IR Inten    --     18.5085                16.8204                15.5612

                    103                    104                    105
                      A                      A                      A
 Frequencies --   3215.6641              3237.1439              3481.5097
 Red. masses --      1.0929                 1.0909                 1.0740
 Frc consts  --      6.6583                 6.7353                 7.6697
 IR Inten    --      7.8152                 6.2719                 1.0827

 - Thermochemistry -
 -------------------
 Temperature   298.150 Kelvin.  Pressure   1.00000 Atm.
 Atom     1 has atomic number  6 and mass  12.00000

 Molecular mass:   258.13683 amu.
 Principal axes and moments of inertia in atomic units:
                           1         2         3
     Eigenvalues --  3542.513504342.801436404.18706
           X            0.99748   0.07089   0.00396
           Y           -0.07085   0.99745  -0.00893
           Z           -0.00458   0.00862   0.99995
 This molecule is an asymmetric top.
 Rotational symmetry number  1.
 Warning -- assumption of classical behavior for rotation
           may cause significant error
 Rotational temperatures (Kelvin)      0.02445     0.01994     0.01352
 Rotational constants (GHZ):           0.50945     0.41557     0.28181
 Zero-point vibrational energy     821215.6 (Joules/Mol)
                                  196.27523 (Kcal/Mol)
 Warning -- explicit consideration of  24 degrees of freedom as
           vibrations may cause significant error
 Vibrational temperatures:     49.60    65.09    89.11   102.53   107.19
          (Kelvin)            125.56   175.35   230.20   318.13   334.61
                              345.92   398.15   464.93   475.46   498.72
                              513.93   584.95   613.05   617.95   637.80
                              707.80   735.29   756.51   798.91   906.79
                              944.44   963.29  1021.26  1025.90  1041.89
                             1062.96  1124.97  1174.88  1179.86  1204.76
                             1212.42  1261.30  1282.26  1351.13  1353.47
                             1373.72  1388.58  1398.62  1414.89  1425.17
                             1467.08  1492.85  1547.55  1554.42  1564.62
                             1609.97  1627.04  1656.11  1663.44  1725.78
                             1737.64  1746.74  1769.91  1793.32  1813.38
                             1825.89  1870.59  1888.71  1897.82  1930.28
                             1936.50  1955.13  1986.41  1998.47  2032.75
                             2041.92  2068.63  2080.54  2106.24  2143.93
                             2164.61  2175.16  2180.76  2184.92  2188.18
                             2197.38  2213.96  2252.04  2321.16  2358.06
                             2412.46  2426.09  4350.35  4367.73  4375.57
                             4409.04  4422.90  4426.27  4427.45  4435.39
                             4450.26  4478.18  4490.81  4492.68  4507.88
                             4570.33  4573.22  4626.62  4657.53  5009.12

 Zero-point correction=                           0.312784 (Hartree/Particle)
 Thermal correction to Energy=                    0.329346
 Thermal correction to Enthalpy=                  0.330291
 Thermal correction to Gibbs Free Energy=         0.267866
 Sum of electronic and zero-point Energies=           -842.129479
 Sum of electronic and thermal Energies=              -842.112917
 Sum of electronic and thermal Enthalpies=            -842.111972
 Sum of electronic and thermal Free Energies=         -842.174397

                     E (Thermal)             CV                S
                      KCal/Mol        Cal/Mol-Kelvin    Cal/Mol-Kelvin
 Total                  206.668             64.735            131.383
 Electronic               0.000              0.000              0.000
 Translational            0.889              2.981             42.545
 Rotational               0.889              2.981             32.955
 Vibrational            204.891             58.773             55.884
 Vibration     1          0.594              1.983              5.554
 Vibration     2          0.595              1.979              5.015
 Vibration     3          0.597              1.972              4.395
 Vibration     4          0.598              1.968              4.118
 Vibration     5          0.599              1.966              4.031
 Vibration     6          0.601              1.958              3.720
 Vibration     7          0.609              1.931              3.070
 Vibration     8          0.622              1.891              2.550
 Vibration     9          0.648              1.809              1.950
 Vibration    10          0.653              1.791              1.859
 Vibration    11          0.658              1.779              1.800
 Vibration    12          0.678              1.716              1.554
 Vibration    13          0.708              1.629              1.294
 Vibration    14          0.713              1.615              1.258
 Vibration    15          0.725              1.582              1.181
 Vibration    16          0.732              1.560              1.134
 Vibration    17          0.771              1.456              0.939
 Vibration    18          0.788              1.413              0.872
 Vibration    19          0.791              1.406              0.860
 Vibration    20          0.803              1.376              0.816
 Vibration    21          0.848              1.268              0.679
 Vibration    22          0.866              1.226              0.631
 Vibration    23          0.881              1.193              0.597
 Vibration    24          0.911              1.128              0.533

 Optimization completed.
    -- Stationary point found.
 Normal termination of Gaussian 16 at Sun Dec 13 17:18:40 2020.

 ----------------------------------------------------------------------
 # B3LYP/6-311++G(d,p) empiricaldispersion=gd3bj scf=xqc pop=npa geom=c
 heck
 ----------------------------------------------------------------------

 ---------------------------------------
 CID_117524500_JID_9983_Energie_neutraal
 ---------------------------------------
 Structure from the checkpoint file:  "JID_9983.chk"
 Charge =  0 Multiplicity = 1

 SCF Done:  E(RB3LYP) =  -842.667330049     A.U. after   16 cycles
 Normal termination of Gaussian 16 at Sun Dec 13 17:26:51 2020.

 ----------------------------------------------------------------------
 # B3LYP/6-311++G(d,p) empiricaldispersion=gd3bj scf=xqc pop=npa geom=c
 heck
 ----------------------------------------------------------------------

 -------------------------------------
 CID_117524500_JID_9983_Energie_kation
 -------------------------------------
 Structure from the checkpoint file:  "JID_9983.chk"
 Charge =  1 Multiplicity = 2

 SCF Done:  E(UB3LYP) =  -842.393252622     A.U. after   23 cycles
 Normal termination of Gaussian 16 at Sun Dec 13 17:42:52 2020.
 Gaussian 16:  ES64L-G16RevA.03 25-Dec-2016

 ----------------------------------------------------------------------
 # B3LYP/6-311++G(d,p) empiricaldispersion=gd3bj scf=xqc pop=npa geom=c
 heck
 ----------------------------------------------------------------------

 ------------------------------------
 CID_117524500_JID_9983_Energie_anion
 ------------------------------------
 Structure from the checkpoint file:  "JID_9983.chk"
 Charge = -1 Multiplicity = 2

                         Standard orientation:
 ---------------------------------------------------------------------
 Center     Atomic      Atomic             Coordinates (Angstroms)
 Number     Number       Type             X           Y           Z
 ---------------------------------------------------------------------
      1          6           0        2.267641    3.016690    0.404043
      2          6           0        0.867531    2.461035    0.305172
      3          6           0        0.062795    2.712597   -0.815664
      4          6           0       -1.201426    2.148250   -0.940975
      5          6           0       -1.703209    1.313121    0.063560
      6          6           0       -0.932039    1.073528    1.202580
      7          6           0        0.338809    1.642115    1.306015
      8          8           0       -2.964081    0.810377   -0.156990
      9          6           0       -3.375509   -0.389153    0.487499
     10          6           0       -2.836946   -1.652387   -0.212931
     11          6           0       -1.352405   -1.748974   -0.158590
     12          7           0       -0.599818   -2.163346    0.818902
     13          6           0        0.698562   -1.856125    0.413896
     14          6           0        0.658977   -1.276878   -0.811184
     15          8           0       -0.652766   -1.203837   -1.204951
     16          6           0        1.806685   -0.683426   -1.555946
     17          7           0        3.073882   -1.063001   -0.906500
     18          6           0        3.006041   -1.035531    0.563292
     19          6           0        1.969381   -2.004673    1.186310
     20          1           0        2.996644    2.355549   -0.084173
     21          1           0        2.345572    3.996851   -0.078634
     22          1           0        2.580108    3.129637    1.447646
     23          1           0        0.438012    3.353799   -1.609982
     24          1           0       -1.815086    2.329145   -1.817428
     25          1           0       -1.284304    0.426246    1.995555
     26          1           0        0.930839    1.435098    2.194560
     27          1           0       -3.098270   -0.396258    1.546680
     28          1           0       -4.467095   -0.381447    0.425117
     29          1           0       -3.269922   -2.527159    0.283902
     30          1           0       -3.165727   -1.646518   -1.256404
     31          1           0        1.716250    0.411416   -1.560306
     32          1           0        1.838918   -1.004364   -2.603658
     33          1           0        3.313038   -2.009170   -1.200055
     34          1           0        4.008314   -1.246422    0.950732
     35          1           0        2.749460   -0.010937    0.855030
     36          1           0        2.340729   -3.039419    1.152710
     37          1           0        1.809518   -1.765075    2.244959
 ---------------------------------------------------------------------

 SCF Done:  E(UB3LYP) =  -842.652544102     A.U. after   33 cycles
 SCF Done:  E(UB3LYP) =  -842.652544103     a.u. after    1 cycles

 The electronic state is 2-A.
 Alpha  occ. eigenvalues --  -19.10075 -19.06114 -14.21334 -14.21153 -10.16561
 Alpha  occ. eigenvalues --  -10.14381 -10.14284 -10.12490 -10.11478 -10.10229
 Alpha  occ. eigenvalues --  -10.10007 -10.09936 -10.09028 -10.08604 -10.08587
 Alpha  occ. eigenvalues --  -10.08369 -10.08197 -10.08171 -10.07984  -1.03412
 Alpha  occ. eigenvalues --   -0.97615  -0.82950  -0.82171  -0.77049  -0.72044
 Alpha  occ. eigenvalues --   -0.68839  -0.67148  -0.66304  -0.65754  -0.60825
 Alpha  occ. eigenvalues --   -0.57455  -0.54603  -0.54343  -0.52496  -0.50431
 Alpha  occ. eigenvalues --   -0.48762  -0.46646  -0.44754  -0.41894  -0.40421
 Alpha  occ. eigenvalues --   -0.40046  -0.39267  -0.38087  -0.36814  -0.36171
 Alpha  occ. eigenvalues --   -0.35878  -0.34933  -0.33772  -0.33492  -0.33311
 Alpha  occ. eigenvalues --   -0.31970  -0.31543  -0.31118  -0.30328  -0.29790
 Alpha  occ. eigenvalues --   -0.28873  -0.28020  -0.27281  -0.26863  -0.26413
 Alpha  occ. eigenvalues --   -0.25816  -0.24096  -0.22597  -0.21426  -0.19755
 Alpha  occ. eigenvalues --   -0.16830  -0.14531  -0.14013  -0.12522   0.04172
 Alpha virt. eigenvalues --    0.05490   0.06194   0.06727   0.07001   0.07874
 Alpha virt. eigenvalues --    0.08080   0.08346   0.08556   0.08813   0.09120
 Alpha virt. eigenvalues --    0.09920   0.10470   0.10974   0.11052   0.11894

  Beta  occ. eigenvalues --  -19.10069 -19.06110 -14.21315 -14.21135 -10.16552
  Beta  occ. eigenvalues --  -10.14380 -10.14257 -10.12487 -10.11465 -10.10210
  Beta  occ. eigenvalues --  -10.09991 -10.09937 -10.09028 -10.08595 -10.08578
  Beta  occ. eigenvalues --  -10.08364 -10.08195 -10.08154 -10.07964  -1.03401
  Beta  occ. eigenvalues --   -0.97606  -0.82923  -0.82140  -0.77040  -0.72011
  Beta  occ. eigenvalues --   -0.68819  -0.67118  -0.66287  -0.65729  -0.60791
  Beta  occ. eigenvalues --   -0.57416  -0.54566  -0.54303  -0.52470  -0.50402
  Beta  occ. eigenvalues --   -0.48735  -0.46615  -0.44729  -0.41855  -0.40377
  Beta  occ. eigenvalues --   -0.40020  -0.39240  -0.38059  -0.36789  -0.36143
  Beta  occ. eigenvalues --   -0.35845  -0.34911  -0.33750  -0.33475  -0.33290
  Beta  occ. eigenvalues --   -0.31936  -0.31510  -0.31093  -0.30304  -0.29759
  Beta  occ. eigenvalues --   -0.28844  -0.27992  -0.27257  -0.26833  -0.26389
  Beta  occ. eigenvalues --   -0.25783  -0.24077  -0.22567  -0.21385  -0.19714
  Beta  occ. eigenvalues --   -0.16819  -0.14507  -0.13991  -0.12501
  Beta virt. eigenvalues --    0.06123   0.06670   0.06899   0.06945   0.07307
  Beta virt. eigenvalues --    0.08019   0.08312   0.08808   0.08984   0.09072
  Beta virt. eigenvalues --    0.09502   0.10286   0.10897   0.11333   0.11398

 Mulliken charges and spin densities:
               1          2
     1  C    1.152136  -1.827195
     2  C    0.263207   0.067963
     3  C   -0.042422  -0.107856
     4  C   -0.959778   0.901979
     5  C   -0.878660  -0.187740
     6  C    0.565927  -0.240163
     7  C   -0.233591   0.081631
     8  O   -0.008296  -0.009005
     9  C    0.451894  -0.706207
    10  C    1.418424  -1.779359
    11  C   -1.010625   0.594519
    12  N    0.029899   0.159688
    13  C    0.595405  -0.511195
    14  C   -0.684201   1.548978
    15  O    0.140202   0.039070
    16  C    0.412332  -1.534301
    17  N   -0.106216   0.111349
    18  C    0.031195  -0.318473
    19  C   -0.718091   0.003489
    20  H   -0.004592   0.197264
    21  H   -0.122051   0.257805
    22  H   -0.065708   0.206551
    23  H   -0.179648   0.357846
    24  H   -0.065516   0.241569
    25  H    0.088974   0.090206
    26  H   -0.246959   0.435430
    27  H    0.064433   0.081829
    28  H   -0.934837   1.154546
    29  H   -0.180502   0.358872
    30  H    0.091349   0.105610
    31  H    0.528305  -0.285128
    32  H   -0.238939   0.410106
    33  H   -0.041729   0.296669
    34  H   -0.656922   0.861605
    35  H    0.697193  -0.560837
    36  H   -0.125427   0.311532
    37  H   -0.026164   0.191352
 Sum of Mulliken charges =  -1.00000   1.00000

 Dipole moment (field-independent basis, Debye):
    X=             -0.2751    Y=              1.9364    Z=             -0.5545  Tot=              2.0330
 Quadrupole moment (field-independent basis, Debye-Ang):
   XX=           -204.4527   YY=           -166.3430   ZZ=           -146.7075
   XY=              0.5816   XZ=              1.3525   YZ=              2.4355

 Summary of Natural Population Analysis:

                                       Natural Population
                Natural  -----------------------------------------------
    Atom  No    Charge         Core      Valence    Rydberg      Total
 -----------------------------------------------------------------------
      C    1   -0.29380      0.99963     2.28838    0.00579     3.29380
      C    2   -0.03456      0.99951     2.02575    0.00930     3.03456
      C    3   -0.09719      0.99952     2.08845    0.00922     3.09719
      C    4   -0.11472      0.99951     2.10554    0.00966     3.11472
      C    5    0.15651      0.99936     1.83044    0.01369     2.84349
      C    6   -0.13464      0.99950     2.12678    0.00836     3.13464
      C    7   -0.09197      0.99952     2.08332    0.00913     3.09197
      O    8   -0.28086      0.99986     3.27107    0.00994     4.28086
      C    9   -0.00156      0.99955     1.98956    0.01245     3.00156
      C   10   -0.23068      0.99957     2.22182    0.00929     3.23068
      C   11    0.26598      0.99958     1.71408    0.02035     2.73402
      N   12   -0.25079      0.99966     2.74250    0.00863     3.75079
      C   13    0.04067      0.99940     1.94542    0.01451     2.95933
      C   14    0.12543      0.99930     1.86078    0.01448     2.87457
      O   15   -0.23604      0.99985     3.22894    0.00725     4.23604
      C   16   -0.10646      0.99958     2.09521    0.01167     3.10646
      N   17   -0.33099      0.99977     2.81869    0.01253     3.83099
      C   18   -0.08654      0.99963     2.07541    0.01150     3.08654
      C   19   -0.20816      0.99959     2.19954    0.00903     3.20816
      H   20    0.10638      0.00000     0.39257    0.00105     0.39362
      H   21    0.10204      0.00000     0.39711    0.00085     0.39796
      H   22    0.10271      0.00000     0.39637    0.00091     0.39729
      H   23    0.09984      0.00000     0.39925    0.00091     0.40016
      H   24    0.10558      0.00000     0.39302    0.00140     0.39442
      H   25    0.10805      0.00000     0.39017    0.00178     0.39195
      H   26    0.09978      0.00000     0.39878    0.00145     0.40022
      H   27    0.08508      0.00000     0.41335    0.00157     0.41492
      H   28    0.09746      0.00000     0.39982    0.00271     0.40254
      H   29    0.11713      0.00000     0.38141    0.00146     0.38287
      H   30    0.11192      0.00000     0.38671    0.00138     0.38808
      H   31    0.10273      0.00000     0.39523    0.00204     0.39727
      H   32    0.10219      0.00000     0.39651    0.00130     0.39781
      H   33    0.17205      0.00000     0.32479    0.00316     0.32795
      H   34    0.09746      0.00000     0.40091    0.00164     0.40254
      H   35    0.09202      0.00000     0.40543    0.00255     0.40798
      H   36    0.10217      0.00000     0.39607    0.00176     0.39783
      H   37    0.10579      0.00000     0.39297    0.00124     0.39421
 =======================================================================
   * Total *    0.00000     18.99190    49.77215    0.23595    69.00000

 Normal termination of Gaussian 16 at Sun Dec 13 18:06:06 2020.
