 Gaussian 16, Revision A.03,

 -----------------------------------------------------------
 # opt freq B3LYP/6-31G(d) empiricaldispersion=gd3bj scf=xqc
 -----------------------------------------------------------

 -------------------------------
 CID_116804489_JID_2367_neutraal
 -------------------------------
 Symbolic Z-matrix:
 Charge =  0 Multiplicity = 1

 SCF Done:  E(RB3LYP) =  -536.079325148     A.U. after   14 cycles
 SCF Done:  E(RB3LYP) =  -536.082225329     A.U. after   12 cycles
 SCF Done:  E(RB3LYP) =  -536.082694196     A.U. after   11 cycles
 SCF Done:  E(RB3LYP) =  -536.082831366     A.U. after   10 cycles
 SCF Done:  E(RB3LYP) =  -536.082911455     A.U. after   10 cycles
 SCF Done:  E(RB3LYP) =  -536.082971912     A.U. after   11 cycles
 SCF Done:  E(RB3LYP) =  -536.083035900     A.U. after   11 cycles
 SCF Done:  E(RB3LYP) =  -536.083114719     A.U. after   11 cycles
 SCF Done:  E(RB3LYP) =  -536.083110282     A.U. after   13 cycles
 SCF Done:  E(RB3LYP) =  -536.083307553     A.U. after   12 cycles
 SCF Done:  E(RB3LYP) =  -536.084122680     A.U. after   11 cycles
 SCF Done:  E(RB3LYP) =  -536.084128784     A.U. after   11 cycles
 SCF Done:  E(RB3LYP) =  -536.084129481     A.U. after    9 cycles
 SCF Done:  E(RB3LYP) =  -536.084129572     A.U. after    8 cycles
 SCF Done:  E(RB3LYP) =  -536.084129568     A.U. after    8 cycles
 SCF Done:  E(RB3LYP) =  -536.084129562     A.U. after    6 cycles
 Optimization completed.
    -- Stationary point found.
 Normal termination of Gaussian 16 at Wed Dec  9 17:29:51 2020.

 --------------------------------------------------------------------
 #N Geom=AllCheck Guess=TCheck SCRF=Check GenChk RB3LYP/6-31G(d) Freq
 --------------------------------------------------------------------

 Structure from the checkpoint file:  "JID_2367.chk"
 -------------------------------
 CID_116804489_JID_2367_neutraal
 -------------------------------
 Charge =  0 Multiplicity = 1

 SCF Done:  E(RB3LYP) =  -536.084129561     A.U. after    1 cycles

  Exact polarizability: 128.043   8.260  84.353  -1.947   0.691  97.473
 Approx polarizability: 169.141  18.103 120.495  -1.851   1.756 160.557

                      1                      2                      3
                      A                      A                      A
 Frequencies --     15.0624                35.2067                56.6861
 Red. masses --      3.7604                 2.4650                 3.2657
 Frc consts  --      0.0005                 0.0018                 0.0062
 IR Inten    --      0.9524                 0.2910                 0.8004

                      4                      5                      6
                      A                      A                      A
 Frequencies --     74.1812               105.9392               182.0932
 Red. masses --      2.9672                 3.4134                 3.0476
 Frc consts  --      0.0096                 0.0226                 0.0595
 IR Inten    --      0.4020                 0.1781                 1.4504

                      7                      8                      9
                      A                      A                      A
 Frequencies --    207.0086               230.9258               306.2670
 Red. masses --      2.0567                 1.4566                 3.3050
 Frc consts  --      0.0519                 0.0458                 0.1827
 IR Inten    --      0.7457                 0.6801                 1.0877

                     10                     11                     12
                      A                      A                      A
 Frequencies --    339.9852               365.9202               417.3260
 Red. masses --      2.8515                 2.1367                 3.8599
 Frc consts  --      0.1942                 0.1686                 0.3961
 IR Inten    --      0.9629                 1.1450                 1.6920

                     13                     14                     15
                      A                      A                      A
 Frequencies --    459.4021               529.5027               597.8795
 Red. masses --      3.5065                 3.7898                 4.4606
 Frc consts  --      0.4360                 0.6260                 0.9394
 IR Inten    --      6.4003                 8.3255                11.6767

                     16                     17                     18
                      A                      A                      A
 Frequencies --    665.0177               690.3238               732.1329
 Red. masses --      5.4103                 2.3593                 3.3756
 Frc consts  --      1.4097                 0.6624                 1.0661
 IR Inten    --      2.8292                15.5463                 0.4878

                     19                     20                     21
                      A                      A                      A
 Frequencies --    776.1620               778.9732               804.0065
 Red. masses --      1.5769                 1.1205                 1.1584
 Frc consts  --      0.5597                 0.4006                 0.4412
 IR Inten    --     10.5712                 0.3147                 0.8605

                     22                     23                     24
                      A                      A                      A
 Frequencies --    821.6341               847.9999               861.9077
 Red. masses --      1.4356                 1.6140                 1.6471
 Frc consts  --      0.5710                 0.6838                 0.7209
 IR Inten    --      1.8979                16.8634                 8.8778

                     25                     26                     27
                      A                      A                      A
 Frequencies --    921.7543               956.3085               966.6931
 Red. masses --      1.8272                 2.3365                 2.7160
 Frc consts  --      0.9147                 1.2589                 1.4954
 IR Inten    --      4.3140                 4.8696                22.9319

                     28                     29                     30
                      A                      A                      A
 Frequencies --   1006.5968              1021.0939              1047.9546
 Red. masses --      2.6748                 5.1252                 2.1695
 Frc consts  --      1.5968                 3.1484                 1.4038
 IR Inten    --     21.6552                51.0617                40.3884

                     31                     32                     33
                      A                      A                      A
 Frequencies --   1062.6412              1075.6195              1085.3464
 Red. masses --      2.2473                 1.8389                 1.3925
 Frc consts  --      1.4952                 1.2535                 0.9665
 IR Inten    --     55.4453                29.0044                 0.2710

                     34                     35                     36
                      A                      A                      A
 Frequencies --   1106.9599              1120.7855              1143.9797
 Red. masses --      1.8173                 1.6605                 1.1242
 Frc consts  --      1.3120                 1.2290                 0.8668
 IR Inten    --     16.0533                 6.4874                 0.9213

                     37                     38                     39
                      A                      A                      A
 Frequencies --   1189.5177              1207.9531              1209.2584
 Red. masses --      1.9548                 1.4850                 1.4796
 Frc consts  --      1.6297                 1.2767                 1.2748
 IR Inten    --     13.0700                 0.4498                 3.6659

                     40                     41                     42
                      A                      A                      A
 Frequencies --   1214.0082              1236.6100              1283.7090
 Red. masses --      1.8398                 1.9362                 1.7343
 Frc consts  --      1.5976                 1.7445                 1.6839
 IR Inten    --     17.5457                 0.4155                13.8351

                     43                     44                     45
                      A                      A                      A
 Frequencies --   1317.7648              1369.2314              1385.1358
 Red. masses --      1.2117                 1.8270                 1.7170
 Frc consts  --      1.2397                 2.0181                 1.9409
 IR Inten    --      4.2682                86.4680                 7.2298

                     46                     47                     48
                      A                      A                      A
 Frequencies --   1405.5076              1419.9751              1424.6490
 Red. masses --      1.3303                 3.1956                 4.9730
 Frc consts  --      1.5483                 3.7964                 5.9468
 IR Inten    --      4.6766                71.7708                30.0337

                     49                     50                     51
                      A                      A                      A
 Frequencies --   1435.9616              1450.8492              1489.4431
 Red. masses --      1.2737                 1.6895                 3.2783
 Frc consts  --      1.5474                 2.0953                 4.2850
 IR Inten    --      9.1151                11.1939                45.2116

                     52                     53                     54
                      A                      A                      A
 Frequencies --   1496.6327              1511.3942              1518.4245
 Red. masses --      1.0892                 1.1354                 1.0458
 Frc consts  --      1.4374                 1.5281                 1.4206
 IR Inten    --      0.8642                 6.7904                 9.2148

                     55                     56                     57
                      A                      A                      A
 Frequencies --   1519.0489              1536.0037              1538.2502
 Red. masses --      1.1573                 1.0703                 1.3451
 Frc consts  --      1.5735                 1.4878                 1.8753
 IR Inten    --      1.9936                 1.7128                 2.0084

                     58                     59                     60
                      A                      A                      A
 Frequencies --   1620.1159              3012.9108              3058.4916
 Red. masses --      5.1033                 1.0687                 1.0354
 Frc consts  --      7.8922                 5.7158                 5.7067
 IR Inten    --     44.5768                37.6896                19.2260

                     61                     62                     63
                      A                      A                      A
 Frequencies --   3081.5276              3104.1626              3120.8874
 Red. masses --      1.0607                 1.0954                 1.1040
 Frc consts  --      5.9341                 6.2189                 6.3356
 IR Inten    --     29.1223                44.8059                 8.4765

                     64                     65                     66
                      A                      A                      A
 Frequencies --   3133.7250              3144.8060              3149.6703
 Red. masses --      1.1026                 1.0538                 1.1048
 Frc consts  --      6.3793                 6.1404                 6.4575
 IR Inten    --     35.1078                20.9273                22.1007

                     67                     68                     69
                      A                      A                      A
 Frequencies --   3155.3230              3163.2546              3221.2194
 Red. masses --      1.0569                 1.0894                 1.1185
 Frc consts  --      6.1999                 6.4227                 6.8377
 IR Inten    --     14.0539                10.3402                 3.0574

                     70                     71                     72
                      A                      A                      A
 Frequencies --   3237.7285              3266.2975              3279.5055
 Red. masses --      1.1161                 1.0967                 1.0978
 Frc consts  --      6.8935                 6.8936                 6.9567
 IR Inten    --     19.7653                 5.0914                 0.4334

 - Thermochemistry -
 -------------------
 Temperature   298.150 Kelvin.  Pressure   1.00000 Atm.
 Atom     1 has atomic number  6 and mass  12.00000

 Molecular mass:   166.11061 amu.
 Principal axes and moments of inertia in atomic units:
                           1         2         3
     Eigenvalues --  1082.360773331.272463744.51589
           X            0.99994   0.00640  -0.00900
           Y           -0.00643   0.99997  -0.00313
           Z            0.00898   0.00319   0.99995
 This molecule is an asymmetric top.
 Rotational symmetry number  1.
 Warning -- assumption of classical behavior for rotation
           may cause significant error
 Rotational temperatures (Kelvin)      0.08002     0.02600     0.02313
 Rotational constants (GHZ):           1.66741     0.54176     0.48197
 Zero-point vibrational energy     588121.5 (Joules/Mol)
                                  140.56440 (Kcal/Mol)
 Warning -- explicit consideration of  15 degrees of freedom as
           vibrations may cause significant error
 Vibrational temperatures:     21.67    50.65    81.56   106.73   152.42
          (Kelvin)            261.99   297.84   332.25   440.65   489.16
                              526.48   600.44   660.98   761.84   860.22
                              956.81   993.22  1053.38  1116.72  1120.77
                             1156.79  1182.15  1220.08  1240.09  1326.20
                             1375.91  1390.86  1448.27  1469.13  1507.77
                             1528.90  1547.58  1561.57  1592.67  1612.56
                             1645.93  1711.45  1737.98  1739.85  1746.69
                             1779.21  1846.97  1895.97  1970.02  1992.90
                             2022.21  2043.03  2049.75  2066.03  2087.45
                             2142.98  2153.32  2174.56  2184.67  2185.57
                             2209.97  2213.20  2330.99  4334.91  4400.49
                             4433.63  4466.20  4490.26  4508.73  4524.67
                             4531.67  4539.81  4551.22  4634.62  4658.37
                             4699.47  4718.48

 Zero-point correction=                           0.224004 (Hartree/Particle)
 Thermal correction to Energy=                    0.236004
 Thermal correction to Enthalpy=                  0.236948
 Thermal correction to Gibbs Free Energy=         0.183222
 Sum of electronic and zero-point Energies=           -535.860126
 Sum of electronic and thermal Energies=              -535.848126
 Sum of electronic and thermal Enthalpies=            -535.847182
 Sum of electronic and thermal Free Energies=         -535.900907

                     E (Thermal)             CV                S
                      KCal/Mol        Cal/Mol-Kelvin    Cal/Mol-Kelvin
 Total                  148.095             43.975            113.075
 Electronic               0.000              0.000              0.000
 Translational            0.889              2.981             41.231
 Rotational               0.889              2.981             30.980
 Vibrational            146.317             38.014             40.864
 Vibration     1          0.593              1.986              7.197
 Vibration     2          0.594              1.982              5.512
 Vibration     3          0.596              1.975              4.569
 Vibration     4          0.599              1.966              4.039
 Vibration     5          0.605              1.944              3.342
 Vibration     6          0.630              1.864              2.307
 Vibration     7          0.641              1.830              2.070
 Vibration     8          0.653              1.794              1.872
 Vibration     9          0.697              1.662              1.382
 Vibration    10          0.720              1.596              1.212
 Vibration    11          0.739              1.542              1.097
 Vibration    12          0.780              1.433              0.901
 Vibration    13          0.817              1.340              0.768
 Vibration    14          0.884              1.185              0.588
 Vibration    15          0.956              1.036              0.453

 Optimization completed.
    -- Stationary point found.
 Normal termination of Gaussian 16 at Wed Dec  9 17:35:26 2020.

 ----------------------------------------------------------------------
 # B3LYP/6-311++G(d,p) empiricaldispersion=gd3bj scf=xqc pop=npa geom=c
 heck
 ----------------------------------------------------------------------

 ---------------------------------------
 CID_116804489_JID_2367_Energie_neutraal
 ---------------------------------------
 Structure from the checkpoint file:  "JID_2367.chk"
 Charge =  0 Multiplicity = 1

 SCF Done:  E(RB3LYP) =  -536.231360840     A.U. after   14 cycles
 Normal termination of Gaussian 16 at Wed Dec  9 17:38:33 2020.

 ----------------------------------------------------------------------
 # B3LYP/6-311++G(d,p) empiricaldispersion=gd3bj scf=xqc pop=npa geom=c
 heck
 ----------------------------------------------------------------------

 -------------------------------------
 CID_116804489_JID_2367_Energie_kation
 -------------------------------------
 Structure from the checkpoint file:  "JID_2367.chk"
 Charge =  1 Multiplicity = 2

 SCF Done:  E(UB3LYP) =  -535.928254554     A.U. after   22 cycles
 Normal termination of Gaussian 16 at Wed Dec  9 17:44:43 2020.
 Gaussian 16:  ES64L-G16RevA.03 25-Dec-2016

 ----------------------------------------------------------------------
 # B3LYP/6-311++G(d,p) empiricaldispersion=gd3bj scf=xqc pop=npa geom=c
 heck
 ----------------------------------------------------------------------

 ------------------------------------
 CID_116804489_JID_2367_Energie_anion
 ------------------------------------
 Structure from the checkpoint file:  "JID_2367.chk"
 Charge = -1 Multiplicity = 2

                         Standard orientation:
 ---------------------------------------------------------------------
 Center     Atomic      Atomic             Coordinates (Angstroms)
 Number     Number       Type             X           Y           Z
 ---------------------------------------------------------------------
      1          6           0        3.236367    1.718627   -0.413574
      2          6           0        3.275295    0.191177   -0.377178
      3          7           0        1.994994   -0.380994    0.007389
      4          6           0        0.999130   -0.823599   -0.809402
      5          6           0       -0.063608   -1.148095    0.020474
      6          6           0        0.389436   -0.855500    1.325900
      7          7           0        1.638753   -0.386716    1.311210
      8          8           0       -1.269189   -1.683948   -0.342603
      9          6           0       -2.228109   -0.735031   -0.838371
     10          6           0       -2.741605    0.203979    0.220727
     11          6           0       -2.007938    1.489008    0.516361
     12          6           0       -3.332825    1.530067   -0.199067
     13          1           0        2.506435    2.071799   -1.149830
     14          1           0        4.220081    2.120334   -0.680104
     15          1           0        2.952938    2.107386    0.568608
     16          1           0        3.538819   -0.222282   -1.355719
     17          1           0        4.013298   -0.160373    0.348736
     18          1           0        1.118406   -0.891866   -1.880672
     19          1           0       -0.141636   -0.980934    2.259471
     20          1           0       -1.788359   -0.161494   -1.668458
     21          1           0       -3.038362   -1.351321   -1.240237
     22          1           0       -3.212123   -0.296154    1.064723
     23          1           0       -1.961822    1.825358    1.547756
     24          1           0       -1.108776    1.696021   -0.056457
     25          1           0       -3.333431    1.772745   -1.259141
     26          1           0       -4.205043    1.892531    0.336737
 ---------------------------------------------------------------------

 SCF Done:  E(UB3LYP) =  -536.216157219     A.U. after   31 cycles

 The electronic state is 2-A.
 Alpha  occ. eigenvalues --  -19.04240 -14.28808 -14.22869 -10.12790 -10.11629
 Alpha  occ. eigenvalues --  -10.11295 -10.10064 -10.08687 -10.08569 -10.07966
 Alpha  occ. eigenvalues --  -10.07677 -10.06360  -0.96154  -0.94450  -0.76906
 Alpha  occ. eigenvalues --   -0.74691  -0.68681  -0.64519  -0.60909  -0.54597
 Alpha  occ. eigenvalues --   -0.50906  -0.50395  -0.48132  -0.46724  -0.43830
 Alpha  occ. eigenvalues --   -0.40670  -0.38315  -0.37797  -0.37340  -0.35780
 Alpha  occ. eigenvalues --   -0.34139  -0.33690  -0.31945  -0.29023  -0.28401
 Alpha  occ. eigenvalues --   -0.27609  -0.27287  -0.25989  -0.25781  -0.21529
 Alpha  occ. eigenvalues --   -0.20639  -0.19850  -0.17497  -0.15582  -0.13285
 Alpha  occ. eigenvalues --    0.04543
 Alpha virt. eigenvalues --    0.06182   0.07452   0.08042   0.08667   0.08755
 Alpha virt. eigenvalues --    0.09611   0.10224   0.10671   0.11296   0.11624
 Alpha virt. eigenvalues --    0.11809   0.12714   0.13148   0.14640   0.14710

  Beta  occ. eigenvalues --  -19.04237 -14.28811 -14.22861 -10.12772 -10.11629
  Beta  occ. eigenvalues --  -10.11263 -10.10034 -10.08685 -10.08565 -10.07936
  Beta  occ. eigenvalues --  -10.07665 -10.06320  -0.96146  -0.94442  -0.76890
  Beta  occ. eigenvalues --   -0.74669  -0.68653  -0.64482  -0.60877  -0.54530
  Beta  occ. eigenvalues --   -0.50840  -0.50373  -0.48096  -0.46673  -0.43793
  Beta  occ. eigenvalues --   -0.40626  -0.38274  -0.37761  -0.37310  -0.35756
  Beta  occ. eigenvalues --   -0.34097  -0.33653  -0.31926  -0.28976  -0.28374
  Beta  occ. eigenvalues --   -0.27552  -0.27258  -0.25959  -0.25745  -0.21508
  Beta  occ. eigenvalues --   -0.20619  -0.19832  -0.17484  -0.15557  -0.13270
  Beta virt. eigenvalues --    0.06754   0.07555   0.08109   0.08411   0.09079
  Beta virt. eigenvalues --    0.09510   0.10155   0.10358   0.10949   0.11843
  Beta virt. eigenvalues --    0.12045   0.12242   0.12934   0.13471   0.14672

 Mulliken charges and spin densities:
               1          2
     1  C    1.066628  -1.552965
     2  C    0.011468  -0.176915
     3  N    0.291826  -0.004816
     4  C   -0.308976   0.218720
     5  C    0.664374  -0.738199
     6  C    0.202517  -0.512167
     7  N   -0.358728   0.170044
     8  O   -0.171591   0.029063
     9  C    0.693939  -1.230434
    10  C   -1.261121   1.604864
    11  C   -0.028710  -0.269293
    12  C    0.852863  -1.372838
    13  H   -0.417379   0.576650
    14  H   -0.496418   0.632977
    15  H    0.081873   0.072095
    16  H   -0.577330   0.732882
    17  H   -0.128420   0.290802
    18  H   -0.874189   1.056757
    19  H    0.124111   0.024768
    20  H   -0.138271   0.292888
    21  H    0.027788   0.124305
    22  H    0.023556   0.172117
    23  H   -0.015766   0.167471
    24  H    0.397420  -0.260052
    25  H   -0.299990   0.434409
    26  H   -0.361472   0.516866
 Sum of Mulliken charges =  -1.00000   1.00000

 Dipole moment (field-independent basis, Debye):
    X=             -3.3299    Y=             -2.7207    Z=              4.7699  Tot=              6.4220
 Quadrupole moment (field-independent basis, Debye-Ang):
   XX=           -150.9249   YY=           -110.9261   ZZ=           -114.8033
   XY=              0.6321   XZ=              9.1858   YZ=              2.0986

 Summary of Natural Population Analysis:

                                       Natural Population
                Natural  -----------------------------------------------
    Atom  No    Charge         Core      Valence    Rydberg      Total
 -----------------------------------------------------------------------
      C    1   -0.28871      0.99966     2.28396    0.00509     3.28871
      C    2   -0.08132      0.99962     2.06986    0.01184     3.08132
      N    3   -0.10469      0.99967     2.59109    0.01393     3.60469
      C    4   -0.02703      0.99949     2.01541    0.01213     3.02703
      C    5    0.09422      0.99935     1.89124    0.01519     2.90578
      C    6   -0.03126      0.99957     2.01824    0.01346     3.03126
      N    7   -0.15379      0.99974     2.64326    0.01079     3.65379
      O    8   -0.28819      0.99986     3.27941    0.00891     4.28819
      C    9   -0.00576      0.99952     1.99284    0.01341     3.00576
      C   10   -0.13322      0.99959     2.12257    0.01107     3.13322
      C   11   -0.19482      0.99962     2.18677    0.00843     3.19482
      C   12   -0.19740      0.99962     2.18854    0.00924     3.19740
      H   13    0.10205      0.00000     0.39623    0.00172     0.39795
      H   14    0.10283      0.00000     0.39518    0.00199     0.39717
      H   15    0.10162      0.00000     0.39715    0.00123     0.39838
      H   16    0.10312      0.00000     0.39354    0.00334     0.39688
      H   17    0.10071      0.00000     0.39773    0.00156     0.39929
      H   18    0.11073      0.00000     0.38713    0.00214     0.38927
      H   19    0.09743      0.00000     0.40156    0.00101     0.40257
      H   20    0.08451      0.00000     0.41362    0.00188     0.41549
      H   21    0.09044      0.00000     0.40834    0.00123     0.40956
      H   22    0.10250      0.00000     0.39642    0.00109     0.39750
      H   23    0.10230      0.00000     0.39668    0.00102     0.39770
      H   24    0.10664      0.00000     0.39174    0.00162     0.39336
      H   25    0.10360      0.00000     0.39508    0.00132     0.39640
      H   26    0.10351      0.00000     0.39514    0.00136     0.39649
 =======================================================================
   * Total *    0.00000     11.99531    32.84871    0.15598    45.00000

 Normal termination of Gaussian 16 at Wed Dec  9 17:52:05 2020.
