 Gaussian 16, Revision A.03,

 -----------------------------------------------------------
 # opt freq B3LYP/6-31G(d) empiricaldispersion=gd3bj scf=xqc
 -----------------------------------------------------------

 -------------------------------
 CID_142105031_JID_1912_neutraal
 -------------------------------
 Symbolic Z-matrix:
 Charge =  0 Multiplicity = 1

 SCF Done:  E(RB3LYP) =  -907.613735802     A.U. after   15 cycles
 SCF Done:  E(RB3LYP) =  -907.610756295     A.U. after   14 cycles
 SCF Done:  E(RB3LYP) =  -907.617968418     A.U. after   13 cycles
 SCF Done:  E(RB3LYP) =  -907.619201649     A.U. after   13 cycles
 SCF Done:  E(RB3LYP) =  -907.619897023     A.U. after   12 cycles
 SCF Done:  E(RB3LYP) =  -907.620101401     A.U. after   11 cycles
 SCF Done:  E(RB3LYP) =  -907.620161880     A.U. after   11 cycles
 SCF Done:  E(RB3LYP) =  -907.620195870     A.U. after   11 cycles
 SCF Done:  E(RB3LYP) =  -907.620253483     A.U. after   10 cycles
 SCF Done:  E(RB3LYP) =  -907.620334002     A.U. after   11 cycles
 SCF Done:  E(RB3LYP) =  -907.620666254     A.U. after    9 cycles
 SCF Done:  E(RB3LYP) =  -907.620668369     A.U. after   10 cycles
 SCF Done:  E(RB3LYP) =  -907.620670949     A.U. after   11 cycles
 SCF Done:  E(RB3LYP) =  -907.620672645     A.U. after   10 cycles
 SCF Done:  E(RB3LYP) =  -907.620673035     A.U. after    8 cycles
 Optimization completed.
    -- Stationary point found.
 Normal termination of Gaussian 16 at Tue Dec  8 21:42:48 2020.

 --------------------------------------------------------------------
 #N Geom=AllCheck Guess=TCheck SCRF=Check GenChk RB3LYP/6-31G(d) Freq
 --------------------------------------------------------------------

 Structure from the checkpoint file:  "JID_1912.chk"
 -------------------------------
 CID_142105031_JID_1912_neutraal
 -------------------------------
 Charge =  0 Multiplicity = 1

 SCF Done:  E(RB3LYP) =  -907.620673036     A.U. after    1 cycles

  Exact polarizability: 129.971   2.240 102.126  -3.513   2.212  50.350
 Approx polarizability: 202.192   3.350 170.590  -9.143   4.446  80.312

                      1                      2                      3
                      A                      A                      A
 Frequencies --     22.7164                80.2912                80.9805
 Red. masses --      3.6336                 1.1837                 8.8691
 Frc consts  --      0.0011                 0.0045                 0.0343
 IR Inten    --      0.7132                 0.7051                 1.3039

                      4                      5                      6
                      A                      A                      A
 Frequencies --    156.8900               196.4743               212.6190
 Red. masses --      4.7545                 5.1939                 4.4167
 Frc consts  --      0.0690                 0.1181                 0.1176
 IR Inten    --      1.6637                 2.2808                 0.6911

                      7                      8                      9
                      A                      A                      A
 Frequencies --    247.6563               278.8484               296.0058
 Red. masses --      4.9858                 6.2778                 5.1079
 Frc consts  --      0.1802                 0.2876                 0.2637
 IR Inten    --      1.1135                 2.8905                 3.2666

                     10                     11                     12
                      A                      A                      A
 Frequencies --    386.2224               431.1225               505.2263
 Red. masses --      7.5639                 6.0317                 5.7188
 Frc consts  --      0.6648                 0.6605                 0.8601
 IR Inten    --      0.1744                10.4406                 1.6675

                     13                     14                     15
                      A                      A                      A
 Frequencies --    542.4278               568.4100               599.8418
 Red. masses --      1.9810                 3.2715                 1.8977
 Frc consts  --      0.3434                 0.6228                 0.4023
 IR Inten    --      6.0312                17.4485                37.0586

                     16                     17                     18
                      A                      A                      A
 Frequencies --    656.4543               691.5015               701.0580
 Red. masses --      1.8498                 2.6941                 4.4342
 Frc consts  --      0.4697                 0.7590                 1.2840
 IR Inten    --    111.2866                95.9356                83.3932

                     19                     20                     21
                      A                      A                      A
 Frequencies --    736.9399               768.6706               779.0764
 Red. masses --      2.4714                 5.6207                 1.2530
 Frc consts  --      0.7908                 1.9567                 0.4481
 IR Inten    --    137.1098                71.2602                18.8623

                     22                     23                     24
                      A                      A                      A
 Frequencies --    801.3453               870.9771               913.3861
 Red. masses --      5.7635                 4.6781                 3.6393
 Frc consts  --      2.1806                 2.0909                 1.7889
 IR Inten    --      3.8697                44.4357                 5.9388

                     25                     26                     27
                      A                      A                      A
 Frequencies --    989.6965              1064.3709              1098.8723
 Red. masses --      2.1718                 1.3696                 3.8254
 Frc consts  --      1.2534                 0.9141                 2.7216
 IR Inten    --     34.8226                 3.3823                33.8215

                     28                     29                     30
                      A                      A                      A
 Frequencies --   1135.3812              1201.3787              1299.9668
 Red. masses --      2.4842                 4.0608                 1.3794
 Frc consts  --      1.8868                 3.4532                 1.3734
 IR Inten    --     11.5797                12.8685                 1.9199

                     31                     32                     33
                      A                      A                      A
 Frequencies --   1411.6587              1420.8997              1437.7193
 Red. masses --      3.3415                 1.5165                 4.2900
 Frc consts  --      3.9232                 1.8039                 5.2246
 IR Inten    --    382.8484                28.0447               156.7877

                     34                     35                     36
                      A                      A                      A
 Frequencies --   1447.8749              1459.1826              1493.0014
 Red. masses --      1.8759                 1.4880                 4.4531
 Frc consts  --      2.3170                 1.8667                 5.8483
 IR Inten    --      1.6044                16.1043                45.9369

                     37                     38                     39
                      A                      A                      A
 Frequencies --   1514.2770              1527.8064              1553.9023
 Red. masses --      1.0502                 1.0702                 1.1289
 Frc consts  --      1.4188                 1.4718                 1.6060
 IR Inten    --     10.0703                 5.7949                61.0782

                     40                     41                     42
                      A                      A                      A
 Frequencies --   1626.5417              1801.6641              3034.6456
 Red. masses --      5.3140                 6.3241                 1.0415
 Frc consts  --      8.2833                12.0948                 5.6513
 IR Inten    --    212.9467               504.5758                24.9232

                     43                     44                     45
                      A                      A                      A
 Frequencies --   3088.9539              3134.4838              3260.0413
 Red. masses --      1.0990                 1.0984                 1.0941
 Frc consts  --      6.1780                 6.3585                 6.8507
 IR Inten    --     12.7627                 7.0759                 0.1053

                     46                     47                     48
                      A                      A                      A
 Frequencies --   3507.0285              3588.6240              3615.5158
 Red. masses --      1.0672                 1.0768                 1.0753
 Frc consts  --      7.7336                 8.1706                 8.2820
 IR Inten    --    293.9153                49.1556                30.0520

 - Thermochemistry -
 -------------------
 Temperature   298.150 Kelvin.  Pressure   1.00000 Atm.
 Atom     1 has atomic number  6 and mass  12.00000

 Molecular mass:   173.02590 amu.
 Principal axes and moments of inertia in atomic units:
                           1         2         3
     Eigenvalues --   999.424872776.228243573.39716
           X            0.99963  -0.02701  -0.00241
           Y            0.02705   0.99945   0.01907
           Z            0.00189  -0.01913   0.99982
 This molecule is an asymmetric top.
 Rotational symmetry number  1.
 Warning -- assumption of classical behavior for rotation
           may cause significant error
 Rotational temperatures (Kelvin)      0.08666     0.03120     0.02424
 Rotational constants (GHZ):           1.80578     0.65007     0.50505
 Zero-point vibrational energy     348344.4 (Joules/Mol)
                                   83.25630 (Kcal/Mol)
 Warning -- explicit consideration of  15 degrees of freedom as
           vibrations may cause significant error
 Vibrational temperatures:     32.68   115.52   116.51   225.73   282.68
          (Kelvin)            305.91   356.32   401.20   425.89   555.69
                              620.29   726.91   780.43   817.82   863.04
                              944.49   994.92  1008.67  1060.29  1105.95
                             1120.92  1152.96  1253.14  1314.16  1423.95
                             1531.39  1581.03  1633.56  1728.52  1870.36
                             2031.06  2044.36  2068.56  2083.17  2099.44
                             2148.10  2178.71  2198.17  2235.72  2340.23
                             2592.19  4366.18  4444.32  4509.82  4690.47
                             5045.83  5163.23  5201.92

 Zero-point correction=                           0.132677 (Hartree/Particle)
 Thermal correction to Energy=                    0.143422
 Thermal correction to Enthalpy=                  0.144366
 Thermal correction to Gibbs Free Energy=         0.094773
 Sum of electronic and zero-point Energies=           -907.487996
 Sum of electronic and thermal Energies=              -907.477251
 Sum of electronic and thermal Enthalpies=            -907.476307
 Sum of electronic and thermal Free Energies=         -907.525900

                     E (Thermal)             CV                S
                      KCal/Mol        Cal/Mol-Kelvin    Cal/Mol-Kelvin
 Total                   89.999             38.836            104.379
 Electronic               0.000              0.000              0.000
 Translational            0.889              2.981             41.352
 Rotational               0.889              2.981             30.673
 Vibrational             88.221             32.874             32.354
 Vibration     1          0.593              1.985              6.381
 Vibration     2          0.600              1.963              3.884
 Vibration     3          0.600              1.962              3.867
 Vibration     4          0.621              1.895              2.587
 Vibration     5          0.636              1.845              2.166
 Vibration     6          0.644              1.822              2.021
 Vibration     7          0.661              1.767              1.747
 Vibration     8          0.679              1.713              1.541
 Vibration     9          0.690              1.681              1.439
 Vibration    10          0.755              1.500              1.015
 Vibration    11          0.792              1.402              0.855
 Vibration    12          0.860              1.238              0.645
 Vibration    13          0.898              1.156              0.560
 Vibration    14          0.924              1.100              0.507
 Vibration    15          0.958              1.032              0.450

                           ! Non-Optimized Parameters !
 Normal termination of Gaussian 16 at Tue Dec  8 21:46:10 2020.

 ----------------------------------------------------------------------
 # B3LYP/6-311++G(d,p) empiricaldispersion=gd3bj scf=xqc pop=npa geom=c
 heck
 ----------------------------------------------------------------------

 ---------------------------------------
 CID_142105031_JID_1912_Energie_neutraal
 ---------------------------------------
 Structure from the checkpoint file:  "JID_1912.chk"
 Charge =  0 Multiplicity = 1

 SCF Done:  E(RB3LYP) =  -907.807799732     A.U. after   15 cycles
 Normal termination of Gaussian 16 at Tue Dec  8 21:47:54 2020.

 ----------------------------------------------------------------------
 # B3LYP/6-311++G(d,p) empiricaldispersion=gd3bj scf=xqc pop=npa geom=c
 heck
 ----------------------------------------------------------------------

 -------------------------------------
 CID_142105031_JID_1912_Energie_kation
 -------------------------------------
 Structure from the checkpoint file:  "JID_1912.chk"
 Charge =  1 Multiplicity = 2

 SCF Done:  E(UB3LYP) =  -907.502570996     A.U. after   26 cycles
 Normal termination of Gaussian 16 at Tue Dec  8 21:52:25 2020.
 Gaussian 16:  ES64L-G16RevA.03 25-Dec-2016

 ----------------------------------------------------------------------
 # B3LYP/6-311++G(d,p) empiricaldispersion=gd3bj scf=xqc pop=npa geom=c
 heck
 ----------------------------------------------------------------------

 ------------------------------------
 CID_142105031_JID_1912_Energie_anion
 ------------------------------------
 Structure from the checkpoint file:  "JID_1912.chk"
 Charge = -1 Multiplicity = 2

                         Standard orientation:
 ---------------------------------------------------------------------
 Center     Atomic      Atomic             Coordinates (Angstroms)
 Number     Number       Type             X           Y           Z
 ---------------------------------------------------------------------
      1          6           0       -1.800815    2.191715    0.430386
      2          6           0       -1.509681    0.754514    0.127158
      3          6           0       -0.278089    0.156432   -0.029914
      4          7           0       -0.299093   -1.192634   -0.310637
      5          6           0       -1.524567   -1.637096   -0.379812
      6         16           0       -2.750431   -0.444409   -0.114986
      7          7           0        0.913550    0.880734    0.056561
      8          6           0        2.244945    0.539768   -0.193273
      9          8           0        3.043054    1.397805   -0.543582
     10          7           0        2.597455   -0.794102   -0.093735
     11          8           0        2.019253   -1.558558    0.943094
     12          1           0       -1.673109    2.832597   -0.452676
     13          1           0       -2.824890    2.328746    0.787856
     14          1           0       -1.129683    2.561384    1.215207
     15          1           0       -1.773089   -2.671406   -0.580543
     16          1           0        0.805895    1.881349   -0.044401
     17          1           0        3.605216   -0.903305   -0.067951
     18          1           0        1.223957   -1.922772    0.493594
 ---------------------------------------------------------------------

 SCF Done:  E(UB3LYP) =  -907.800663676     A.U. after   33 cycles
 SCF Done:  E(UB3LYP) =  -907.800663676     a.u. after    1 cycles

 The electronic state is 2-A.
 Alpha  occ. eigenvalues --  -88.74074 -19.04242 -18.98471 -14.26946 -14.23511
 Alpha  occ. eigenvalues --  -14.18120 -10.19298 -10.11201 -10.08110 -10.06204
 Alpha  occ. eigenvalues --  -10.05424  -7.82728  -5.79006  -5.78657  -5.78353
 Alpha  occ. eigenvalues --   -0.98066  -0.93454  -0.85231  -0.80031  -0.73581
 Alpha  occ. eigenvalues --   -0.68125  -0.62453  -0.57591  -0.52546  -0.47105
 Alpha  occ. eigenvalues --   -0.45669  -0.42363  -0.38130  -0.37716  -0.36115
 Alpha  occ. eigenvalues --   -0.33234  -0.32770  -0.31463  -0.30144  -0.29403
 Alpha  occ. eigenvalues --   -0.27052  -0.26595  -0.23455  -0.21762  -0.20180
 Alpha  occ. eigenvalues --   -0.18000  -0.15835  -0.15132  -0.14340  -0.09189
 Alpha  occ. eigenvalues --    0.05589
 Alpha virt. eigenvalues --    0.07907   0.08945   0.09383   0.10559   0.10997
 Alpha virt. eigenvalues --    0.11767   0.12935   0.13398   0.14066   0.14815
 Alpha virt. eigenvalues --    0.15533   0.15938   0.16434   0.17271   0.18165

  Beta  occ. eigenvalues --  -88.74025 -19.04234 -18.98468 -14.26947 -14.23501
  Beta  occ. eigenvalues --  -14.17972 -10.19287 -10.11238 -10.07673 -10.05963
  Beta  occ. eigenvalues --  -10.05384  -7.82683  -5.78988  -5.78641  -5.78184
  Beta  occ. eigenvalues --   -0.98058  -0.93445  -0.85011  -0.79837  -0.73565
  Beta  occ. eigenvalues --   -0.67771  -0.62114  -0.57444  -0.52346  -0.46897
  Beta  occ. eigenvalues --   -0.45313  -0.42270  -0.37973  -0.37556  -0.36080
  Beta  occ. eigenvalues --   -0.33071  -0.32574  -0.31242  -0.29950  -0.29232
  Beta  occ. eigenvalues --   -0.26384  -0.26287  -0.23217  -0.21734  -0.19719
  Beta  occ. eigenvalues --   -0.17989  -0.15616  -0.14503  -0.13909  -0.08013
  Beta virt. eigenvalues --    0.08561   0.09043   0.09415   0.10623   0.11331
  Beta virt. eigenvalues --    0.11712   0.12222   0.13177   0.13516   0.14156
  Beta virt. eigenvalues --    0.14909   0.15599   0.15950   0.16524   0.17561

 Mulliken charges and spin densities:
               1          2
     1  C    2.429756  -2.932631
     2  C   -0.585041   2.279762
     3  C   -1.025749  -0.713169
     4  N   -0.133804   0.040671
     5  C   -0.076036   0.396195
     6  S   -0.354571  -0.063603
     7  N   -0.177051   0.002313
     8  C    0.205406   0.047725
     9  O   -0.395047  -0.004135
    10  N   -0.344306  -0.006708
    11  O   -0.182053   0.004674
    12  H   -0.006654   0.162582
    13  H   -1.004136   1.176338
    14  H   -0.418585   0.581939
    15  H    0.209244  -0.021049
    16  H    0.276575   0.039470
    17  H    0.305315   0.011001
    18  H    0.276736  -0.001375
 Sum of Mulliken charges =  -1.00000   1.00000

 Dipole moment (field-independent basis, Debye):
    X=              3.1628    Y=             -5.1876    Z=             -2.4993  Tot=              6.5697
 Quadrupole moment (field-independent basis, Debye-Ang):
   XX=           -119.0383   YY=           -103.5992   ZZ=            -91.7465
   XY=              7.9793   XZ=              9.8334   YZ=             -6.6500

 Summary of Natural Population Analysis:

                                       Natural Population
                Natural  -----------------------------------------------
    Atom  No    Charge         Core      Valence    Rydberg      Total
 -----------------------------------------------------------------------
      C    1   -0.30536      0.99963     2.29804    0.00769     3.30536
      C    2   -0.09487      0.99947     2.08222    0.01318     3.09487
      C    3    0.13685      0.99938     1.84727    0.01650     2.86315
      N    4   -0.27166      0.99963     2.75889    0.01314     3.77166
      C    5    0.01979      0.99967     1.96513    0.01541     2.98021
      S    6    0.20503      4.99943     2.77346    0.02209     7.79497
      N    7   -0.31375      0.99962     2.80527    0.00885     3.81375
      C    8    0.39758      0.99972     1.57961    0.02309     2.60242
      O    9   -0.33776      0.99988     3.33215    0.00573     4.33776
      N   10   -0.18059      0.99964     2.66800    0.01296     3.68059
      O   11   -0.29764      0.99990     3.28972    0.00802     4.29764
      H   12    0.09960      0.00000     0.39908    0.00132     0.40040
      H   13    0.11449      0.00000     0.38014    0.00537     0.38551
      H   14    0.10826      0.00000     0.38863    0.00310     0.39174
      H   15    0.08749      0.00000     0.41151    0.00099     0.41251
      H   16    0.20168      0.00000     0.29566    0.00266     0.29832
      H   17    0.18147      0.00000     0.31617    0.00236     0.31853
      H   18    0.24938      0.00000     0.24642    0.00420     0.25062
 =======================================================================
   * Total *   -0.00000     14.99596    29.83737    0.16667    45.00000

 Normal termination of Gaussian 16 at Tue Dec  8 21:56:23 2020.
