 Gaussian 16, Revision A.03,

 -----------------------------------------------------------
 # opt freq B3LYP/6-31G(d) empiricaldispersion=gd3bj scf=xqc
 -----------------------------------------------------------

 ----------------------------
 CID_2771907_JID_227_neutraal
 ----------------------------
 Symbolic Z-matrix:
 Charge =  0 Multiplicity = 1

 SCF Done:  E(RB3LYP) =  -848.506695479     A.U. after   14 cycles
 SCF Done:  E(RB3LYP) =  -848.515313387     A.U. after   12 cycles
 SCF Done:  E(RB3LYP) =  -848.516148012     A.U. after   12 cycles
 SCF Done:  E(RB3LYP) =  -848.516213123     A.U. after   11 cycles
 SCF Done:  E(RB3LYP) =  -848.516247033     A.U. after    9 cycles
 SCF Done:  E(RB3LYP) =  -848.516269294     A.U. after    9 cycles
 SCF Done:  E(RB3LYP) =  -848.516354330     A.U. after   12 cycles
 SCF Done:  E(RB3LYP) =  -848.516409813     A.U. after   11 cycles
 SCF Done:  E(RB3LYP) =  -848.516446474     A.U. after   11 cycles
 SCF Done:  E(RB3LYP) =  -848.516494499     A.U. after   12 cycles
 SCF Done:  E(RB3LYP) =  -848.517799740     A.U. after   11 cycles
 SCF Done:  E(RB3LYP) =  -848.517828821     A.U. after   11 cycles
 SCF Done:  E(RB3LYP) =  -848.517850590     A.U. after   10 cycles
 SCF Done:  E(RB3LYP) =  -848.517860525     A.U. after    9 cycles
 SCF Done:  E(RB3LYP) =  -848.517864290     A.U. after    9 cycles
 SCF Done:  E(RB3LYP) =  -848.517866528     A.U. after    9 cycles
 Optimization completed.
    -- Stationary point found.
 Normal termination of Gaussian 16 at Tue Dec  8 10:26:58 2020.

 --------------------------------------------------------------------
 #N Geom=AllCheck Guess=TCheck SCRF=Check GenChk RB3LYP/6-31G(d) Freq
 --------------------------------------------------------------------

 Structure from the checkpoint file:  "JID_227.chk"
 ----------------------------
 CID_2771907_JID_227_neutraal
 ----------------------------
 Charge =  0 Multiplicity = 1

 SCF Done:  E(RB3LYP) =  -848.517866528     A.U. after    1 cycles

  Exact polarizability: 116.043  -0.893  72.194   7.011   0.383  60.647
 Approx polarizability: 168.043  -3.533 112.677  12.743   1.428  97.249

                      1                      2                      3
                      A                      A                      A
 Frequencies --     68.1358               120.1586               149.1670
 Red. masses --     14.5636                 4.5202                10.3776
 Frc consts  --      0.0398                 0.0385                 0.1360
 IR Inten    --      0.4255                 0.8752                17.3332

                      4                      5                      6
                      A                      A                      A
 Frequencies --    271.2548               384.4762               400.7166
 Red. masses --      6.3987                 3.9204                 2.5385
 Frc consts  --      0.2774                 0.3414                 0.2402
 IR Inten    --      1.5603                 7.5831                31.4160

                      7                      8                      9
                      A                      A                      A
 Frequencies --    429.5418               461.6068               494.1762
 Red. masses --      1.2042                 1.8046                 1.5234
 Frc consts  --      0.1309                 0.2266                 0.2192
 IR Inten    --    207.6089                26.8692                55.2300

                     10                     11                     12
                      A                      A                      A
 Frequencies --    516.8298               554.4007               589.2120
 Red. masses --      1.3253                 2.9187                 6.2760
 Frc consts  --      0.2086                 0.5285                 1.2837
 IR Inten    --    169.2074                53.3520                36.7256

                     13                     14                     15
                      A                      A                      A
 Frequencies --    649.1647               657.8391               732.7149
 Red. masses --      8.6230                 4.2480                 5.8920
 Frc consts  --      2.1410                 1.0831                 1.8637
 IR Inten    --      9.9234                39.6064                22.2692

                     16                     17                     18
                      A                      A                      A
 Frequencies --    756.3209               865.3547               895.0649
 Red. masses --     10.0030                 3.1746                 6.4299
 Frc consts  --      3.3713                 1.4006                 3.0350
 IR Inten    --     43.2359                 5.1689                30.3477

                     19                     20                     21
                      A                      A                      A
 Frequencies --    970.7843               982.0174              1023.5225
 Red. masses --      4.4141                 3.2494                 2.5779
 Frc consts  --      2.4510                 1.8463                 1.5912
 IR Inten    --      5.7302                22.9925                16.1001

                     22                     23                     24
                      A                      A                      A
 Frequencies --   1091.7800              1104.0158              1122.5710
 Red. masses --      2.8531                 2.5112                 2.1162
 Frc consts  --      2.0037                 1.8034                 1.5712
 IR Inten    --     28.9731                28.8978               235.3108

                     25                     26                     27
                      A                      A                      A
 Frequencies --   1195.2988              1242.5097              1273.2690
 Red. masses --      1.7317                 2.9786                 1.8273
 Frc consts  --      1.4577                 2.7093                 1.7454
 IR Inten    --     71.0255                25.7660                73.5242

                     28                     29                     30
                      A                      A                      A
 Frequencies --   1299.7469              1373.5690              1379.2078
 Red. masses --      2.5641                 1.4972                 1.2832
 Frc consts  --      2.5521                 1.6643                 1.4382
 IR Inten    --     53.9983                 9.0634               310.4488

                     31                     32                     33
                      A                      A                      A
 Frequencies --   1390.9372              1442.1008              1442.5156
 Red. masses --      1.5598                 1.6345                 1.6232
 Frc consts  --      1.7780                 2.0027                 1.9900
 IR Inten    --      6.8236                36.1329                18.8445

                     34                     35                     36
                      A                      A                      A
 Frequencies --   1477.8613              1548.5792              1876.2208
 Red. masses --      3.1481                 2.2106                 9.7975
 Frc consts  --      4.0510                 3.1233                20.3205
 IR Inten    --    183.1490               401.6897               583.5595

                     37                     38                     39
                      A                      A                      A
 Frequencies --   3079.5592              3090.5134              3637.6608
 Red. masses --      1.0879                 1.0870                 1.0780
 Frc consts  --      6.0790                 6.1171                 8.4047
 IR Inten    --     13.0467                65.5823                38.1950

                     40                     41                     42
                      A                      A                      A
 Frequencies --   3641.9999              3644.0971              3647.9970
 Red. masses --      1.0783                 1.0781                 1.0796
 Frc consts  --      8.4270                 8.4352                 8.4646
 IR Inten    --     36.9296                80.6359                30.6463

 - Thermochemistry -
 -------------------
 Temperature   298.150 Kelvin.  Pressure   1.00000 Atm.
 Atom     1 has atomic number  6 and mass  12.00000

 Molecular mass:   158.02623 amu.
 Principal axes and moments of inertia in atomic units:
                           1         2         3
     Eigenvalues --   617.437522611.730482702.82144
           X            1.00000  -0.00025   0.00231
           Y            0.00026   0.99999  -0.00430
           Z           -0.00231   0.00430   0.99999
 This molecule is an asymmetric top.
 Rotational symmetry number  1.
 Warning -- assumption of classical behavior for rotation
           may cause significant error
 Rotational temperatures (Kelvin)      0.14028     0.03316     0.03205
 Rotational constants (GHZ):           2.92295     0.69101     0.66772
 Zero-point vibrational energy     316857.7 (Joules/Mol)
                                   75.73081 (Kcal/Mol)
 Warning -- explicit consideration of  12 degrees of freedom as
           vibrations may cause significant error
 Vibrational temperatures:     98.03   172.88   214.62   390.28   553.18
          (Kelvin)            576.54   618.01   664.15   711.01   743.60
                              797.66   847.74   934.00   946.48  1054.21
                             1088.18  1245.05  1287.80  1396.74  1412.90
                             1472.62  1570.83  1588.43  1615.13  1719.77
                             1787.69  1831.95  1870.05  1976.26  1984.37
                             2001.25  2074.86  2075.46  2126.31  2228.06
                             2699.46  4430.80  4446.56  5233.78  5240.03
                             5243.04  5248.65

 Zero-point correction=                           0.120685 (Hartree/Particle)
 Thermal correction to Energy=                    0.128940
 Thermal correction to Enthalpy=                  0.129884
 Thermal correction to Gibbs Free Energy=         0.086798
 Sum of electronic and zero-point Energies=           -848.397182
 Sum of electronic and thermal Energies=              -848.388927
 Sum of electronic and thermal Enthalpies=            -848.387983
 Sum of electronic and thermal Free Energies=         -848.431069

                     E (Thermal)             CV                S
                      KCal/Mol        Cal/Mol-Kelvin    Cal/Mol-Kelvin
 Total                   80.911             31.624             90.683
 Electronic               0.000              0.000              0.000
 Translational            0.889              2.981             41.082
 Rotational               0.889              2.981             29.856
 Vibrational             79.133             25.662             19.745
 Vibration     1          0.598              1.969              4.207
 Vibration     2          0.609              1.932              3.098
 Vibration     3          0.618              1.904              2.683
 Vibration     4          0.675              1.726              1.588
 Vibration     5          0.753              1.503              1.022
 Vibration     6          0.767              1.469              0.960
 Vibration     7          0.791              1.406              0.860
 Vibration     8          0.819              1.335              0.761
 Vibration     9          0.850              1.263              0.673
 Vibration    10          0.872              1.213              0.617
 Vibration    11          0.910              1.130              0.535
 Vibration    12          0.946              1.055              0.469

                           ! Non-Optimized Parameters !
 Normal termination of Gaussian 16 at Tue Dec  8 10:29:39 2020.

 ----------------------------------------------------------------------
 # B3LYP/6-311++G(d,p) empiricaldispersion=gd3bj scf=xqc pop=npa geom=c
 heck
 ----------------------------------------------------------------------

 ------------------------------------
 CID_2771907_JID_227_Energie_neutraal
 ------------------------------------
 Structure from the checkpoint file:  "JID_227.chk"
 Charge =  0 Multiplicity = 1

 SCF Done:  E(RB3LYP) =  -848.684589553     A.U. after   14 cycles
 Normal termination of Gaussian 16 at Tue Dec  8 10:30:29 2020.

 ----------------------------------------------------------------------
 # B3LYP/6-311++G(d,p) empiricaldispersion=gd3bj scf=xqc pop=npa geom=c
 heck
 ----------------------------------------------------------------------

 ----------------------------------
 CID_2771907_JID_227_Energie_kation
 ----------------------------------
 Structure from the checkpoint file:  "JID_227.chk"
 Charge =  1 Multiplicity = 2

 SCF Done:  E(UB3LYP) =  -848.375296043     A.U. after   28 cycles
 Normal termination of Gaussian 16 at Tue Dec  8 10:34:27 2020.
 Gaussian 16:  ES64L-G16RevA.03 25-Dec-2016

 ----------------------------------------------------------------------
 # B3LYP/6-311++G(d,p) empiricaldispersion=gd3bj scf=xqc pop=npa geom=c
 heck
 ----------------------------------------------------------------------

 ---------------------------------
 CID_2771907_JID_227_Energie_anion
 ---------------------------------
 Structure from the checkpoint file:  "JID_227.chk"
 Charge = -1 Multiplicity = 2

                         Standard orientation:
 ---------------------------------------------------------------------
 Center     Atomic      Atomic             Coordinates (Angstroms)
 Number     Number       Type             X           Y           Z
 ---------------------------------------------------------------------
      1          6           0        0.461499    0.819471    0.912856
      2          6           0        0.502135   -0.743888    0.962277
      3          7           0        1.760216   -1.047752    0.331744
      4          6           0        2.236021    0.018925   -0.432624
      5          8           0        3.186263    0.003854   -1.184845
      6          7           0        1.425340    1.108310   -0.130096
      7          7           0       -0.697714   -1.081056    0.202942
      8          6           0       -1.549692   -0.023165    0.039508
      9         16           0       -3.060939   -0.063145   -0.645769
     10          7           0       -0.924971    1.075060    0.576634
     11          1           0        0.722628    1.295922    1.862915
     12          1           0        0.456423   -1.150453    1.977699
     13          1           0        1.977471   -1.981797    0.012959
     14          1           0        1.812979    2.031692   -0.261111
     15          1           0       -1.072155   -2.017463    0.152337
     16          1           0       -1.252298    1.991585    0.305596
 ---------------------------------------------------------------------

 SCF Done:  E(UB3LYP) =  -848.685036891     A.U. after   26 cycles

 The electronic state is 2-A.
 Alpha  occ. eigenvalues --  -88.69169 -18.99340 -14.24903 -14.24821 -14.23901
 Alpha  occ. eigenvalues --  -14.23749 -10.20216 -10.18746 -10.16727 -10.16645
 Alpha  occ. eigenvalues --   -7.77958  -5.74375  -5.73786  -5.73485  -0.96522
 Alpha  occ. eigenvalues --   -0.92832  -0.86042  -0.82374  -0.77179  -0.68036
 Alpha  occ. eigenvalues --   -0.59804  -0.55227  -0.55100  -0.51457  -0.45033
 Alpha  occ. eigenvalues --   -0.44430  -0.41315  -0.39593  -0.37935  -0.36128
 Alpha  occ. eigenvalues --   -0.33735  -0.32337  -0.30060  -0.29255  -0.27656
 Alpha  occ. eigenvalues --   -0.19680  -0.17867  -0.17398  -0.16488  -0.12762
 Alpha  occ. eigenvalues --   -0.11667   0.03667
 Alpha virt. eigenvalues --    0.06550   0.07940   0.08326   0.09423   0.10407
 Alpha virt. eigenvalues --    0.10895   0.12375   0.13398   0.14033   0.15122
 Alpha virt. eigenvalues --    0.15508   0.16203   0.16426   0.17120   0.17967

  Beta  occ. eigenvalues --  -88.69165 -18.99335 -14.24876 -14.24798 -14.23868
  Beta  occ. eigenvalues --  -14.23706 -10.20215 -10.18716 -10.16694 -10.16609
  Beta  occ. eigenvalues --   -7.77954  -5.74373  -5.73775  -5.73483  -0.96493
  Beta  occ. eigenvalues --   -0.92787  -0.85998  -0.82307  -0.77104  -0.67963
  Beta  occ. eigenvalues --   -0.59745  -0.55149  -0.55012  -0.51367  -0.44964
  Beta  occ. eigenvalues --   -0.44329  -0.41267  -0.39523  -0.37863  -0.36019
  Beta  occ. eigenvalues --   -0.33711  -0.32298  -0.29981  -0.29155  -0.27604
  Beta  occ. eigenvalues --   -0.19656  -0.17824  -0.17350  -0.16462  -0.12703
  Beta  occ. eigenvalues --   -0.11654
  Beta virt. eigenvalues --    0.06861   0.08129   0.08420   0.09477   0.09960
  Beta virt. eigenvalues --    0.11371   0.11884   0.12500   0.13462   0.14103
  Beta virt. eigenvalues --    0.15251   0.15462   0.16351   0.16672   0.17659

 Mulliken charges and spin densities:
               1          2
     1  C    0.533373  -1.001414
     2  C    0.216681  -0.528309
     3  N   -0.026198  -0.130024
     4  C    0.720736  -0.410915
     5  O   -0.451544   0.038417
     6  N   -0.020212  -0.152065
     7  N    0.015840  -0.077270
     8  C    0.629310  -0.332797
     9  S   -0.438697  -0.367920
    10  N    0.042206  -0.032324
    11  H   -1.054062   1.333978
    12  H   -0.979140   1.267804
    13  H   -0.119133   0.417323
    14  H   -0.046939   0.361733
    15  H    0.028656   0.273662
    16  H   -0.050876   0.340119
 Sum of Mulliken charges =  -1.00000   1.00000

 Dipole moment (field-independent basis, Debye):
    X=             -1.1093    Y=             -0.3864    Z=             -1.9636  Tot=              2.2881
 Quadrupole moment (field-independent basis, Debye-Ang):
   XX=           -119.2257   YY=            -95.4859   ZZ=           -102.6458
   XY=             -1.2126   XZ=             -1.6093   YZ=             -0.6206

 Summary of Natural Population Analysis:

                                       Natural Population
                Natural  -----------------------------------------------
    Atom  No    Charge         Core      Valence    Rydberg      Total
 -----------------------------------------------------------------------
      C    1    0.08644      0.99960     1.89821    0.01575     2.91356
      C    2    0.08508      0.99960     1.90001    0.01531     2.91492
      N    3   -0.33443      0.99967     2.82456    0.01020     3.83443
      C    4    0.41173      0.99970     1.56533    0.02324     2.58827
      O    5   -0.32340      0.99987     3.31784    0.00570     4.32340
      N    6   -0.33839      0.99967     2.82861    0.01012     3.83839
      N    7   -0.32156      0.99963     2.80934    0.01259     3.82156
      C    8    0.15236      0.99964     1.82506    0.02294     2.84764
      S    9   -0.12900      4.99955     3.11530    0.01415     8.12900
      N   10   -0.31867      0.99964     2.80646    0.01257     3.81867
      H   11    0.10799      0.00000     0.38275    0.00926     0.39201
      H   12    0.10670      0.00000     0.38558    0.00772     0.39330
      H   13    0.20164      0.00000     0.29491    0.00345     0.29836
      H   14    0.20377      0.00000     0.29220    0.00402     0.29623
      H   15    0.20539      0.00000     0.29141    0.00321     0.29461
      H   16    0.20436      0.00000     0.29253    0.00310     0.29564
 =======================================================================
   * Total *   -0.00000     13.99658    26.83009    0.17333    41.00000

 Normal termination of Gaussian 16 at Tue Dec  8 10:38:39 2020.
