 Gaussian 16, Revision A.03,

 -----------------------------------------------------------
 # opt freq B3LYP/6-31G(d) empiricaldispersion=gd3bj scf=xqc
 -----------------------------------------------------------

 -------------------------------
 CID_117800426_JID_2448_neutraal
 -------------------------------
 Symbolic Z-matrix:
 Charge =  0 Multiplicity = 1

 SCF Done:  E(RB3LYP) =  -590.728239770     A.U. after   15 cycles
 SCF Done:  E(RB3LYP) =  -590.731012823     A.U. after   12 cycles
 SCF Done:  E(RB3LYP) =  -590.731183519     A.U. after   11 cycles
 SCF Done:  E(RB3LYP) =  -590.731143610     A.U. after   11 cycles
 SCF Done:  E(RB3LYP) =  -590.731159730     A.U. after   11 cycles
 SCF Done:  E(RB3LYP) =  -590.731192634     A.U. after   10 cycles
 SCF Done:  E(RB3LYP) =  -590.731196980     A.U. after    9 cycles
 SCF Done:  E(RB3LYP) =  -590.731197137     A.U. after    7 cycles
 SCF Done:  E(RB3LYP) =  -590.731197179     A.U. after    7 cycles
 Optimization completed.
    -- Stationary point found.
 Normal termination of Gaussian 16 at Sun Dec 13 19:55:10 2020.

 --------------------------------------------------------------------
 #N Geom=AllCheck Guess=TCheck SCRF=Check GenChk RB3LYP/6-31G(d) Freq
 --------------------------------------------------------------------

 Structure from the checkpoint file:  "JID_2448.chk"
 -------------------------------
 CID_117800426_JID_2448_neutraal
 -------------------------------
 Charge =  0 Multiplicity = 1

 SCF Done:  E(RB3LYP) =  -590.731197179     A.U. after    1 cycles

  Exact polarizability: 145.436   0.025 106.087  -0.001   0.004  48.276
 Approx polarizability: 207.319   7.454 183.265  -0.001   0.005  72.149

 ******    1 imaginary frequencies (negative Signs) ******

                      1                      2                      3
                      A                      A                      A
 Frequencies --   -120.5682                40.2761                81.8272
 Red. masses --      1.0242                 5.2111                 4.4451
 Frc consts  --      0.0088                 0.0050                 0.0175
 IR Inten    --      0.0854                 0.4586                 0.7723

                      4                      5                      6
                      A                      A                      A
 Frequencies --    133.1320               142.2610               152.6885
 Red. masses --      1.3145                 4.2281                 2.4922
 Frc consts  --      0.0137                 0.0504                 0.0342
 IR Inten    --      1.4441                 1.6841                 4.4908

                      7                      8                      9
                      A                      A                      A
 Frequencies --    208.2340               286.4175               325.9900
 Red. masses --      3.9830                 3.7230                 4.1199
 Frc consts  --      0.1018                 0.1799                 0.2580
 IR Inten    --      1.1674                 7.2260                 5.8771

                     10                     11                     12
                      A                      A                      A
 Frequencies --    338.5599               342.8793               378.2358
 Red. masses --      4.3082                 6.0526                 1.1564
 Frc consts  --      0.2909                 0.4192                 0.0975
 IR Inten    --     10.4730                 7.4005               103.4076

                     13                     14                     15
                      A                      A                      A
 Frequencies --    410.0360               465.5100               535.0586
 Red. masses --      5.6785                 4.1314                 4.5559
 Frc consts  --      0.5625                 0.5275                 0.7685
 IR Inten    --      8.3392                 3.5146                 0.4727

                     16                     17                     18
                      A                      A                      A
 Frequencies --    568.6407               574.8060               643.9989
 Red. masses --      5.5683                 4.4683                 7.4630
 Frc consts  --      1.0608                 0.8698                 1.8236
 IR Inten    --     12.6166                 2.8695                12.1204

                     19                     20                     21
                      A                      A                      A
 Frequencies --    723.6304               770.0718               790.1864
 Red. masses --      4.1722                 5.1736                 5.7640
 Frc consts  --      1.2872                 1.8076                 2.1205
 IR Inten    --     14.2116                 1.8917                11.5139

                     22                     23                     24
                      A                      A                      A
 Frequencies --    814.3053               846.3025               924.4038
 Red. masses --      5.5603                 1.6546                 5.7236
 Frc consts  --      2.1723                 0.6982                 2.8817
 IR Inten    --      4.8734                19.9002                10.4055

                     25                     26                     27
                      A                      A                      A
 Frequencies --    959.0303              1004.5188              1058.6945
 Red. masses --      1.3097                 2.0827                 3.8540
 Frc consts  --      0.7097                 1.2382                 2.5451
 IR Inten    --      0.0187                 2.1347                25.5919

                     28                     29                     30
                      A                      A                      A
 Frequencies --   1070.8378              1142.3033              1179.2223
 Red. masses --      1.5281                 1.7593                 1.8579
 Frc consts  --      1.0324                 1.3525                 1.5222
 IR Inten    --      2.9470               131.6403                78.7086

                     31                     32                     33
                      A                      A                      A
 Frequencies --   1187.2256              1194.0784              1226.2962
 Red. masses --      1.2736                 1.8591                 1.8227
 Frc consts  --      1.0577                 1.5618                 1.6149
 IR Inten    --      0.8690               207.6834               172.7637

                     34                     35                     36
                      A                      A                      A
 Frequencies --   1273.3021              1300.9496              1323.0371
 Red. masses --      2.0530                 3.7570                 3.2677
 Frc consts  --      1.9611                 3.7464                 3.3701
 IR Inten    --      4.4075               293.8957               123.9882

                     37                     38                     39
                      A                      A                      A
 Frequencies --   1364.2466              1432.8467              1469.2362
 Red. masses --      4.9473                 1.2993                 3.6705
 Frc consts  --      5.4251                 1.5716                 4.6683
 IR Inten    --    117.3849                 3.2278                 5.6827

                     40                     41                     42
                      A                      A                      A
 Frequencies --   1493.1837              1511.6379              1512.2951
 Red. masses --      1.2529                 1.0480                 1.3756
 Frc consts  --      1.6459                 1.4109                 1.8536
 IR Inten    --     15.5556                 5.4397                 6.5313

                     43                     44                     45
                      A                      A                      A
 Frequencies --   1515.2239              1526.0700              1527.0935
 Red. masses --      1.0449                 1.1507                 1.7272
 Frc consts  --      1.4134                 1.5789                 2.3732
 IR Inten    --      6.7447                 5.6698                52.6960

                     46                     47                     48
                      A                      A                      A
 Frequencies --   1636.5389              1645.8990              1829.2114
 Red. masses --      6.0338                 6.6855                11.9477
 Frc consts  --      9.5212                10.6706                23.5538
 IR Inten    --     37.0080                52.9754               211.8439

                     49                     50                     51
                      A                      A                      A
 Frequencies --   3066.2745              3073.5949              3121.2779
 Red. masses --      1.0383                 1.0294                 1.1010
 Frc consts  --      5.7517                 5.7298                 6.3196
 IR Inten    --     12.9625                40.5708                10.7336

                     52                     53                     54
                      A                      A                      A
 Frequencies --   3146.9942              3171.2216              3173.3675
 Red. masses --      1.1073                 1.0998                 1.0913
 Frc consts  --      6.4611                 6.5167                 6.4747
 IR Inten    --     22.2339                 3.7556                23.3229

                     55                     56                     57
                      A                      A                      A
 Frequencies --   3178.5169              3248.3847              3741.4824
 Red. masses --      1.1071                 1.0927                 1.0660
 Frc consts  --      6.5900                 6.7934                 8.7922
 IR Inten    --     19.6679                 1.1471                49.1697

 - Thermochemistry -
 -------------------
 Temperature   298.150 Kelvin.  Pressure   1.00000 Atm.
 Atom     1 has atomic number  6 and mass  12.00000

 Molecular mass:   167.05824 amu.
 Principal axes and moments of inertia in atomic units:
                           1         2         3
     Eigenvalues --   776.195473444.488284198.14368
           X            0.99985  -0.01752  -0.00000
           Y            0.01752   0.99985  -0.00000
           Z            0.00000   0.00000   1.00000
 This molecule is an asymmetric top.
 Rotational symmetry number  1.
 Warning -- assumption of classical behavior for rotation
           may cause significant error
 Rotational temperatures (Kelvin)      0.11159     0.02515     0.02063
 Rotational constants (GHZ):           2.32511     0.52395     0.42989
    1 imaginary frequencies ignored.
 Zero-point vibrational energy     429468.6 (Joules/Mol)
                                  102.64546 (Kcal/Mol)
 Warning -- explicit consideration of  16 degrees of freedom as
           vibrations may cause significant error
 Vibrational temperatures:     57.95   117.73   191.55   204.68   219.68
          (Kelvin)            299.60   412.09   469.03   487.11   493.33
                              544.20   589.95   669.77   769.83   818.15
                              827.02   926.57  1041.14  1107.96  1136.90
                             1171.60  1217.64  1330.01  1379.83  1445.28
                             1523.23  1540.70  1643.52  1696.64  1708.15
                             1718.01  1764.37  1832.00  1871.78  1903.56
                             1962.85  2061.55  2113.90  2148.36  2174.91
                             2175.86  2180.07  2195.67  2197.15  2354.61
                             2368.08  2631.83  4411.69  4422.22  4490.82
                             4527.82  4562.68  4565.77  4573.18  4673.70
                             5383.16

 Zero-point correction=                           0.163576 (Hartree/Particle)
 Thermal correction to Energy=                    0.174468
 Thermal correction to Enthalpy=                  0.175412
 Thermal correction to Gibbs Free Energy=         0.126290
 Sum of electronic and zero-point Energies=           -590.567621
 Sum of electronic and thermal Energies=              -590.556730
 Sum of electronic and thermal Enthalpies=            -590.555785
 Sum of electronic and thermal Free Energies=         -590.604907

                     E (Thermal)             CV                S
                      KCal/Mol        Cal/Mol-Kelvin    Cal/Mol-Kelvin
 Total                  109.480             40.169            103.385
 Electronic               0.000              0.000              0.000
 Translational            0.889              2.981             41.248
 Rotational               0.889              2.981             30.796
 Vibrational            107.703             34.207             31.341
 Vibration     1          0.594              1.981              5.245
 Vibration     2          0.600              1.962              3.847
 Vibration     3          0.613              1.920              2.900
 Vibration     4          0.616              1.911              2.773
 Vibration     5          0.619              1.900              2.638
 Vibration     6          0.642              1.828              2.059
 Vibration     7          0.684              1.699              1.495
 Vibration     8          0.710              1.624              1.280
 Vibration     9          0.719              1.598              1.219
 Vibration    10          0.722              1.590              1.199
 Vibration    11          0.749              1.517              1.046
 Vibration    12          0.774              1.448              0.926
 Vibration    13          0.823              1.327              0.750
 Vibration    14          0.890              1.172              0.576
 Vibration    15          0.925              1.099              0.507
 Vibration    16          0.931              1.086              0.495

                           ! Non-Optimized Parameters !
 Normal termination of Gaussian 16 at Sun Dec 13 19:58:54 2020.

 ----------------------------------------------------------------------
 # B3LYP/6-311++G(d,p) empiricaldispersion=gd3bj scf=xqc pop=npa geom=c
 heck
 ----------------------------------------------------------------------

 ---------------------------------------
 CID_117800426_JID_2448_Energie_neutraal
 ---------------------------------------
 Structure from the checkpoint file:  "JID_2448.chk"
 Charge =  0 Multiplicity = 1

 SCF Done:  E(RB3LYP) =  -590.906092640     A.U. after   16 cycles
 Normal termination of Gaussian 16 at Sun Dec 13 20:00:17 2020.

 ----------------------------------------------------------------------
 # B3LYP/6-311++G(d,p) empiricaldispersion=gd3bj scf=xqc pop=npa geom=c
 heck
 ----------------------------------------------------------------------

 -------------------------------------
 CID_117800426_JID_2448_Energie_kation
 -------------------------------------
 Structure from the checkpoint file:  "JID_2448.chk"
 Charge =  1 Multiplicity = 2

 SCF Done:  E(UB3LYP) =  -590.584888622     A.U. after   23 cycles
 Normal termination of Gaussian 16 at Sun Dec 13 20:02:49 2020.
 Gaussian 16:  ES64L-G16RevA.03 25-Dec-2016

 ----------------------------------------------------------------------
 # B3LYP/6-311++G(d,p) empiricaldispersion=gd3bj scf=xqc pop=npa geom=c
 heck
 ----------------------------------------------------------------------

 ------------------------------------
 CID_117800426_JID_2448_Energie_anion
 ------------------------------------
 Structure from the checkpoint file:  "JID_2448.chk"
 Charge = -1 Multiplicity = 2

                         Standard orientation:
 ---------------------------------------------------------------------
 Center     Atomic      Atomic             Coordinates (Angstroms)
 Number     Number       Type             X           Y           Z
 ---------------------------------------------------------------------
      1          6           0       -2.704493    1.871340   -0.000063
      2          6           0       -1.747916    0.707818   -0.000080
      3          6           0       -2.208186   -0.628703   -0.000014
      4          6           0       -1.278792   -1.667595    0.000010
      5          6           0        0.076858   -1.359939    0.000031
      6          6           0        0.449121   -0.012958    0.000013
      7          7           0       -0.446336    0.984897   -0.000056
      8          6           0        1.885732    0.407853    0.000051
      9          8           0        2.285679    1.549429    0.000138
     10          8           0        2.713232   -0.670793   -0.000002
     11          6           0        4.111030   -0.354004   -0.000100
     12          8           0       -3.554316   -0.842937    0.000034
     13          1           0       -2.529725    2.496319    0.882178
     14          1           0       -2.526090    2.499188   -0.879499
     15          1           0       -3.744638    1.542502   -0.002614
     16          1           0       -1.613710   -2.703193    0.000021
     17          1           0        0.829011   -2.138552    0.000047
     18          1           0        4.373056    0.227687   -0.887966
     19          1           0        4.373807    0.224762    0.889481
     20          1           0        4.629742   -1.313195   -0.001832
     21          1           0       -3.723988   -1.798276    0.000124
 ---------------------------------------------------------------------

 SCF Done:  E(UB3LYP) =  -590.901225657     A.U. after   33 cycles
 SCF Done:  E(UB3LYP) =  -590.901225657     a.u. after    1 cycles

 The electronic state is 2-A.
 Alpha  occ. eigenvalues --  -19.01523 -19.00162 -18.91953 -14.11093 -10.10057
 Alpha  occ. eigenvalues --  -10.09319 -10.05995 -10.04295 -10.02207 -10.01887
 Alpha  occ. eigenvalues --  -10.01821 -10.01785  -0.93793  -0.92607  -0.84204
 Alpha  occ. eigenvalues --   -0.76692  -0.63815  -0.62199  -0.58964  -0.54480
 Alpha  occ. eigenvalues --   -0.49600  -0.45300  -0.42266  -0.39048  -0.36552
 Alpha  occ. eigenvalues --   -0.34258  -0.33772  -0.30808  -0.29358  -0.29184
 Alpha  occ. eigenvalues --   -0.27992  -0.26126  -0.25655  -0.25379  -0.24922
 Alpha  occ. eigenvalues --   -0.23677  -0.21101  -0.20502  -0.19642  -0.15126
 Alpha  occ. eigenvalues --   -0.12220  -0.10276  -0.08208  -0.07888   0.06907
 Alpha virt. eigenvalues --    0.08363   0.08872   0.10326   0.11274   0.12467
 Alpha virt. eigenvalues --    0.12919   0.13199   0.13957   0.14352   0.14450
 Alpha virt. eigenvalues --    0.16805   0.17343   0.17605   0.18580   0.19206

  Beta  occ. eigenvalues --  -19.01437 -19.00058 -18.91642 -14.10457 -10.09806
  Beta  occ. eigenvalues --  -10.09325 -10.05595 -10.04422 -10.02203 -10.01907
  Beta  occ. eigenvalues --  -10.01734 -10.01592  -0.93479  -0.92357  -0.83706
  Beta  occ. eigenvalues --   -0.75888  -0.63498  -0.61660  -0.58809  -0.54237
  Beta  occ. eigenvalues --   -0.48994  -0.45113  -0.42039  -0.38729  -0.36396
  Beta  occ. eigenvalues --   -0.34014  -0.33409  -0.30672  -0.29070  -0.28618
  Beta  occ. eigenvalues --   -0.27798  -0.25991  -0.25247  -0.25059  -0.23638
  Beta  occ. eigenvalues --   -0.23549  -0.20966  -0.20261  -0.18380  -0.13950
  Beta  occ. eigenvalues --   -0.10573  -0.09952  -0.07440  -0.06334
  Beta virt. eigenvalues --    0.08325   0.08853   0.10282   0.11240   0.12452
  Beta virt. eigenvalues --    0.13149   0.13192   0.13829   0.13923   0.14330
  Beta virt. eigenvalues --    0.14743   0.16769   0.17303   0.17934   0.18564

 Mulliken charges and spin densities:
               1          2
     1  C   -0.428776   0.011404
     2  C    0.041170  -0.084229
     3  C   -0.015240   0.218466
     4  C   -0.600464   0.133586
     5  C   -0.064268   0.018938
     6  C   -0.181203   0.138901
     7  N   -0.023821   0.303321
     8  C    0.007999   0.109257
     9  O   -0.363812   0.107988
    10  O   -0.144648   0.018537
    11  C   -0.227866  -0.003826
    12  O   -0.291637   0.018938
    13  H    0.120278   0.005394
    14  H    0.120540   0.005304
    15  H    0.155121  -0.001352
    16  H    0.078615  -0.011239
    17  H    0.175703   0.003327
    18  H    0.151732   0.004291
    19  H    0.151084   0.004847
    20  H    0.101092  -0.000574
    21  H    0.238400  -0.001280
 Sum of Mulliken charges =  -1.00000   1.00000

 Dipole moment (field-independent basis, Debye):
    X=             -0.6938    Y=             -4.3575    Z=             -0.0019  Tot=              4.4123
 Quadrupole moment (field-independent basis, Debye-Ang):
   XX=            -90.9695   YY=            -84.5137   ZZ=            -76.9048
   XY=             -2.6783   XZ=             -0.0086   YZ=             -0.0026

 Summary of Natural Population Analysis:

                                       Natural Population
                Natural  -----------------------------------------------
    Atom  No    Charge         Core      Valence    Rydberg      Total
 -----------------------------------------------------------------------
      C    1   -0.29661      0.99964     2.29163    0.00534     3.29661
      C    2    0.04898      0.99954     1.93614    0.01535     2.95102
      C    3    0.19953      0.99934     1.78884    0.01229     2.80047
      C    4   -0.13246      0.99954     2.12268    0.01024     3.13246
      C    5   -0.10683      0.99954     2.09892    0.00837     3.10683
      C    6    0.06153      0.99949     1.92557    0.01341     2.93847
      N    7   -0.12569      0.99964     2.61283    0.01322     3.62569
      C    8    0.42143      0.99966     1.55436    0.02455     2.57857
      O    9   -0.28975      0.99987     3.28328    0.00661     4.28975
      O   10   -0.28672      0.99986     3.27776    0.00909     4.28672
      C   11   -0.10544      0.99962     2.09674    0.00908     3.10544
      O   12   -0.34358      0.99988     3.33805    0.00566     4.34358
      H   13    0.09908      0.00000     0.39973    0.00119     0.40092
      H   14    0.09912      0.00000     0.39968    0.00120     0.40088
      H   15    0.09887      0.00000     0.40023    0.00090     0.40113
      H   16    0.08396      0.00000     0.41412    0.00191     0.41604
      H   17    0.10132      0.00000     0.39747    0.00121     0.39868
      H   18    0.08542      0.00000     0.41315    0.00143     0.41458
      H   19    0.08537      0.00000     0.41320    0.00143     0.41463
      H   20    0.07858      0.00000     0.42049    0.00093     0.42142
      H   21    0.22392      0.00000     0.27343    0.00266     0.27608
 =======================================================================
   * Total *    0.00000     11.99562    31.85830    0.14608    44.00000

 Normal termination of Gaussian 16 at Sun Dec 13 20:06:26 2020.
