 Gaussian 16, Revision A.03,

 -----------------------------------------------------------
 # opt freq B3LYP/6-31G(d) empiricaldispersion=gd3bj scf=xqc
 -----------------------------------------------------------

 ------------------------------
 CID_57209929_JID_1735_neutraal
 ------------------------------
 Symbolic Z-matrix:
 Charge =  0 Multiplicity = 1

 SCF Done:  E(RB3LYP) =  -465.921942455     A.U. after   14 cycles
 SCF Done:  E(RB3LYP) =  -465.924410172     A.U. after   12 cycles
 SCF Done:  E(RB3LYP) =  -465.924696390     A.U. after   11 cycles
 SCF Done:  E(RB3LYP) =  -465.924794347     A.U. after   11 cycles
 SCF Done:  E(RB3LYP) =  -465.924882208     A.U. after   10 cycles
 SCF Done:  E(RB3LYP) =  -465.924957789     A.U. after   11 cycles
 SCF Done:  E(RB3LYP) =  -465.925041330     A.U. after   10 cycles
 SCF Done:  E(RB3LYP) =  -465.925106283     A.U. after   11 cycles
 SCF Done:  E(RB3LYP) =  -465.925130280     A.U. after   10 cycles
 SCF Done:  E(RB3LYP) =  -465.925138763     A.U. after   10 cycles
 SCF Done:  E(RB3LYP) =  -465.925264904     A.U. after   10 cycles
 SCF Done:  E(RB3LYP) =  -465.925266056     A.U. after    8 cycles
 SCF Done:  E(RB3LYP) =  -465.925266935     A.U. after    8 cycles
 SCF Done:  E(RB3LYP) =  -465.925267064     A.U. after    7 cycles
 SCF Done:  E(RB3LYP) =  -465.925269417     A.U. after   10 cycles
 SCF Done:  E(RB3LYP) =  -465.925269531     A.U. after    7 cycles
 Optimization completed.
    -- Stationary point found.
 Normal termination of Gaussian 16 at Tue Dec  8 21:27:00 2020.

 --------------------------------------------------------------------
 #N Geom=AllCheck Guess=TCheck SCRF=Check GenChk RB3LYP/6-31G(d) Freq
 --------------------------------------------------------------------

 Structure from the checkpoint file:  "JID_1735.chk"
 ------------------------------
 CID_57209929_JID_1735_neutraal
 ------------------------------
 Charge =  0 Multiplicity = 1

 SCF Done:  E(RB3LYP) =  -465.925269531     A.U. after    1 cycles

  Exact polarizability: 132.853  -2.651 112.965   0.584   5.958  82.899
 Approx polarizability: 175.266  -1.894 159.266   1.052  15.037 126.435

                      1                      2                      3
                      A                      A                      A
 Frequencies --     43.6964                76.4567                92.2399
 Red. masses --      2.6674                 3.0234                 2.5360
 Frc consts  --      0.0030                 0.0104                 0.0127
 IR Inten    --      4.2476                 1.0404                 0.6160

                      4                      5                      6
                      A                      A                      A
 Frequencies --    125.3770               140.4227               193.4959
 Red. masses --      1.9084                 1.3660                 1.3129
 Frc consts  --      0.0177                 0.0159                 0.0290
 IR Inten    --      0.9567                 0.3482                 0.9100

                      7                      8                      9
                      A                      A                      A
 Frequencies --    213.7144               264.1065               304.3931
 Red. masses --      2.9918                 1.9109                 2.1501
 Frc consts  --      0.0805                 0.0785                 0.1174
 IR Inten    --      3.5142                 2.2696                 0.9582

                     10                     11                     12
                      A                      A                      A
 Frequencies --    338.4321               350.0423               396.4974
 Red. masses --      2.4393                 2.9481                 3.0831
 Frc consts  --      0.1646                 0.2128                 0.2856
 IR Inten    --      0.9652                 0.6365                 3.1923

                     13                     14                     15
                      A                      A                      A
 Frequencies --    426.1729               468.1056               496.7873
 Red. masses --      2.7746                 2.7596                 2.2050
 Frc consts  --      0.2969                 0.3563                 0.3206
 IR Inten    --      0.7629                 4.4914                 0.7271

                     16                     17                     18
                      A                      A                      A
 Frequencies --    532.1933               643.7224               657.0697
 Red. masses --      3.5543                 2.6389                 2.8015
 Frc consts  --      0.5931                 0.6443                 0.7126
 IR Inten    --      1.1287                 0.1388                 7.4212

                     19                     20                     21
                      A                      A                      A
 Frequencies --    678.3917               742.6795               829.3382
 Red. masses --      2.9947                 1.2152                 2.8211
 Frc consts  --      0.8120                 0.3949                 1.1432
 IR Inten    --      0.5709                 2.7600                 1.7848

                     22                     23                     24
                      A                      A                      A
 Frequencies --    839.9786               882.6893               911.8212
 Red. masses --      1.5525                 2.5011                 1.7828
 Frc consts  --      0.6454                 1.1482                 0.8733
 IR Inten    --      8.0720                 0.3407                15.2289

                     25                     26                     27
                      A                      A                      A
 Frequencies --    921.0784               935.4298               967.6832
 Red. masses --      1.6149                 1.4407                 2.2598
 Frc consts  --      0.8072                 0.7427                 1.2468
 IR Inten    --     26.3531                 3.2397                 0.8727

                     28                     29                     30
                      A                      A                      A
 Frequencies --   1018.2742              1065.2356              1067.2825
 Red. masses --      1.6971                 1.9072                 1.7708
 Frc consts  --      1.0368                 1.2751                 1.1885
 IR Inten    --      0.6517                18.1861                 3.7628

                     31                     32                     33
                      A                      A                      A
 Frequencies --   1078.7091              1091.3359              1116.8371
 Red. masses --      2.3625                 2.0751                 1.8859
 Frc consts  --      1.6197                 1.4562                 1.3860
 IR Inten    --     20.6354                16.0565                 1.3921

                     34                     35                     36
                      A                      A                      A
 Frequencies --   1167.3468              1178.7199              1184.5630
 Red. masses --      1.2449                 3.0890                 1.2952
 Frc consts  --      0.9995                 2.5287                 1.0708
 IR Inten    --      2.2754                94.3751                12.2103

                     37                     38                     39
                      A                      A                      A
 Frequencies --   1194.3472              1213.3466              1264.8857
 Red. masses --      1.5161                 1.6764                 2.6951
 Frc consts  --      1.2742                 1.4541                 2.5406
 IR Inten    --     15.7811                 4.2066               144.4642

                     40                     41                     42
                      A                      A                      A
 Frequencies --   1289.7604              1305.2562              1328.5794
 Red. masses --      1.3406                 1.2288                 2.6576
 Frc consts  --      1.3139                 1.2334                 2.7638
 IR Inten    --      2.4623                 4.3740                23.1998

                     43                     44                     45
                      A                      A                      A
 Frequencies --   1371.8267              1378.1504              1385.3013
 Red. masses --      1.4244                 1.3857                 1.4272
 Frc consts  --      1.5794                 1.5506                 1.6137
 IR Inten    --      1.8446                 1.1373                 1.9175

                     46                     47                     48
                      A                      A                      A
 Frequencies --   1402.7430              1441.9321              1474.2674
 Red. masses --      1.5282                 1.2586                 1.2037
 Frc consts  --      1.7717                 1.5418                 1.5414
 IR Inten    --      4.4352                 7.8171                 1.4578

                     49                     50                     51
                      A                      A                      A
 Frequencies --   1500.2171              1506.5568              1509.9613
 Red. masses --      1.1357                 1.0875                 1.1034
 Frc consts  --      1.5060                 1.4543                 1.4823
 IR Inten    --      2.1716                 0.3698                 3.9032

                     52                     53                     54
                      A                      A                      A
 Frequencies --   1513.6677              1516.6342              1519.4419
 Red. masses --      1.0691                 1.0782                 1.0728
 Frc consts  --      1.4433                 1.4612                 1.4592
 IR Inten    --      9.6979                 2.3862                 6.8339

                     55                     56                     57
                      A                      A                      A
 Frequencies --   1529.3404              1529.9174              1537.8857
 Red. masses --      1.0723                 1.0957                 1.0473
 Frc consts  --      1.4777                 1.5111                 1.4593
 IR Inten    --     10.8692                 1.6202                 9.1044

                     58                     59                     60
                      A                      A                      A
 Frequencies --   1716.1868              1730.2604              3006.3475
 Red. masses --      5.8255                 7.0994                 1.0727
 Frc consts  --     10.1091                12.5227                 5.7122
 IR Inten    --     24.6691                50.6293                38.0523

                     61                     62                     63
                      A                      A                      A
 Frequencies --   3008.3748              3019.2879              3031.2395
 Red. masses --      1.0691                 1.0353                 1.0651
 Frc consts  --      5.7008                 5.5607                 5.7663
 IR Inten    --     14.6449                59.2820                28.9836

                     64                     65                     66
                      A                      A                      A
 Frequencies --   3033.7127              3042.9713              3074.2189
 Red. masses --      1.0598                 1.0446                 1.0977
 Frc consts  --      5.7466                 5.6988                 6.1123
 IR Inten    --     35.1000                39.5669                68.1537

                     67                     68                     69
                      A                      A                      A
 Frequencies --   3076.6419              3080.0430              3085.1963
 Red. masses --      1.1046                 1.1007                 1.0979
 Frc consts  --      6.1606                 6.1522                 6.1570
 IR Inten    --     52.8713                64.4532                45.5388

                     70                     71                     72
                      A                      A                      A
 Frequencies --   3090.3418              3117.1950              3146.8619
 Red. masses --      1.0988                 1.0900                 1.0993
 Frc consts  --      6.1826                 6.2403                 6.4140
 IR Inten    --     17.2649                36.2258                27.8614

                     73                     74                     75
                      A                      A                      A
 Frequencies --   3160.4809              3173.4422              3254.9903
 Red. masses --      1.0627                 1.0930                 1.1127
 Frc consts  --      6.2540                 6.4855                 6.9459
 IR Inten    --     16.5970                18.5563                12.2630

 - Thermochemistry -
 -------------------
 Temperature   298.150 Kelvin.  Pressure   1.00000 Atm.
 Atom     1 has atomic number  6 and mass  12.00000

 Molecular mass:   152.12012 amu.
 Principal axes and moments of inertia in atomic units:
                           1         2         3
     Eigenvalues --  1044.175712246.914802867.37362
           X            0.99994  -0.00965  -0.00514
           Y            0.00961   0.99992  -0.00780
           Z            0.00522   0.00775   0.99996
 This molecule is an asymmetric top.
 Rotational symmetry number  1.
 Warning -- assumption of classical behavior for rotation
           may cause significant error
 Rotational temperatures (Kelvin)      0.08295     0.03855     0.03021
 Rotational constants (GHZ):           1.72839     0.80321     0.62941
 Zero-point vibrational energy     634033.5 (Joules/Mol)
                                  151.53765 (Kcal/Mol)
 Warning -- explicit consideration of  16 degrees of freedom as
           vibrations may cause significant error
 Vibrational temperatures:     62.87   110.00   132.71   180.39   202.04
          (Kelvin)            278.40   307.49   379.99   437.95   486.93
                              503.63   570.47   613.17   673.50   714.77
                              765.71   926.17   945.38   976.05  1068.55
                             1193.23  1208.54  1269.99  1311.91  1325.23
                             1345.87  1392.28  1465.07  1532.64  1535.58
                             1552.02  1570.19  1606.88  1679.55  1695.91
                             1704.32  1718.40  1745.74  1819.89  1855.68
                             1877.97  1911.53  1973.75  1982.85  1993.14
                             2018.23  2074.62  2121.14  2158.48  2167.60
                             2172.50  2177.83  2182.10  2186.14  2200.38
                             2201.21  2212.67  2469.21  2489.46  4325.46
                             4328.38  4344.08  4361.28  4364.84  4378.16
                             4423.12  4426.60  4431.49  4438.91  4446.31
                             4484.95  4527.63  4547.23  4565.88  4683.21

 Zero-point correction=                           0.241491 (Hartree/Particle)
 Thermal correction to Energy=                    0.253313
 Thermal correction to Enthalpy=                  0.254257
 Thermal correction to Gibbs Free Energy=         0.203656
 Sum of electronic and zero-point Energies=           -465.683779
 Sum of electronic and thermal Energies=              -465.671956
 Sum of electronic and thermal Enthalpies=            -465.671012
 Sum of electronic and thermal Free Energies=         -465.721613

                     E (Thermal)             CV                S
                      KCal/Mol        Cal/Mol-Kelvin    Cal/Mol-Kelvin
 Total                  158.956             44.428            106.499
 Electronic               0.000              0.000              0.000
 Translational            0.889              2.981             40.968
 Rotational               0.889              2.981             30.288
 Vibrational            157.179             38.467             35.243
 Vibration     1          0.595              1.980              5.084
 Vibration     2          0.599              1.965              3.980
 Vibration     3          0.602              1.955              3.612
 Vibration     4          0.610              1.928              3.016
 Vibration     5          0.615              1.913              2.798
 Vibration     6          0.635              1.849              2.194
 Vibration     7          0.644              1.820              2.012
 Vibration     8          0.671              1.739              1.634
 Vibration     9          0.695              1.665              1.393
 Vibration    10          0.719              1.599              1.220
 Vibration    11          0.727              1.575              1.166
 Vibration    12          0.763              1.478              0.976
 Vibration    13          0.788              1.413              0.871
 Vibration    14          0.825              1.321              0.743
 Vibration    15          0.852              1.257              0.666
 Vibration    16          0.887              1.179              0.582

 Optimization completed.
    -- Stationary point found.
 Normal termination of Gaussian 16 at Tue Dec  8 21:34:05 2020.

 ----------------------------------------------------------------------
 # B3LYP/6-311++G(d,p) empiricaldispersion=gd3bj scf=xqc pop=npa geom=c
 heck
 ----------------------------------------------------------------------

 --------------------------------------
 CID_57209929_JID_1735_Energie_neutraal
 --------------------------------------
 Structure from the checkpoint file:  "JID_1735.chk"
 Charge =  0 Multiplicity = 1

 SCF Done:  E(RB3LYP) =  -466.054264687     A.U. after   15 cycles
 Normal termination of Gaussian 16 at Tue Dec  8 21:39:13 2020.

 ----------------------------------------------------------------------
 # B3LYP/6-311++G(d,p) empiricaldispersion=gd3bj scf=xqc pop=npa geom=c
 heck
 ----------------------------------------------------------------------

 ------------------------------------
 CID_57209929_JID_1735_Energie_kation
 ------------------------------------
 Structure from the checkpoint file:  "JID_1735.chk"
 Charge =  1 Multiplicity = 2

 SCF Done:  E(UB3LYP) =  -465.773272796     A.U. after   20 cycles
 Normal termination of Gaussian 16 at Tue Dec  8 21:46:15 2020.
 Gaussian 16:  ES64L-G16RevA.03 25-Dec-2016

 ----------------------------------------------------------------------
 # B3LYP/6-311++G(d,p) empiricaldispersion=gd3bj scf=xqc pop=npa geom=c
 heck
 ----------------------------------------------------------------------

 -----------------------------------
 CID_57209929_JID_1735_Energie_anion
 -----------------------------------
 Structure from the checkpoint file:  "JID_1735.chk"
 Charge = -1 Multiplicity = 2

                         Standard orientation:
 ---------------------------------------------------------------------
 Center     Atomic      Atomic             Coordinates (Angstroms)
 Number     Number       Type             X           Y           Z
 ---------------------------------------------------------------------
      1          6           0       -2.033040    1.773826   -0.270511
      2          6           0       -1.295045    0.460927   -0.229833
      3          6           0        0.036403    0.280193   -0.348410
      4          6           0        1.017683    1.419813   -0.559047
      5          6           0        2.193014    1.354780    0.431554
      6          6           0        2.890999   -0.006329    0.366321
      7          6           0        1.888164   -1.137838    0.637948
      8          6           0        0.680268   -1.059795   -0.276227
      9          6           0        0.269725   -2.120007   -0.981197
     10          8           0       -2.110172   -0.650149   -0.117371
     11          6           0       -3.041128   -0.642994    0.955191
     12          1           0       -1.409360    2.590276   -0.633575
     13          1           0       -2.413536    2.063507    0.717656
     14          1           0       -2.898743    1.686554   -0.938387
     15          1           0        1.426495    1.348663   -1.579184
     16          1           0        0.532365    2.395461   -0.484014
     17          1           0        1.815085    1.522753    1.449835
     18          1           0        2.902714    2.162949    0.215353
     19          1           0        3.716490   -0.052267    1.087382
     20          1           0        3.328449   -0.143037   -0.632408
     21          1           0        1.546641   -1.051418    1.681244
     22          1           0        2.370080   -2.117003    0.539240
     23          1           0        0.786317   -3.074572   -0.908555
     24          1           0       -0.594666   -2.073606   -1.633876
     25          1           0       -2.538115   -0.480337    1.918511
     26          1           0       -3.822461    0.117868    0.826898
     27          1           0       -3.508629   -1.630057    0.958113
 ---------------------------------------------------------------------

 SCF Done:  E(UB3LYP) =  -466.037496751     A.U. after   32 cycles

 The electronic state is 2-A.
 Alpha  occ. eigenvalues --  -19.02715 -10.11637 -10.10560 -10.07111 -10.06444
 Alpha  occ. eigenvalues --  -10.06411 -10.06384 -10.06122 -10.06116 -10.05863
 Alpha  occ. eigenvalues --  -10.04714  -0.94374  -0.73859  -0.67636  -0.66167
 Alpha  occ. eigenvalues --   -0.62106  -0.59460  -0.56540  -0.52475  -0.47605
 Alpha  occ. eigenvalues --   -0.46081  -0.41775  -0.38048  -0.37064  -0.35629
 Alpha  occ. eigenvalues --   -0.34870  -0.33208  -0.32224  -0.31338  -0.30828
 Alpha  occ. eigenvalues --   -0.29754  -0.29072  -0.28332  -0.26793  -0.25641
 Alpha  occ. eigenvalues --   -0.23346  -0.22748  -0.22533  -0.20747  -0.18109
 Alpha  occ. eigenvalues --   -0.15030  -0.10883   0.04769
 Alpha virt. eigenvalues --    0.06759   0.07559   0.08307   0.08859   0.08984
 Alpha virt. eigenvalues --    0.09393   0.10439   0.10681   0.11055   0.11661
 Alpha virt. eigenvalues --    0.12572   0.12601   0.13188   0.13350   0.13976

  Beta  occ. eigenvalues --  -19.02710 -10.11638 -10.10512 -10.07107 -10.06432
  Beta  occ. eigenvalues --  -10.06393 -10.06370 -10.06116 -10.06094 -10.05812
  Beta  occ. eigenvalues --  -10.04685  -0.94365  -0.73829  -0.67607  -0.66129
  Beta  occ. eigenvalues --   -0.62058  -0.59381  -0.56482  -0.52424  -0.47539
  Beta  occ. eigenvalues --   -0.46026  -0.41735  -0.38017  -0.37014  -0.35594
  Beta  occ. eigenvalues --   -0.34830  -0.33174  -0.32186  -0.31310  -0.30790
  Beta  occ. eigenvalues --   -0.29706  -0.29030  -0.28289  -0.26754  -0.25604
  Beta  occ. eigenvalues --   -0.23314  -0.22714  -0.22502  -0.20718  -0.18078
  Beta  occ. eigenvalues --   -0.14946  -0.10829
  Beta virt. eigenvalues --    0.07055   0.07703   0.08231   0.08478   0.09451
  Beta virt. eigenvalues --    0.09625   0.10023   0.10671   0.10891   0.11534
  Beta virt. eigenvalues --    0.12242   0.12885   0.13036   0.13447   0.13573

 Mulliken charges and spin densities:
               1          2
     1  C    2.560044  -3.115593
     2  C   -1.573662   0.941549
     3  C    0.481376   0.692647
     4  C   -0.109040  -0.658658
     5  C    0.645580  -1.060141
     6  C   -0.404020   0.096831
     7  C    0.262288  -0.977533
     8  C   -1.286716   1.709104
     9  C   -0.111524  -0.110241
    10  O   -0.119922   0.070584
    11  C    1.220795  -1.500323
    12  H   -0.284566   0.423718
    13  H   -0.508095   0.695872
    14  H   -0.144758   0.320893
    15  H    0.004069   0.146624
    16  H   -0.005226   0.119505
    17  H    0.042552   0.105054
    18  H   -0.410511   0.570399
    19  H   -0.352895   0.515385
    20  H    0.158023  -0.043543
    21  H   -0.096791   0.258093
    22  H   -0.020427   0.144225
    23  H    0.020512   0.081806
    24  H    0.136767   0.032192
    25  H   -0.242821   0.391154
    26  H   -0.557940   0.706293
    27  H   -0.303094   0.444103
 Sum of Mulliken charges =  -1.00000   1.00000

 Dipole moment (field-independent basis, Debye):
    X=              3.5598    Y=             -2.9998    Z=             -3.0282  Tot=              5.5535
 Quadrupole moment (field-independent basis, Debye-Ang):
   XX=           -137.0331   YY=           -112.0616   ZZ=            -99.6988
   XY=              1.4724   XZ=              0.4405   YZ=             -0.1495

 Summary of Natural Population Analysis:

                                       Natural Population
                Natural  -----------------------------------------------
    Atom  No    Charge         Core      Valence    Rydberg      Total
 -----------------------------------------------------------------------
      C    1   -0.31351      0.99962     2.30833    0.00556     3.31351
      C    2    0.17050      0.99933     1.81558    0.01459     2.82950
      C    3   -0.05950      0.99939     2.04757    0.01254     3.05950
      C    4   -0.19155      0.99960     2.18313    0.00882     3.19155
      C    5   -0.18591      0.99963     2.17804    0.00825     3.18591
      C    6   -0.18688      0.99963     2.17854    0.00871     3.18688
      C    7   -0.19955      0.99959     2.19044    0.00952     3.19955
      C    8   -0.00735      0.99950     1.99483    0.01303     3.00735
      C    9   -0.18094      0.99950     2.17566    0.00578     3.18094
      O   10   -0.29110      0.99986     3.28026    0.01097     4.29110
      C   11   -0.09750      0.99959     2.08875    0.00916     3.09750
      H   12    0.10753      0.00000     0.39120    0.00127     0.39247
      H   13    0.10852      0.00000     0.38951    0.00197     0.39148
      H   14    0.10642      0.00000     0.39216    0.00142     0.39358
      H   15    0.09413      0.00000     0.40456    0.00131     0.40587
      H   16    0.10408      0.00000     0.39460    0.00132     0.39592
      H   17    0.09572      0.00000     0.40248    0.00179     0.40428
      H   18    0.09747      0.00000     0.40130    0.00123     0.40253
      H   19    0.09888      0.00000     0.39982    0.00130     0.40112
      H   20    0.09056      0.00000     0.40814    0.00130     0.40944
      H   21    0.10086      0.00000     0.39740    0.00174     0.39914
      H   22    0.09754      0.00000     0.40140    0.00106     0.40246
      H   23    0.08642      0.00000     0.41254    0.00104     0.41358
      H   24    0.09817      0.00000     0.40062    0.00121     0.40183
      H   25    0.08307      0.00000     0.41513    0.00180     0.41693
      H   26    0.08350      0.00000     0.41414    0.00236     0.41650
      H   27    0.09041      0.00000     0.40829    0.00130     0.40959
 =======================================================================
   * Total *   -0.00000     10.99523    30.87442    0.13035    42.00000

 Normal termination of Gaussian 16 at Tue Dec  8 21:54:03 2020.
