 Gaussian 16, Revision A.03,

 -----------------------------------------------------------
 # opt freq B3LYP/6-31G(d) empiricaldispersion=gd3bj scf=xqc
 -----------------------------------------------------------

 -----------------------------
 CID_59745398_JID_832_neutraal
 -----------------------------
 Symbolic Z-matrix:
 Charge =  0 Multiplicity = 1

 SCF Done:  E(RB3LYP) =  -1181.48791914     A.U. after   13 cycles
 SCF Done:  E(RB3LYP) =  -1181.49177457     A.U. after   11 cycles
 SCF Done:  E(RB3LYP) =  -1181.49234943     A.U. after   11 cycles
 SCF Done:  E(RB3LYP) =  -1181.49258528     A.U. after   11 cycles
 SCF Done:  E(RB3LYP) =  -1181.49264859     A.U. after   10 cycles
 SCF Done:  E(RB3LYP) =  -1181.49271937     A.U. after   10 cycles
 SCF Done:  E(RB3LYP) =  -1181.49272602     A.U. after    9 cycles
 SCF Done:  E(RB3LYP) =  -1181.49272649     A.U. after    8 cycles
 SCF Done:  E(RB3LYP) =  -1181.49272655     A.U. after    7 cycles
 Optimization completed.
    -- Stationary point found.
 Normal termination of Gaussian 16 at Tue Dec  8 12:41:24 2020.

 --------------------------------------------------------------------
 #N Geom=AllCheck Guess=TCheck SCRF=Check GenChk RB3LYP/6-31G(d) Freq
 --------------------------------------------------------------------

 Structure from the checkpoint file:  "JID_832.chk"
 -----------------------------
 CID_59745398_JID_832_neutraal
 -----------------------------
 Charge =  0 Multiplicity = 1

 SCF Done:  E(RB3LYP) =  -1181.49272655     A.U. after    1 cycles

  Exact polarizability: 118.949   0.990  85.237   3.210   0.137  81.135
 Approx polarizability: 151.874  -0.760 136.411   5.747   0.009 127.444

                      1                      2                      3
                      A                      A                      A
 Frequencies --     60.0905               107.2254               183.4816
 Red. masses --      7.8278                 6.6735                 2.9130
 Frc consts  --      0.0167                 0.0452                 0.0578
 IR Inten    --      0.3156                 0.7342                 1.5862

                      4                      5                      6
                      A                      A                      A
 Frequencies --    210.7982               217.6598               268.2882
 Red. masses --      5.9397                 4.3181                 1.1476
 Frc consts  --      0.1555                 0.1205                 0.0487
 IR Inten    --      5.2131                 6.4600                15.8662

                      7                      8                      9
                      A                      A                      A
 Frequencies --    282.9592               293.9624               320.9968
 Red. masses --      1.1590                 3.8139                 3.3728
 Frc consts  --      0.0547                 0.1942                 0.2048
 IR Inten    --     11.7136                10.2610                 8.6078

                     10                     11                     12
                      A                      A                      A
 Frequencies --    389.0882               417.2818               577.3112
 Red. masses --      3.6498                 6.5746                 3.7243
 Frc consts  --      0.3256                 0.6745                 0.7313
 IR Inten    --      3.3455                 0.2348                 6.9722

                     13                     14                     15
                      A                      A                      A
 Frequencies --    616.1905               684.7548               728.8232
 Red. masses --      3.9040                 3.1948                 3.2905
 Frc consts  --      0.8733                 0.8826                 1.0298
 IR Inten    --      2.4264                12.3267                10.9755

                     16                     17                     18
                      A                      A                      A
 Frequencies --    791.7576               859.3680               864.3083
 Red. masses --      3.2860                 4.9823                 3.2864
 Frc consts  --      1.2137                 2.1679                 1.4465
 IR Inten    --     32.6671                 8.6890                 8.2858

                     19                     20                     21
                      A                      A                      A
 Frequencies --    888.9569               908.8172               926.6784
 Red. masses --      2.2609                 1.5678                 1.5953
 Frc consts  --      1.0527                 0.7630                 0.8071
 IR Inten    --     13.7006                 2.6240                 5.9565

                     22                     23                     24
                      A                      A                      A
 Frequencies --    953.3678               973.6256               985.2365
 Red. masses --      2.0604                 2.4665                 3.4599
 Frc consts  --      1.1033                 1.3776                 1.9788
 IR Inten    --     14.9447                 1.0556                21.6062

                     25                     26                     27
                      A                      A                      A
 Frequencies --   1041.5157              1057.2505              1083.0082
 Red. masses --      1.7333                 2.6464                 3.0332
 Frc consts  --      1.1078                 1.7428                 2.0961
 IR Inten    --     41.3376                22.3780                44.9883

                     28                     29                     30
                      A                      A                      A
 Frequencies --   1096.3807              1117.0919              1128.1437
 Red. masses --      1.7180                 4.9898                 4.0523
 Frc consts  --      1.2168                 3.6687                 3.0386
 IR Inten    --     41.8818                22.8658               109.2777

                     31                     32                     33
                      A                      A                      A
 Frequencies --   1218.3496              1232.4750              1251.0300
 Red. masses --      1.4230                 1.3076                 1.2965
 Frc consts  --      1.2445                 1.1702                 1.1955
 IR Inten    --      5.8618                 2.6790                 1.7023

                     34                     35                     36
                      A                      A                      A
 Frequencies --   1275.1838              1285.0170              1300.8045
 Red. masses --      1.2206                 1.3068                 1.3576
 Frc consts  --      1.1695                 1.2713                 1.3535
 IR Inten    --      2.1240                 6.4636                 8.7904

                     37                     38                     39
                      A                      A                      A
 Frequencies --   1317.4046              1339.3395              1358.9807
 Red. masses --      1.4034                 1.4868                 1.2109
 Frc consts  --      1.4351                 1.5714                 1.3176
 IR Inten    --      2.2903                 1.8061                 3.9225

                     40                     41                     42
                      A                      A                      A
 Frequencies --   1369.0047              1401.9239              1408.2093
 Red. masses --      1.2205                 1.3792                 1.3402
 Frc consts  --      1.3477                 1.5971                 1.5659
 IR Inten    --      2.6320                 7.8661                 0.1491

                     43                     44                     45
                      A                      A                      A
 Frequencies --   1542.2277              1557.4552              2679.2271
 Red. masses --      1.0875                 1.0859                 1.0382
 Frc consts  --      1.5240                 1.5519                 4.3908
 IR Inten    --      0.4928                 3.0071                 8.5214

                     46                     47                     48
                      A                      A                      A
 Frequencies --   2682.1763              3026.5183              3033.9136
 Red. masses --      1.0376                 1.0708                 1.0696
 Frc consts  --      4.3981                 5.7790                 5.8004
 IR Inten    --      4.5299                 2.1009                81.8182

                     49                     50                     51
                      A                      A                      A
 Frequencies --   3089.1842              3114.5090              3122.9988
 Red. masses --      1.0842                 1.0886                 1.0897
 Frc consts  --      6.0961                 6.2213                 6.2617
 IR Inten    --      6.6711                 5.4808                32.9667

                     52                     53                     54
                      A                      A                      A
 Frequencies --   3128.7234              3142.8036              3143.6534
 Red. masses --      1.0961                 1.0900                 1.0936
 Frc consts  --      6.3220                 6.3432                 6.3679
 IR Inten    --     38.2351                 8.4989                 8.3711

 - Thermochemistry -
 -------------------
 Temperature   298.150 Kelvin.  Pressure   1.00000 Atm.
 Atom     1 has atomic number  6 and mass  12.00000

 Molecular mass:   178.01222 amu.
 Principal axes and moments of inertia in atomic units:
                           1         2         3
     Eigenvalues --   856.327992892.747323277.53394
           X            0.99994   0.01050  -0.00135
           Y           -0.01051   0.99993  -0.00501
           Z            0.00130   0.00502   0.99999
 This molecule is an asymmetric top.
 Rotational symmetry number  1.
 Warning -- assumption of classical behavior for rotation
           may cause significant error
 Rotational temperatures (Kelvin)      0.10115     0.02994     0.02643
 Rotational constants (GHZ):           2.10753     0.62388     0.55064
 Zero-point vibrational energy     413043.8 (Joules/Mol)
                                   98.71984 (Kcal/Mol)
 Warning -- explicit consideration of  13 degrees of freedom as
           vibrations may cause significant error
 Vibrational temperatures:     86.46   154.27   263.99   303.29   313.16
          (Kelvin)            386.01   407.12   422.95   461.84   559.81
                              600.38   830.62   886.56   985.21  1048.61
                             1139.16  1236.44  1243.55  1279.01  1307.59
                             1333.28  1371.68  1400.83  1417.54  1498.51
                             1521.15  1558.21  1577.45  1607.25  1623.15
                             1752.93  1773.26  1799.95  1834.71  1848.85
                             1871.57  1895.45  1927.01  1955.27  1969.69
                             2017.06  2026.10  2218.92  2240.83  3854.81
                             3859.05  4354.48  4365.12  4444.65  4481.08
                             4493.30  4501.54  4521.79  4523.02

 Zero-point correction=                           0.157320 (Hartree/Particle)
 Thermal correction to Energy=                    0.167020
 Thermal correction to Enthalpy=                  0.167964
 Thermal correction to Gibbs Free Energy=         0.121740
 Sum of electronic and zero-point Energies=          -1181.335406
 Sum of electronic and thermal Energies=             -1181.325707
 Sum of electronic and thermal Enthalpies=           -1181.324763
 Sum of electronic and thermal Free Energies=        -1181.370986

                     E (Thermal)             CV                S
                      KCal/Mol        Cal/Mol-Kelvin    Cal/Mol-Kelvin
 Total                  104.806             36.858             97.285
 Electronic               0.000              0.000              0.000
 Translational            0.889              2.981             41.437
 Rotational               0.889              2.981             30.474
 Vibrational            103.029             30.897             25.374
 Vibration     1          0.597              1.973              4.454
 Vibration     2          0.606              1.943              3.319
 Vibration     3          0.631              1.862              2.293
 Vibration     4          0.643              1.824              2.037
 Vibration     5          0.646              1.814              1.978
 Vibration     6          0.673              1.731              1.607
 Vibration     7          0.682              1.705              1.516
 Vibration     8          0.689              1.685              1.451
 Vibration     9          0.706              1.633              1.305
 Vibration    10          0.757              1.493              1.004
 Vibration    11          0.780              1.433              0.901
 Vibration    12          0.934              1.080              0.490
 Vibration    13          0.976              0.998              0.423

 Optimization completed.
    -- Stationary point found.
 Normal termination of Gaussian 16 at Tue Dec  8 12:48:43 2020.

 ----------------------------------------------------------------------
 # B3LYP/6-311++G(d,p) empiricaldispersion=gd3bj scf=xqc pop=npa geom=c
 heck
 ----------------------------------------------------------------------

 -------------------------------------
 CID_59745398_JID_832_Energie_neutraal
 -------------------------------------
 Structure from the checkpoint file:  "JID_832.chk"
 Charge =  0 Multiplicity = 1

 SCF Done:  E(RB3LYP) =  -1181.66261448     A.U. after   13 cycles
 Normal termination of Gaussian 16 at Tue Dec  8 13:04:07 2020.

 ----------------------------------------------------------------------
 # B3LYP/6-311++G(d,p) empiricaldispersion=gd3bj scf=xqc pop=npa geom=c
 heck
 ----------------------------------------------------------------------

 -----------------------------------
 CID_59745398_JID_832_Energie_kation
 -----------------------------------
 Structure from the checkpoint file:  "JID_832.chk"
 Charge =  1 Multiplicity = 2

 SCF Done:  E(UB3LYP) =  -1181.34746966     A.U. after   22 cycles
 Normal termination of Gaussian 16 at Tue Dec  8 13:10:52 2020.
 Gaussian 16:  ES64L-G16RevA.03 25-Dec-2016

 ----------------------------------------------------------------------
 # B3LYP/6-311++G(d,p) empiricaldispersion=gd3bj scf=xqc pop=npa geom=c
 heck
 ----------------------------------------------------------------------

 ----------------------------------
 CID_59745398_JID_832_Energie_anion
 ----------------------------------
 Structure from the checkpoint file:  "JID_832.chk"
 Charge = -1 Multiplicity = 2

                         Standard orientation:
 ---------------------------------------------------------------------
 Center     Atomic      Atomic             Coordinates (Angstroms)
 Number     Number       Type             X           Y           Z
 ---------------------------------------------------------------------
      1          6           0       -0.913509   -0.584475    1.314165
      2          6           0       -1.731694    0.389766    0.467596
      3          6           0       -0.658244    0.913573   -0.497820
      4          6           0        0.275914   -0.300913   -0.687751
      5          8           0       -0.019635   -1.208989    0.383531
      6          6           0        1.674318    0.321331   -0.566599
      7          6           0        1.432868    1.458765    0.428653
      8          8           0        0.124057    1.944995    0.120065
      9         16           0        3.015570   -0.842164   -0.138516
     10         16           0       -3.125891   -0.432404   -0.415602
     11          1           0       -1.503912   -1.368747    1.791134
     12          1           0       -0.354001   -0.036668    2.085533
     13          1           0       -2.174529    1.202825    1.045381
     14          1           0       -1.083921    1.305418   -1.424386
     15          1           0        0.141859   -0.837761   -1.629346
     16          1           0        1.943894    0.741179   -1.541320
     17          1           0        1.486453    1.086813    1.461570
     18          1           0        2.139764    2.285148    0.320998
     19          1           0        2.279024   -1.534536    0.756104
     20          1           0       -2.422781   -1.526923   -0.778005
 ---------------------------------------------------------------------

 SCF Done:  E(UB3LYP) =  -1181.64893866     A.U. after   28 cycles

 The electronic state is 2-A.
 Alpha  occ. eigenvalues --  -88.74101 -88.74073 -19.03422 -19.03016 -10.12977
 Alpha  occ. eigenvalues --  -10.12924 -10.12435 -10.11931 -10.11169 -10.10831
 Alpha  occ. eigenvalues --   -7.82798  -7.82780  -5.79167  -5.79143  -5.78819
 Alpha  occ. eigenvalues --   -5.78813  -5.78191  -5.78160  -0.96350  -0.93338
 Alpha  occ. eigenvalues --   -0.72245  -0.70484  -0.64719  -0.60956  -0.59672
 Alpha  occ. eigenvalues --   -0.51883  -0.48768  -0.47311  -0.43327  -0.41040
 Alpha  occ. eigenvalues --   -0.38218  -0.36167  -0.35111  -0.32583  -0.30954
 Alpha  occ. eigenvalues --   -0.30836  -0.28663  -0.27625  -0.27276  -0.25084
 Alpha  occ. eigenvalues --   -0.23678  -0.22731  -0.21780  -0.17854  -0.16567
 Alpha  occ. eigenvalues --   -0.14232  -0.13665   0.04734
 Alpha virt. eigenvalues --    0.07342   0.07886   0.08565   0.09735   0.10051
 Alpha virt. eigenvalues --    0.10294   0.10856   0.10934   0.11608   0.13229
 Alpha virt. eigenvalues --    0.13638   0.14380   0.15011   0.15585   0.16293

  Beta  occ. eigenvalues --  -88.74091 -88.74053 -19.03414 -19.03015 -10.12955
  Beta  occ. eigenvalues --  -10.12909 -10.12406 -10.11904 -10.11158 -10.10808
  Beta  occ. eigenvalues --   -7.82787  -7.82758  -5.79146  -5.79100  -5.78813
  Beta  occ. eigenvalues --   -5.78800  -5.78184  -5.78145  -0.96329  -0.93326
  Beta  occ. eigenvalues --   -0.72202  -0.70439  -0.64661  -0.60883  -0.59602
  Beta  occ. eigenvalues --   -0.51805  -0.48722  -0.47235  -0.43239  -0.40970
  Beta  occ. eigenvalues --   -0.38156  -0.36136  -0.35071  -0.32520  -0.30909
  Beta  occ. eigenvalues --   -0.30767  -0.28602  -0.27560  -0.27217  -0.25048
  Beta  occ. eigenvalues --   -0.23616  -0.22682  -0.21752  -0.17830  -0.16543
  Beta  occ. eigenvalues --   -0.14195  -0.13629
  Beta virt. eigenvalues --    0.07226   0.08495   0.08684   0.09009   0.10178
  Beta virt. eigenvalues --    0.10310   0.11003   0.11292   0.11603   0.11917
  Beta virt. eigenvalues --    0.13500   0.14136   0.14612   0.15211   0.15630

 Mulliken charges and spin densities:
               1          2
     1  C    0.568881  -1.356148
     2  C    0.454372   0.473655
     3  C   -2.200359   1.292110
     4  C    2.160085  -2.396228
     5  O   -0.184412   0.053249
     6  C   -0.771443   1.118430
     7  C    1.460877  -1.998034
     8  O   -0.068632   0.001012
     9  S    0.190857  -0.405685
    10  S    0.942216  -1.211849
    11  H   -0.325805   0.530625
    12  H   -0.127599   0.284821
    13  H   -0.448283   0.761367
    14  H   -0.647951   0.877809
    15  H   -0.388532   0.616842
    16  H   -0.593412   0.872197
    17  H   -0.049908   0.196603
    18  H   -0.289533   0.454397
    19  H   -0.152208   0.224238
    20  H   -0.529209   0.610591
 Sum of Mulliken charges =  -1.00000   1.00000

 Dipole moment (field-independent basis, Debye):
    X=              0.3091    Y=             -0.7996    Z=              2.3075  Tot=              2.4616
 Quadrupole moment (field-independent basis, Debye-Ang):
   XX=           -126.1224   YY=           -112.4279   ZZ=           -112.1304
   XY=             -3.1772   XZ=              3.8483   YZ=              1.3192

 Summary of Natural Population Analysis:

                                       Natural Population
                Natural  -----------------------------------------------
    Atom  No    Charge         Core      Valence    Rydberg      Total
 -----------------------------------------------------------------------
      C    1   -0.01489      0.99953     2.00164    0.01372     3.01489
      C    2   -0.18207      0.99953     2.17025    0.01229     3.18207
      C    3    0.05181      0.99948     1.93134    0.01737     2.94819
      C    4    0.05108      0.99949     1.93151    0.01791     2.94892
      O    5   -0.30889      0.99989     3.29818    0.01081     4.30889
      C    6   -0.18702      0.99950     2.17388    0.01364     3.18702
      C    7   -0.01267      0.99953     1.99897    0.01417     3.01267
      O    8   -0.30306      0.99989     3.29332    0.00985     4.30306
      S    9   -0.01937      4.99962     3.00459    0.01516     8.01937
      S   10   -0.02044      4.99965     3.00590    0.01489     8.02044
      H   11    0.09875      0.00000     0.39927    0.00198     0.40125
      H   12    0.08589      0.00000     0.41178    0.00233     0.41411
      H   13    0.11666      0.00000     0.38173    0.00161     0.38334
      H   14    0.10554      0.00000     0.39148    0.00297     0.39446
      H   15    0.10672      0.00000     0.38974    0.00354     0.39328
      H   16    0.11433      0.00000     0.38229    0.00338     0.38567
      H   17    0.08075      0.00000     0.41707    0.00218     0.41925
      H   18    0.09653      0.00000     0.40158    0.00189     0.40347
      H   19    0.07225      0.00000     0.42441    0.00334     0.42775
      H   20    0.06810      0.00000     0.42808    0.00382     0.43190
 =======================================================================
   * Total *   -0.00000     17.99612    28.83702    0.16686    47.00000

 Normal termination of Gaussian 16 at Tue Dec  8 13:23:58 2020.
