 Gaussian 16, Revision A.03,

 -----------------------------------------------------------
 # opt freq B3LYP/6-31G(d) empiricaldispersion=gd3bj scf=xqc
 -----------------------------------------------------------

 -------------------------------
 CID_119892441_JID_5788_neutraal
 -------------------------------
 Symbolic Z-matrix:
 Charge =  0 Multiplicity = 1

 SCF Done:  E(RB3LYP) =  -1029.02726891     A.U. after   15 cycles
 SCF Done:  E(RB3LYP) =  -1029.03077599     A.U. after   12 cycles
 SCF Done:  E(RB3LYP) =  -1029.02860982     A.U. after   14 cycles
 SCF Done:  E(RB3LYP) =  -1029.03110767     A.U. after   12 cycles
 SCF Done:  E(RB3LYP) =  -1029.03197076     A.U. after   13 cycles
 SCF Done:  E(RB3LYP) =  -1029.03216124     A.U. after   13 cycles
 SCF Done:  E(RB3LYP) =  -1029.03249379     A.U. after   13 cycles
 SCF Done:  E(RB3LYP) =  -1029.03269900     A.U. after   12 cycles
 SCF Done:  E(RB3LYP) =  -1029.03276988     A.U. after   12 cycles
 SCF Done:  E(RB3LYP) =  -1029.03279122     A.U. after   12 cycles
 SCF Done:  E(RB3LYP) =  -1029.03282246     A.U. after   10 cycles
 SCF Done:  E(RB3LYP) =  -1029.03282127     A.U. after    8 cycles
 SCF Done:  E(RB3LYP) =  -1029.03282162     A.U. after    8 cycles
 SCF Done:  E(RB3LYP) =  -1029.03282237     A.U. after    8 cycles
 SCF Done:  E(RB3LYP) =  -1029.03282155     A.U. after    8 cycles
 Optimization completed.
    -- Stationary point found.
 Normal termination of Gaussian 16 at Thu Dec 10 17:21:07 2020.

 --------------------------------------------------------------------
 #N Geom=AllCheck Guess=TCheck SCRF=Check GenChk RB3LYP/6-31G(d) Freq
 --------------------------------------------------------------------

 Structure from the checkpoint file:  "JID_5788.chk"
 -------------------------------
 CID_119892441_JID_5788_neutraal
 -------------------------------
 Charge =  0 Multiplicity = 1

 SCF Done:  E(RB3LYP) =  -1029.03282155     A.U. after    1 cycles

  Exact polarizability: 137.754  -2.948 151.371  11.607   3.184 120.816
 Approx polarizability: 207.793   2.078 221.677  41.880  14.693 208.566

                      1                      2                      3
                      A                      A                      A
 Frequencies --     26.2838                46.9605                59.1190
 Red. masses --      6.5001                 5.2000                 4.5627
 Frc consts  --      0.0026                 0.0068                 0.0094
 IR Inten    --      0.2865                 0.5120                 0.2965

                      4                      5                      6
                      A                      A                      A
 Frequencies --     68.4330                89.8099               131.7164
 Red. masses --      3.6494                 3.0533                 3.1282
 Frc consts  --      0.0101                 0.0145                 0.0320
 IR Inten    --      0.2408                 0.0483                 0.6648

                      7                      8                      9
                      A                      A                      A
 Frequencies --    136.8614               154.5928               189.4115
 Red. masses --      2.3214                 2.8540                 3.3050
 Frc consts  --      0.0256                 0.0402                 0.0699
 IR Inten    --      1.0121                 1.2117                 2.2717

                     10                     11                     12
                      A                      A                      A
 Frequencies --    226.9739               242.1098               277.0192
 Red. masses --      1.5315                 1.9393                 2.8743
 Frc consts  --      0.0465                 0.0670                 0.1300
 IR Inten    --      0.1900                 1.8702                 3.6859

                     13                     14                     15
                      A                      A                      A
 Frequencies --    288.2159               306.6459               332.7840
 Red. masses --      1.6792                 1.9627                 3.1267
 Frc consts  --      0.0822                 0.1087                 0.2040
 IR Inten    --      0.1347                 0.7191                 2.4797

                     16                     17                     18
                      A                      A                      A
 Frequencies --    361.1545               363.8453               367.4706
 Red. masses --      2.1212                 1.5409                 3.0868
 Frc consts  --      0.1630                 0.1202                 0.2456
 IR Inten    --     10.5607                32.9337                 3.0826

                     19                     20                     21
                      A                      A                      A
 Frequencies --    399.0544               434.9520               507.3611
 Red. masses --      5.2940                 2.6540                 2.0337
 Frc consts  --      0.4967                 0.2958                 0.3084
 IR Inten    --     15.4973                 3.5358                23.3630

                     22                     23                     24
                      A                      A                      A
 Frequencies --    536.1957               572.2137               604.1208
 Red. masses --      3.1119                 2.8204                 3.1536
 Frc consts  --      0.5271                 0.5441                 0.6781
 IR Inten    --      7.1408                 8.3176                10.5319

                     25                     26                     27
                      A                      A                      A
 Frequencies --    634.6698               667.2218               678.0982
 Red. masses --      8.0172                 3.7428                 3.0464
 Frc consts  --      1.9027                 0.9817                 0.8253
 IR Inten    --      1.2439                11.8779                13.1648

                     28                     29                     30
                      A                      A                      A
 Frequencies --    696.9401               738.7598               760.7711
 Red. masses --      2.0873                 1.3180                 5.5851
 Frc consts  --      0.5974                 0.4238                 1.9045
 IR Inten    --     50.9747                33.4608                 2.3269

                     31                     32                     33
                      A                      A                      A
 Frequencies --    778.9662               815.6349               884.6045
 Red. masses --      2.4693                 1.3270                 3.6764
 Frc consts  --      0.8828                 0.5201                 1.6950
 IR Inten    --      5.4644                15.9068                 5.3266

                     34                     35                     36
                      A                      A                      A
 Frequencies --    886.6661               895.5851               897.2609
 Red. masses --      2.3952                 2.5194                 1.3565
 Frc consts  --      1.1095                 1.1906                 0.6435
 IR Inten    --      4.7083                13.5549                 7.0367

                     37                     38                     39
                      A                      A                      A
 Frequencies --    915.8116               954.0755               999.3979
 Red. masses --      1.7738                 1.4584                 1.9942
 Frc consts  --      0.8766                 0.7822                 1.1735
 IR Inten    --    116.6120                64.8970                 8.2199

                     40                     41                     42
                      A                      A                      A
 Frequencies --   1021.7594              1028.3111              1048.7953
 Red. masses --      2.0220                 1.6958                 2.1140
 Frc consts  --      1.2437                 1.0565                 1.3701
 IR Inten    --     10.8024                 2.4617                42.2891

                     43                     44                     45
                      A                      A                      A
 Frequencies --   1067.6246              1087.1206              1096.6700
 Red. masses --      3.4181                 1.6901                 1.5925
 Frc consts  --      2.2955                 1.1768                 1.1284
 IR Inten    --     68.7074                 0.2553                17.8007

                     46                     47                     48
                      A                      A                      A
 Frequencies --   1125.7527              1170.8791              1178.1343
 Red. masses --      2.1895                 1.5794                 1.6417
 Frc consts  --      1.6349                 1.2758                 1.3425
 IR Inten    --      5.7245                26.4082                 7.0019

                     49                     50                     51
                      A                      A                      A
 Frequencies --   1197.4691              1238.0168              1259.7231
 Red. masses --      2.0481                 2.5144                 1.3905
 Frc consts  --      1.7303                 2.2706                 1.3000
 IR Inten    --     12.1079                36.8380                 8.5893

                     52                     53                     54
                      A                      A                      A
 Frequencies --   1266.8007              1317.4920              1338.3712
 Red. masses --      3.9827                 2.0536                 1.2209
 Frc consts  --      3.7656                 2.1002                 1.2885
 IR Inten    --     25.4026                95.2622                20.3705

                     55                     56                     57
                      A                      A                      A
 Frequencies --   1355.7384              1394.8104              1400.6644
 Red. masses --      1.9945                 1.4179                 1.2951
 Frc consts  --      2.1600                 1.6253                 1.4970
 IR Inten    --      2.5350                 8.8266                16.4431

                     58                     59                     60
                      A                      A                      A
 Frequencies --   1415.2777              1429.2223              1433.4356
 Red. masses --      1.3669                 1.2531                 1.6692
 Frc consts  --      1.6132                 1.5081                 2.0207
 IR Inten    --     29.9009                 4.9314                80.5470

                     61                     62                     63
                      A                      A                      A
 Frequencies --   1440.4375              1478.2134              1492.1428
 Red. masses --      1.2466                 1.7393                 1.7676
 Frc consts  --      1.5239                 2.2392                 2.3188
 IR Inten    --      2.4540                24.4722                 0.7105

                     64                     65                     66
                      A                      A                      A
 Frequencies --   1494.3463              1513.2281              1517.7034
 Red. masses --      1.6403                 1.0948                 1.0763
 Frc consts  --      2.1581                 1.4771                 1.4607
 IR Inten    --      8.3394                 7.6185                 1.6367

                     67                     68                     69
                      A                      A                      A
 Frequencies --   1521.2601              1530.5066              1539.7309
 Red. masses --      1.0524                 1.0566                 1.0796
 Frc consts  --      1.4349                 1.4583                 1.5079
 IR Inten    --      4.4636                 7.2714                 9.5334

                     70                     71                     72
                      A                      A                      A
 Frequencies --   1543.0100              1562.0692              1698.1508
 Red. masses --      1.0639                 5.4477                 1.0975
 Frc consts  --      1.4925                 7.8318                 1.8647
 IR Inten    --      0.7191                18.3147                16.3885

                     73                     74                     75
                      A                      A                      A
 Frequencies --   1777.5958              3033.3199              3050.9553
 Red. masses --      7.1685                 1.0697                 1.0666
 Frc consts  --     13.3458                 5.7991                 5.8498
 IR Inten    --    333.4919                17.0393                23.2517

                     76                     77                     78
                      A                      A                      A
 Frequencies --   3062.4315              3062.6100              3068.0938
 Red. masses --      1.0657                 1.0375                 1.0347
 Frc consts  --      5.8887                 5.7336                 5.7387
 IR Inten    --     47.1249                20.6245                21.0766

                     79                     80                     81
                      A                      A                      A
 Frequencies --   3103.9710              3115.6771              3128.7205
 Red. masses --      1.0959                 1.0922                 1.1012
 Frc consts  --      6.2209                 6.2470                 6.3512
 IR Inten    --      7.6987                 1.9712                33.2069

                     82                     83                     84
                      A                      A                      A
 Frequencies --   3133.1620              3140.5158              3145.4571
 Red. masses --      1.0961                 1.1029                 1.1034
 Frc consts  --      6.3394                 6.4088                 6.4322
 IR Inten    --     31.1032                21.5343                20.8040

                     85                     86                     87
                      A                      A                      A
 Frequencies --   3147.9715              3236.0593              3282.7355
 Red. masses --      1.1035                 1.0917                 1.0981
 Frc consts  --      6.4429                 6.7356                 6.9721
 IR Inten    --     14.4231                 5.9701                 1.0781

                     88                     89                     90
                      A                      A                      A
 Frequencies --   3464.9782              3550.6896              3579.8413
 Red. masses --      1.0496                 1.0914                 1.0758
 Frc consts  --      7.4250                 8.1072                 8.1225
 IR Inten    --      1.8409                 0.3072                20.9672

 - Thermochemistry -
 -------------------
 Temperature   298.150 Kelvin.  Pressure   1.00000 Atm.
 Atom     1 has atomic number  6 and mass  12.00000

 Molecular mass:   227.10923 amu.
 Principal axes and moments of inertia in atomic units:
                           1         2         3
     Eigenvalues --  3060.383083312.039554968.49962
           X            0.88153  -0.47168  -0.02039
           Y            0.47134   0.88174  -0.01939
           Z            0.02713   0.00748   0.99960
 This molecule is an asymmetric top.
 Rotational symmetry number  1.
 Warning -- assumption of classical behavior for rotation
           may cause significant error
 Rotational temperatures (Kelvin)      0.02830     0.02615     0.01743
 Rotational constants (GHZ):           0.58971     0.54490     0.36324
 Zero-point vibrational energy     713066.6 (Joules/Mol)
                                  170.42700 (Kcal/Mol)
 Warning -- explicit consideration of  24 degrees of freedom as
           vibrations may cause significant error
 Vibrational temperatures:     37.82    67.57    85.06    98.46   129.22
          (Kelvin)            189.51   196.91   222.42   272.52   326.56
                              348.34   398.57   414.68   441.20   478.80
                              519.62   523.49   528.71   574.15   625.80
                              729.98   771.47   823.29   869.20   913.15
                              959.98   975.63  1002.74  1062.91  1094.58
                             1120.76  1173.52  1272.75  1275.71  1288.55
                             1290.96  1317.65  1372.70  1437.91  1470.08
                             1479.51  1508.98  1536.07  1564.12  1577.86
                             1619.71  1684.63  1695.07  1722.89  1781.23
                             1812.46  1822.64  1895.58  1925.62  1950.61
                             2006.82  2015.24  2036.27  2056.33  2062.39
                             2072.47  2126.82  2146.86  2150.03  2177.20
                             2183.64  2188.75  2202.06  2215.33  2220.05
                             2247.47  2443.26  2557.56  4364.27  4389.64
                             4406.16  4406.41  4414.30  4465.92  4482.76
                             4501.53  4507.92  4518.50  4525.61  4529.23
                             4655.97  4723.12  4985.33  5108.65  5150.59

 Zero-point correction=                           0.271593 (Hartree/Particle)
 Thermal correction to Energy=                    0.287765
 Thermal correction to Enthalpy=                  0.288709
 Thermal correction to Gibbs Free Energy=         0.227261
 Sum of electronic and zero-point Energies=          -1028.761229
 Sum of electronic and thermal Energies=             -1028.745057
 Sum of electronic and thermal Enthalpies=           -1028.744112
 Sum of electronic and thermal Free Energies=        -1028.805560

                     E (Thermal)             CV                S
                      KCal/Mol        Cal/Mol-Kelvin    Cal/Mol-Kelvin
 Total                  180.575             60.471            129.328
 Electronic               0.000              0.000              0.000
 Translational            0.889              2.981             42.163
 Rotational               0.889              2.981             32.288
 Vibrational            178.798             54.509             54.878
 Vibration     1          0.593              1.985              6.092
 Vibration     2          0.595              1.979              4.941
 Vibration     3          0.596              1.974              4.486
 Vibration     4          0.598              1.969              4.198
 Vibration     5          0.602              1.956              3.664
 Vibration     6          0.612              1.922              2.921
 Vibration     7          0.614              1.917              2.847
 Vibration     8          0.620              1.898              2.615
 Vibration     9          0.633              1.854              2.234
 Vibration    10          0.651              1.800              1.903
 Vibration    11          0.658              1.776              1.787
 Vibration    12          0.678              1.716              1.552
 Vibration    13          0.685              1.696              1.484
 Vibration    14          0.697              1.661              1.380
 Vibration    15          0.715              1.610              1.247
 Vibration    16          0.735              1.552              1.117
 Vibration    17          0.737              1.547              1.106
 Vibration    18          0.740              1.539              1.090
 Vibration    19          0.765              1.472              0.966
 Vibration    20          0.796              1.394              0.843
 Vibration    21          0.863              1.234              0.640
 Vibration    22          0.891              1.170              0.574
 Vibration    23          0.928              1.091              0.500
 Vibration    24          0.963              1.023              0.443

 Optimization completed.
    -- Stationary point found.
 Normal termination of Gaussian 16 at Thu Dec 10 17:34:21 2020.

 ----------------------------------------------------------------------
 # B3LYP/6-311++G(d,p) empiricaldispersion=gd3bj scf=xqc pop=npa geom=c
 heck
 ----------------------------------------------------------------------

 ---------------------------------------
 CID_119892441_JID_5788_Energie_neutraal
 ---------------------------------------
 Structure from the checkpoint file:  "JID_5788.chk"
 Charge =  0 Multiplicity = 1

 SCF Done:  E(RB3LYP) =  -1029.24668894     A.U. after   15 cycles
 Normal termination of Gaussian 16 at Thu Dec 10 17:38:54 2020.

 ----------------------------------------------------------------------
 # B3LYP/6-311++G(d,p) empiricaldispersion=gd3bj scf=xqc pop=npa geom=c
 heck
 ----------------------------------------------------------------------

 -------------------------------------
 CID_119892441_JID_5788_Energie_kation
 -------------------------------------
 Structure from the checkpoint file:  "JID_5788.chk"
 Charge =  1 Multiplicity = 2

 SCF Done:  E(UB3LYP) =  -1028.93799654     A.U. after   30 cycles
 Normal termination of Gaussian 16 at Thu Dec 10 17:52:24 2020.
 Gaussian 16:  ES64L-G16RevA.03 25-Dec-2016

 ----------------------------------------------------------------------
 # B3LYP/6-311++G(d,p) empiricaldispersion=gd3bj scf=xqc pop=npa geom=c
 heck
 ----------------------------------------------------------------------

 ------------------------------------
 CID_119892441_JID_5788_Energie_anion
 ------------------------------------
 Structure from the checkpoint file:  "JID_5788.chk"
 Charge = -1 Multiplicity = 2

                         Standard orientation:
 ---------------------------------------------------------------------
 Center     Atomic      Atomic             Coordinates (Angstroms)
 Number     Number       Type             X           Y           Z
 ---------------------------------------------------------------------
      1          6           0       -1.918289    2.830061   -0.998213
      2          6           0       -1.660796    1.323172   -0.971704
      3          6           0       -1.122627    0.793361    0.381440
      4          6           0       -2.172872    0.999408    1.493020
      5          6           0       -0.830021   -0.704120    0.320929
      6          7           0       -0.059762   -1.314654    1.174053
      7          6           0        0.014474   -2.665002    0.915715
      8          6           0       -0.712200   -3.105609   -0.152442
      9         16           0       -1.543595   -1.772071   -0.886868
     10          7           0        0.079271    1.519567    0.808835
     11          6           0        1.377831    1.398702    0.363949
     12          8           0        2.293716    1.837574    1.050360
     13          6           0        1.645831    0.781317   -1.002617
     14          6           0        3.020488    0.091410   -1.036480
     15          7           0        3.182024   -1.026681   -0.108657
     16          1           0       -2.721418    3.122968   -0.314471
     17          1           0       -2.213264    3.143238   -2.004780
     18          1           0       -1.016203    3.381673   -0.717947
     19          1           0       -2.590279    0.786962   -1.202959
     20          1           0       -0.950648    1.067484   -1.763752
     21          1           0       -3.113435    0.513377    1.219307
     22          1           0       -1.815216    0.556540    2.427057
     23          1           0       -2.363478    2.065025    1.651558
     24          1           0        0.628766   -3.290834    1.552565
     25          1           0       -0.803345   -4.110025   -0.541265
     26          1           0        0.063564    1.859642    1.763383
     27          1           0        0.869437    0.065194   -1.282952
     28          1           0        1.608438    1.594421   -1.742626
     29          1           0        3.204860   -0.270399   -2.055204
     30          1           0        3.791957    0.830788   -0.806236
     31          1           0        2.422668   -1.694706   -0.237600
     32          1           0        3.083752   -0.672637    0.841738
 ---------------------------------------------------------------------

 SCF Done:  E(UB3LYP) =  -1029.24215642     A.U. after   33 cycles
 SCF Done:  E(UB3LYP) =  -1029.24215642     a.u. after    1 cycles

 The electronic state is 2-A.
 Alpha  occ. eigenvalues --  -88.75136 -18.97868 -14.22122 -14.18107 -14.17841
 Alpha  occ. eigenvalues --  -10.16274 -10.12591 -10.09354 -10.08603 -10.08017
 Alpha  occ. eigenvalues --  -10.07067 -10.06749 -10.06673 -10.06255 -10.05446
 Alpha  occ. eigenvalues --   -7.83787  -5.80061  -5.79714  -5.79417  -0.93068
 Alpha  occ. eigenvalues --   -0.84284  -0.81093  -0.77257  -0.69479  -0.67224
 Alpha  occ. eigenvalues --   -0.64663  -0.63519  -0.60823  -0.54996  -0.53185
 Alpha  occ. eigenvalues --   -0.49840  -0.46758  -0.45278  -0.42822  -0.39717
 Alpha  occ. eigenvalues --   -0.38835  -0.37705  -0.36100  -0.35015  -0.34159
 Alpha  occ. eigenvalues --   -0.33434  -0.31930  -0.31085  -0.30730  -0.29120
 Alpha  occ. eigenvalues --   -0.28707  -0.28158  -0.27349  -0.27233  -0.26195
 Alpha  occ. eigenvalues --   -0.25376  -0.24472  -0.23774  -0.23417  -0.22905
 Alpha  occ. eigenvalues --   -0.16763  -0.15718  -0.15362  -0.14678  -0.13326
 Alpha  occ. eigenvalues --   -0.12768   0.04681
 Alpha virt. eigenvalues --    0.06765   0.07742   0.07960   0.08908   0.09706
 Alpha virt. eigenvalues --    0.10072   0.10405   0.11161   0.11333   0.11766
 Alpha virt. eigenvalues --    0.12304   0.12670   0.13043   0.13447   0.14037

  Beta  occ. eigenvalues --  -88.75090 -18.97844 -14.22114 -14.18032 -14.17833
  Beta  occ. eigenvalues --  -10.16251 -10.12618 -10.08956 -10.08599 -10.08031
  Beta  occ. eigenvalues --  -10.06819 -10.06740 -10.06669 -10.06190 -10.05412
  Beta  occ. eigenvalues --   -7.83746  -5.80046  -5.79700  -5.79256  -0.93022
  Beta  occ. eigenvalues --   -0.83998  -0.81017  -0.77242  -0.69371  -0.66911
  Beta  occ. eigenvalues --   -0.64628  -0.63335  -0.60564  -0.54906  -0.53154
  Beta  occ. eigenvalues --   -0.49677  -0.46502  -0.45086  -0.42660  -0.39676
  Beta  occ. eigenvalues --   -0.38641  -0.37625  -0.36055  -0.34952  -0.34018
  Beta  occ. eigenvalues --   -0.33390  -0.31853  -0.30923  -0.30558  -0.29005
  Beta  occ. eigenvalues --   -0.28439  -0.28071  -0.27208  -0.26876  -0.26102
  Beta  occ. eigenvalues --   -0.25256  -0.24400  -0.23651  -0.23284  -0.22793
  Beta  occ. eigenvalues --   -0.16016  -0.15453  -0.15199  -0.14605  -0.13240
  Beta  occ. eigenvalues --   -0.11522
  Beta virt. eigenvalues --    0.07189   0.07969   0.08306   0.09184   0.09554
  Beta virt. eigenvalues --    0.09792   0.10206   0.10680   0.11266   0.11366
  Beta virt. eigenvalues --    0.11926   0.12550   0.12768   0.13346   0.13483

 Mulliken charges and spin densities:
               1          2
     1  C    1.105477  -1.752596
     2  C   -1.717139   1.429057
     3  C    0.191199  -0.168020
     4  C    0.411287  -0.835826
     5  C   -0.069215   0.049079
     6  N    0.007946   0.067931
     7  C   -0.048531  -0.056374
     8  C   -0.344143   0.221583
     9  S    0.011924  -0.072551
    10  N   -0.008464   0.012436
    11  C   -0.402883   0.088229
    12  O   -0.310608   0.009501
    13  C    0.419688  -0.036974
    14  C   -0.480365  -0.362289
    15  N   -0.325729   0.002042
    16  H   -0.187163   0.333010
    17  H   -0.517718   0.661237
    18  H    0.056677   0.106490
    19  H    0.143325  -0.024296
    20  H   -0.170958   0.357346
    21  H    0.075358   0.079476
    22  H    0.151071   0.020756
    23  H   -0.292862   0.442374
    24  H    0.143488  -0.003230
    25  H    0.148715   0.036496
    26  H    0.275029   0.019992
    27  H    0.080458   0.020898
    28  H   -0.062553   0.248487
    29  H    0.073709   0.077128
    30  H    0.179966   0.007008
    31  H    0.227430   0.016226
    32  H    0.235585   0.005375
 Sum of Mulliken charges =  -1.00000   1.00000

 Dipole moment (field-independent basis, Debye):
    X=             -0.2467    Y=             -3.8519    Z=              0.2421  Tot=              3.8674
 Quadrupole moment (field-independent basis, Debye-Ang):
   XX=           -148.5503   YY=           -142.9366   ZZ=           -128.0655
   XY=              9.4590   XZ=             -4.0969   YZ=              2.5176

 Summary of Natural Population Analysis:

                                       Natural Population
                Natural  -----------------------------------------------
    Atom  No    Charge         Core      Valence    Rydberg      Total
 -----------------------------------------------------------------------
      C    1   -0.28785      0.99966     2.28267    0.00552     3.28785
      C    2   -0.19376      0.99960     2.18407    0.01010     3.19376
      C    3    0.03795      0.99949     1.94684    0.01571     2.96205
      C    4   -0.27926      0.99962     2.27252    0.00711     3.27926
      C    5    0.09568      0.99953     1.88391    0.02088     2.90432
      N    6   -0.25258      0.99963     2.74107    0.01188     3.75258
      C    7   -0.03537      0.99953     2.02153    0.01430     3.03537
      C    8   -0.17868      0.99954     2.16831    0.01083     3.17868
      S    9    0.18877      4.99941     2.79242    0.01940     7.81123
      N   10   -0.32068      0.99965     2.81025    0.01078     3.82068
      C   11    0.35729      0.99968     1.61852    0.02451     2.64271
      O   12   -0.33089      0.99988     3.32545    0.00556     4.33089
      C   13   -0.24908      0.99957     2.24122    0.00829     3.24908
      C   14   -0.08843      0.99965     2.07622    0.01256     3.08843
      N   15   -0.42412      0.99978     2.91531    0.00903     3.92412
      H   16    0.09741      0.00000     0.40131    0.00128     0.40259
      H   17    0.10111      0.00000     0.39757    0.00132     0.39889
      H   18    0.10137      0.00000     0.39735    0.00128     0.39863
      H   19    0.09920      0.00000     0.39948    0.00131     0.40080
      H   20    0.10315      0.00000     0.39527    0.00157     0.39685
      H   21    0.10423      0.00000     0.39502    0.00075     0.39577
      H   22    0.10556      0.00000     0.39344    0.00100     0.39444
      H   23    0.10261      0.00000     0.39598    0.00141     0.39739
      H   24    0.09391      0.00000     0.40518    0.00091     0.40609
      H   25    0.10351      0.00000     0.39555    0.00094     0.39649
      H   26    0.19280      0.00000     0.30482    0.00238     0.30720
      H   27    0.10967      0.00000     0.38839    0.00194     0.39033
      H   28    0.10998      0.00000     0.38859    0.00144     0.39002
      H   29    0.08646      0.00000     0.41256    0.00098     0.41354
      H   30    0.09611      0.00000     0.40276    0.00112     0.40389
      H   31    0.17482      0.00000     0.32255    0.00263     0.32518
      H   32    0.17910      0.00000     0.31883    0.00207     0.32090
 =======================================================================
   * Total *    0.00000     18.99424    41.79495    0.21080    61.00000

 Normal termination of Gaussian 16 at Thu Dec 10 18:06:19 2020.
