 Gaussian 16, Revision A.03,

 -----------------------------------------------------------
 # opt freq B3LYP/6-31G(d) empiricaldispersion=gd3bj scf=xqc
 -----------------------------------------------------------

 ------------------------------
 CID_88713141_JID_4923_neutraal
 ------------------------------
 Symbolic Z-matrix:
 Charge =  0 Multiplicity = 1

 SCF Done:  E(RB3LYP) =  -1064.05698329     A.U. after   15 cycles
 SCF Done:  E(RB3LYP) =  -1064.06364633     A.U. after   14 cycles
 SCF Done:  E(RB3LYP) =  -1064.06303968     A.U. after   13 cycles
 SCF Done:  E(RB3LYP) =  -1064.06512907     A.U. after   13 cycles
 SCF Done:  E(RB3LYP) =  -1064.06538446     A.U. after   12 cycles
 SCF Done:  E(RB3LYP) =  -1064.06550849     A.U. after   12 cycles
 SCF Done:  E(RB3LYP) =  -1064.06555710     A.U. after   12 cycles
 SCF Done:  E(RB3LYP) =  -1064.06560435     A.U. after   12 cycles
 SCF Done:  E(RB3LYP) =  -1064.06566164     A.U. after   12 cycles
 SCF Done:  E(RB3LYP) =  -1064.06569189     A.U. after   12 cycles
 SCF Done:  E(RB3LYP) =  -1064.06571154     A.U. after    9 cycles
 SCF Done:  E(RB3LYP) =  -1064.06571175     A.U. after    9 cycles
 SCF Done:  E(RB3LYP) =  -1064.06571189     A.U. after    9 cycles
 SCF Done:  E(RB3LYP) =  -1064.06571194     A.U. after    8 cycles
 SCF Done:  E(RB3LYP) =  -1064.06571198     A.U. after    7 cycles
 Optimization completed.
    -- Stationary point found.
 Normal termination of Gaussian 16 at Thu Dec 10 10:55:35 2020.

 --------------------------------------------------------------------
 #N Geom=AllCheck Guess=TCheck SCRF=Check GenChk RB3LYP/6-31G(d) Freq
 --------------------------------------------------------------------

 Structure from the checkpoint file:  "JID_4923.chk"
 ------------------------------
 CID_88713141_JID_4923_neutraal
 ------------------------------
 Charge =  0 Multiplicity = 1

 SCF Done:  E(RB3LYP) =  -1064.06571198     A.U. after    1 cycles

  Exact polarizability: 153.866   7.951 103.743  -9.507  18.024  91.539
 Approx polarizability: 225.110  25.459 180.013 -20.782  43.390 162.174

                      1                      2                      3
                      A                      A                      A
 Frequencies --     27.5365                39.5445                56.7592
 Red. masses --      6.0250                11.2238                 3.8155
 Frc consts  --      0.0027                 0.0103                 0.0072
 IR Inten    --      1.0351                 3.3674                 7.0134

                      4                      5                      6
                      A                      A                      A
 Frequencies --     89.8240               147.4891               152.3078
 Red. masses --      4.3742                 1.1457                 6.7913
 Frc consts  --      0.0208                 0.0147                 0.0928
 IR Inten    --      3.8433                35.6950                 1.8661

                      7                      8                      9
                      A                      A                      A
 Frequencies --    172.2072               210.5631               247.2718
 Red. masses --      4.1067                 4.1548                 4.8966
 Frc consts  --      0.0718                 0.1085                 0.1764
 IR Inten    --      7.9083                 1.0577                 0.3767

                     10                     11                     12
                      A                      A                      A
 Frequencies --    275.1064               307.0599               313.8982
 Red. masses --      7.9075                 6.4359                 4.0113
 Frc consts  --      0.3526                 0.3575                 0.2329
 IR Inten    --      4.6135                 3.3033                 2.9223

                     13                     14                     15
                      A                      A                      A
 Frequencies --    343.9921               375.5281               442.7902
 Red. masses --      5.2781                 6.3845                 3.6915
 Frc consts  --      0.3680                 0.5305                 0.4264
 IR Inten    --     15.6766                 5.7986                 2.5011

                     16                     17                     18
                      A                      A                      A
 Frequencies --    457.1481               496.0193               514.4688
 Red. masses --      3.4472                 5.1432                 3.7031
 Frc consts  --      0.4245                 0.7456                 0.5775
 IR Inten    --      3.2152                14.5686                41.0941

                     19                     20                     21
                      A                      A                      A
 Frequencies --    520.4943               582.9292               605.6376
 Red. masses --      7.1681                 5.2421                 4.7947
 Frc consts  --      1.1442                 1.0495                 1.0362
 IR Inten    --     76.6470                 0.5140                13.9590

                     22                     23                     24
                      A                      A                      A
 Frequencies --    634.7954               657.1142               709.0240
 Red. masses --      1.0803                 5.7564                 4.3200
 Frc consts  --      0.2565                 1.4645                 1.2795
 IR Inten    --    113.9385                10.6948                42.1077

                     25                     26                     27
                      A                      A                      A
 Frequencies --    727.5968               794.0180               807.3074
 Red. masses --      4.8433                 2.3219                 1.7969
 Frc consts  --      1.5107                 0.8625                 0.6900
 IR Inten    --     92.7281               106.8961                30.8489

                     28                     29                     30
                      A                      A                      A
 Frequencies --    844.3221               850.4120               897.6864
 Red. masses --      1.5186                 1.8497                 1.3393
 Frc consts  --      0.6378                 0.7881                 0.6359
 IR Inten    --    165.8958                12.9853                10.0657

                     31                     32                     33
                      A                      A                      A
 Frequencies --    932.7942               939.0049              1003.0948
 Red. masses --      2.8670                 1.5668                 1.7161
 Frc consts  --      1.4698                 0.8139                 1.0174
 IR Inten    --     19.6031                 8.9737                31.3148

                     34                     35                     36
                      A                      A                      A
 Frequencies --   1048.7119              1089.2101              1120.6467
 Red. masses --      2.7855                 2.6894                 2.0732
 Frc consts  --      1.8049                 1.8799                 1.5340
 IR Inten    --     41.7623                26.5533                89.5447

                     37                     38                     39
                      A                      A                      A
 Frequencies --   1131.9766              1177.9997              1180.7783
 Red. masses --      2.9498                 1.2521                 1.2772
 Frc consts  --      2.2270                 1.0237                 1.0492
 IR Inten    --    115.8144                 7.0618                33.8926

                     40                     41                     42
                      A                      A                      A
 Frequencies --   1226.2370              1242.8033              1280.3155
 Red. masses --      1.5573                 1.5044                 2.5883
 Frc consts  --      1.3797                 1.3690                 2.4997
 IR Inten    --     40.8836                27.8826                57.2911

                     43                     44                     45
                      A                      A                      A
 Frequencies --   1320.5540              1327.5887              1342.1084
 Red. masses --      8.8530                 3.5091                 1.4881
 Frc consts  --      9.0961                 3.6440                 1.5793
 IR Inten    --    177.8997               102.9288                94.5289

                     46                     47                     48
                      A                      A                      A
 Frequencies --   1409.5322              1432.8335              1455.2947
 Red. masses --      3.9051                 1.1831                 1.1080
 Frc consts  --      4.5712                 1.4311                 1.3826
 IR Inten    --     28.0890                 9.3834                13.1479

                     49                     50                     51
                      A                      A                      A
 Frequencies --   1495.3484              1547.0464              1637.7687
 Red. masses --      2.9262                 3.2771                 4.0240
 Frc consts  --      3.8552                 4.6211                 6.3593
 IR Inten    --      5.6557               133.4367                31.2027

                     52                     53                     54
                      A                      A                      A
 Frequencies --   1660.2882              1696.1318              1828.1349
 Red. masses --      4.2062                 1.3794                 9.4625
 Frc consts  --      6.8314                 2.3381                18.6326
 IR Inten    --      9.3749                50.0034               136.3572

                     55                     56                     57
                      A                      A                      A
 Frequencies --   2979.0092              3082.3079              3171.3761
 Red. masses --      1.0869                 1.0612                 1.1044
 Frc consts  --      5.6831                 5.9401                 6.5446
 IR Inten    --     52.3743                 0.3193                 0.3307

                     58                     59                     60
                      A                      A                      A
 Frequencies --   3189.0710              3234.1049              3239.8622
 Red. masses --      1.0900                 1.0925                 1.0913
 Frc consts  --      6.5313                 6.7323                 6.7492
 IR Inten    --     13.7223                 1.0009                 2.9710

                     61                     62                     63
                      A                      A                      A
 Frequencies --   3488.8433              3596.5034              3632.4853
 Red. masses --      1.0528                 1.0910                 1.0649
 Frc consts  --      7.5500                 8.3148                 8.2786
 IR Inten    --     10.3451                15.9509                73.6827

 - Thermochemistry -
 -------------------
 Temperature   298.150 Kelvin.  Pressure   1.00000 Atm.
 Atom     1 has atomic number  6 and mass  12.00000

 Molecular mass:   215.02523 amu.
 Principal axes and moments of inertia in atomic units:
                           1         2         3
     Eigenvalues --  1821.253484341.687154891.69632
           X            0.99993  -0.01140  -0.00280
           Y            0.01155   0.99795   0.06292
           Z            0.00207  -0.06295   0.99801
 This molecule is an asymmetric top.
 Rotational symmetry number  1.
 Warning -- assumption of classical behavior for rotation
           may cause significant error
 Rotational temperatures (Kelvin)      0.04756     0.01995     0.01771
 Rotational constants (GHZ):           0.99093     0.41568     0.36894
 Zero-point vibrational energy     445253.8 (Joules/Mol)
                                  106.41821 (Kcal/Mol)
 Warning -- explicit consideration of  21 degrees of freedom as
           vibrations may cause significant error
 Vibrational temperatures:     39.62    56.90    81.66   129.24   212.20
          (Kelvin)            219.14   247.77   302.95   355.77   395.82
                              441.79   451.63   494.93   540.30   637.08
                              657.73   713.66   740.21   748.88   838.71
                              871.38   913.33   945.44  1020.13  1046.85
                             1142.41  1161.54  1214.79  1223.55  1291.57
                             1342.08  1351.02  1443.23  1508.86  1567.13
                             1612.36  1628.66  1694.88  1698.88  1764.28
                             1788.12  1842.09  1899.98  1910.10  1930.99
                             2028.00  2061.53  2093.84  2151.47  2225.85
                             2356.38  2388.78  2440.36  2630.28  4286.13
                             4434.75  4562.90  4588.36  4653.16  4661.44
                             5019.67  5174.57  5226.34

 Zero-point correction=                           0.169588 (Hartree/Particle)
 Thermal correction to Energy=                    0.183339
 Thermal correction to Enthalpy=                  0.184283
 Thermal correction to Gibbs Free Energy=         0.127649
 Sum of electronic and zero-point Energies=          -1063.896124
 Sum of electronic and thermal Energies=             -1063.882373
 Sum of electronic and thermal Enthalpies=           -1063.881429
 Sum of electronic and thermal Free Energies=        -1063.938063

                     E (Thermal)             CV                S
                      KCal/Mol        Cal/Mol-Kelvin    Cal/Mol-Kelvin
 Total                  115.047             50.526            119.197
 Electronic               0.000              0.000              0.000
 Translational            0.889              2.981             42.000
 Rotational               0.889              2.981             32.026
 Vibrational            113.270             44.565             45.171
 Vibration     1          0.593              1.984              5.999
 Vibration     2          0.594              1.981              5.282
 Vibration     3          0.596              1.975              4.567
 Vibration     4          0.602              1.956              3.664
 Vibration     5          0.617              1.905              2.704
 Vibration     6          0.619              1.900              2.643
 Vibration     7          0.626              1.877              2.411
 Vibration     8          0.643              1.825              2.039
 Vibration     9          0.661              1.767              1.750
 Vibration    10          0.677              1.719              1.564
 Vibration    11          0.697              1.660              1.378
 Vibration    12          0.702              1.647              1.342
 Vibration    13          0.723              1.587              1.194
 Vibration    14          0.746              1.522              1.057
 Vibration    15          0.802              1.377              0.818
 Vibration    16          0.815              1.345              0.774
 Vibration    17          0.852              1.259              0.668
 Vibration    18          0.870              1.218              0.623
 Vibration    19          0.875              1.205              0.609
 Vibration    20          0.940              1.068              0.480
 Vibration    21          0.964              1.020              0.440

 Optimization completed.
    -- Stationary point found.
 Normal termination of Gaussian 16 at Thu Dec 10 11:01:56 2020.

 ----------------------------------------------------------------------
 # B3LYP/6-311++G(d,p) empiricaldispersion=gd3bj scf=xqc pop=npa geom=c
 heck
 ----------------------------------------------------------------------

 --------------------------------------
 CID_88713141_JID_4923_Energie_neutraal
 --------------------------------------
 Structure from the checkpoint file:  "JID_4923.chk"
 Charge =  0 Multiplicity = 1

 SCF Done:  E(RB3LYP) =  -1064.29922885     A.U. after   16 cycles
 Normal termination of Gaussian 16 at Thu Dec 10 11:05:04 2020.

 ----------------------------------------------------------------------
 # B3LYP/6-311++G(d,p) empiricaldispersion=gd3bj scf=xqc pop=npa geom=c
 heck
 ----------------------------------------------------------------------

 ------------------------------------
 CID_88713141_JID_4923_Energie_kation
 ------------------------------------
 Structure from the checkpoint file:  "JID_4923.chk"
 Charge =  1 Multiplicity = 2

 SCF Done:  E(UB3LYP) =  -1063.98065992     A.U. after   27 cycles
 Normal termination of Gaussian 16 at Thu Dec 10 11:11:45 2020.
 Gaussian 16:  ES64L-G16RevA.03 25-Dec-2016

 ----------------------------------------------------------------------
 # B3LYP/6-311++G(d,p) empiricaldispersion=gd3bj scf=xqc pop=npa geom=c
 heck
 ----------------------------------------------------------------------

 -----------------------------------
 CID_88713141_JID_4923_Energie_anion
 -----------------------------------
 Structure from the checkpoint file:  "JID_4923.chk"
 Charge = -1 Multiplicity = 2

                         Standard orientation:
 ---------------------------------------------------------------------
 Center     Atomic      Atomic             Coordinates (Angstroms)
 Number     Number       Type             X           Y           Z
 ---------------------------------------------------------------------
      1          6           0        0.526171   -1.438219   -0.778792
      2          6           0        1.893317   -1.307492   -1.017979
      3          6           0        2.643798   -0.347985   -0.336662
      4          6           0        2.020045    0.466405    0.633437
      5          6           0        0.654501    0.362441    0.867273
      6          6           0       -0.074016   -0.585445    0.145625
      7         16           0       -1.838893   -0.678364    0.391471
      8          8           0       -2.298375   -2.020198    0.009111
      9          8           0       -2.164152   -0.096801    1.703426
     10          6           0       -2.494144    0.484217   -0.862661
     11          6           0       -2.030444    1.903270   -0.605587
     12          8           0       -1.367812    2.532918   -1.397824
     13          8           0        2.766953    1.353703    1.345106
     14          7           0        4.038600   -0.165965   -0.497527
     15          1           0       -0.066028   -2.184339   -1.295794
     16          1           0        2.381830   -1.947472   -1.748239
     17          1           0        0.183605    0.977366    1.625077
     18          1           0       -2.178955    0.142766   -1.850237
     19          1           0       -3.581579    0.400443   -0.751571
     20          1           0       -2.335024    2.324694    0.372172
     21          1           0        3.692331    1.046359    1.284342
     22          1           0        4.266031    0.751828   -0.876548
     23          1           0        4.461611   -0.876182   -1.086534
 ---------------------------------------------------------------------

 SCF Done:  E(UB3LYP) =  -1064.31038048     A.U. after   33 cycles
 SCF Done:  E(UB3LYP) =  -1064.31038048     a.u. after    1 cycles

 The electronic state is 2-A.
 Alpha  occ. eigenvalues --  -88.92078 -19.04875 -18.99519 -18.99507 -18.97492
 Alpha  occ. eigenvalues --  -14.22247 -10.12616 -10.11098 -10.10267 -10.08674
 Alpha  occ. eigenvalues --  -10.08245 -10.07323 -10.07044 -10.06467  -7.98582
 Alpha  occ. eigenvalues --   -5.94860  -5.94736  -5.94686  -0.98743  -0.96280
 Alpha  occ. eigenvalues --   -0.91121  -0.88602  -0.81708  -0.74578  -0.67057
 Alpha  occ. eigenvalues --   -0.64425  -0.63272  -0.54646  -0.51331  -0.49858
 Alpha  occ. eigenvalues --   -0.46278  -0.43422  -0.41883  -0.39992  -0.38328
 Alpha  occ. eigenvalues --   -0.37106  -0.36508  -0.34949  -0.33788  -0.33105
 Alpha  occ. eigenvalues --   -0.31533  -0.30900  -0.30430  -0.28992  -0.28022
 Alpha  occ. eigenvalues --   -0.25817  -0.25378  -0.24038  -0.21939  -0.21019
 Alpha  occ. eigenvalues --   -0.20677  -0.19061  -0.17598  -0.14368  -0.12560
 Alpha  occ. eigenvalues --   -0.11777   0.03714
 Alpha virt. eigenvalues --    0.05459   0.07640   0.08214   0.09467   0.09506
 Alpha virt. eigenvalues --    0.10311   0.10765   0.11723   0.12634   0.13043
 Alpha virt. eigenvalues --    0.13708   0.14413   0.16089   0.16360   0.16738

  Beta  occ. eigenvalues --  -88.92033 -19.04876 -18.99513 -18.99470 -18.97054
  Beta  occ. eigenvalues --  -14.22180 -10.12661 -10.10813 -10.10111 -10.08661
  Beta  occ. eigenvalues --  -10.08148 -10.07326 -10.07007 -10.06340  -7.98536
  Beta  occ. eigenvalues --   -5.94829  -5.94677  -5.94599  -0.98648  -0.96278
  Beta  occ. eigenvalues --   -0.90328  -0.88555  -0.81548  -0.74413  -0.66766
  Beta  occ. eigenvalues --   -0.64252  -0.63036  -0.54295  -0.51235  -0.49649
  Beta  occ. eigenvalues --   -0.45707  -0.43233  -0.41766  -0.39812  -0.38218
  Beta  occ. eigenvalues --   -0.36836  -0.36397  -0.34710  -0.33638  -0.33007
  Beta  occ. eigenvalues --   -0.31428  -0.30662  -0.30282  -0.28683  -0.27893
  Beta  occ. eigenvalues --   -0.25333  -0.23947  -0.23743  -0.21671  -0.20687
  Beta  occ. eigenvalues --   -0.20580  -0.18969  -0.17336  -0.13815  -0.12203
  Beta  occ. eigenvalues --   -0.11364
  Beta virt. eigenvalues --    0.06496   0.08154   0.08487   0.09450   0.09524
  Beta virt. eigenvalues --    0.10084   0.10482   0.11089   0.11994   0.12761
  Beta virt. eigenvalues --    0.12984   0.13709   0.14465   0.16051   0.16461

 Mulliken charges and spin densities:
               1          2
     1  C   -0.198978   0.102241
     2  C    0.043164   0.016521
     3  C    0.441132  -0.530330
     4  C   -0.796228   0.073859
     5  C   -0.136217   0.130168
     6  C    0.358153  -0.161430
     7  S    0.516605  -0.008599
     8  O   -0.219005   0.027078
     9  O   -0.175926  -0.041448
    10  C   -0.524213   0.007632
    11  C   -0.156618   0.245998
    12  O   -0.284990   0.122466
    13  O   -0.275877  -0.019744
    14  N   -0.513613   0.058606
    15  H    0.202262   0.006620
    16  H   -0.037833   0.175253
    17  H    0.238956  -0.005582
    18  H    0.233911   0.007447
    19  H    0.187926  -0.002038
    20  H    0.096451  -0.019487
    21  H    0.214399   0.065858
    22  H   -0.168377   0.447300
    23  H   -0.045084   0.301612
 Sum of Mulliken charges =  -1.00000   1.00000

 Dipole moment (field-independent basis, Debye):
    X=             -0.4970    Y=             -2.0335    Z=              0.1361  Tot=              2.0978
 Quadrupole moment (field-independent basis, Debye-Ang):
   XX=           -134.6634   YY=           -119.3951   ZZ=           -110.1398
   XY=             -5.5370   XZ=              9.0317   YZ=              8.0579

 Summary of Natural Population Analysis:

                                       Natural Population
                Natural  -----------------------------------------------
    Atom  No    Charge         Core      Valence    Rydberg      Total
 -----------------------------------------------------------------------
      C    1   -0.10377      0.99951     2.09347    0.01079     3.10377
      C    2   -0.11313      0.99953     2.10371    0.00989     3.11313
      C    3    0.07944      0.99945     1.90994    0.01116     2.92056
      C    4    0.13890      0.99935     1.84700    0.01475     2.86110
      C    5   -0.08805      0.99947     2.07919    0.00939     3.08805
      C    6   -0.13142      0.99939     2.11535    0.01668     3.13142
      S    7    1.04477      4.99917     1.85976    0.09630     6.95523
      O    8   -0.47239      0.99991     3.46717    0.00531     4.47239
      O    9   -0.47578      0.99991     3.46938    0.00649     4.47578
      C   10   -0.32766      0.99958     2.31814    0.00994     3.32766
      C   11    0.23462      0.99975     1.74356    0.02207     2.76538
      O   12   -0.23435      0.99988     3.22627    0.00820     4.23435
      O   13   -0.34707      0.99988     3.34056    0.00663     4.34707
      N   14   -0.42142      0.99973     2.90989    0.01180     3.92142
      H   15    0.11080      0.00000     0.38803    0.00117     0.38920
      H   16    0.09816      0.00000     0.40093    0.00091     0.40184
      H   17    0.11774      0.00000     0.38133    0.00093     0.38226
      H   18    0.11395      0.00000     0.38394    0.00211     0.38605
      H   19    0.11484      0.00000     0.38399    0.00116     0.38516
      H   20    0.04638      0.00000     0.45125    0.00237     0.45362
      H   21    0.23881      0.00000     0.25784    0.00335     0.26119
      H   22    0.19027      0.00000     0.30430    0.00542     0.30973
      H   23    0.18636      0.00000     0.31157    0.00207     0.31364
 =======================================================================
   * Total *   -0.00000     17.99450    37.74658    0.25892    56.00000

 Normal termination of Gaussian 16 at Thu Dec 10 11:19:37 2020.
