 Gaussian 16, Revision A.03,

 -----------------------------------------------------------
 # opt freq B3LYP/6-31G(d) empiricaldispersion=gd3bj scf=xqc
 -----------------------------------------------------------

 ------------------------------
 CID_83036773_JID_3897_neutraal
 ------------------------------
 Symbolic Z-matrix:
 Charge =  0 Multiplicity = 1

 SCF Done:  E(RB3LYP) =  -640.836888189     A.U. after   14 cycles
 SCF Done:  E(RB3LYP) =  -640.835684855     A.U. after   15 cycles
 SCF Done:  E(RB3LYP) =  -640.848001376     A.U. after   13 cycles
 SCF Done:  E(RB3LYP) =  -640.848131269     A.U. after   13 cycles
 SCF Done:  E(RB3LYP) =  -640.850751107     A.U. after   13 cycles
 SCF Done:  E(RB3LYP) =  -640.853977946     A.U. after   13 cycles
 SCF Done:  E(RB3LYP) =  -640.859815042     A.U. after   15 cycles
 SCF Done:  E(RB3LYP) =  -640.862489899     A.U. after   15 cycles
 SCF Done:  E(RB3LYP) =  -640.865931793     A.U. after   12 cycles
 SCF Done:  E(RB3LYP) =  -640.866420590     A.U. after   13 cycles
 SCF Done:  E(RB3LYP) =  -640.871713799     A.U. after   10 cycles
 SCF Done:  E(RB3LYP) =  -640.871722815     A.U. after    9 cycles
 SCF Done:  E(RB3LYP) =  -640.871727863     A.U. after    9 cycles
 SCF Done:  E(RB3LYP) =  -640.871728787     A.U. after    8 cycles
 SCF Done:  E(RB3LYP) =  -640.871729072     A.U. after    8 cycles
 SCF Done:  E(RB3LYP) =  -640.871729109     A.U. after    7 cycles
 Optimization completed.
    -- Stationary point found.
 Normal termination of Gaussian 16 at Sun Dec 13 20:09:38 2020.

 --------------------------------------------------------------------
 #N Geom=AllCheck Guess=TCheck SCRF=Check GenChk RB3LYP/6-31G(d) Freq
 --------------------------------------------------------------------

 Structure from the checkpoint file:  "JID_3897.chk"
 ------------------------------
 CID_83036773_JID_3897_neutraal
 ------------------------------
 Charge =  0 Multiplicity = 1

 SCF Done:  E(RB3LYP) =  -640.871729109     A.U. after    1 cycles

  Exact polarizability: 137.312  -8.894 106.143   2.988  12.467  87.359
 Approx polarizability: 176.219 -19.841 164.886   1.535  34.853 134.700

                      1                      2                      3
                      A                      A                      A
 Frequencies --     42.5409                47.9158                80.8219
 Red. masses --      4.4759                 4.4014                 4.6161
 Frc consts  --      0.0048                 0.0060                 0.0178
 IR Inten    --      2.3327                 2.0000                 0.4156

                      4                      5                      6
                      A                      A                      A
 Frequencies --    136.5091               145.9407               162.5375
 Red. masses --      2.0987                 1.6430                 5.4057
 Frc consts  --      0.0230                 0.0206                 0.0841
 IR Inten    --      1.9270                 3.2912                 7.3680

                      7                      8                      9
                      A                      A                      A
 Frequencies --    171.2310               177.5220               206.4019
 Red. masses --      2.8428                 4.8217                 1.2610
 Frc consts  --      0.0491                 0.0895                 0.0317
 IR Inten    --      6.3718                12.7781                 0.8220

                     10                     11                     12
                      A                      A                      A
 Frequencies --    223.0785               236.4499               318.9203
 Red. masses --      2.6070                 2.9979                 3.9590
 Frc consts  --      0.0764                 0.0988                 0.2372
 IR Inten    --      4.4497                 1.9092                 3.8763

                     13                     14                     15
                      A                      A                      A
 Frequencies --    335.7324               389.7339               397.6703
 Red. masses --      3.9620                 2.2535                 1.5444
 Frc consts  --      0.2631                 0.2017                 0.1439
 IR Inten    --      8.1895                53.5954                95.7766

                     16                     17                     18
                      A                      A                      A
 Frequencies --    426.9058               445.4141               470.6897
 Red. masses --      1.7653                 2.8315                 1.5182
 Frc consts  --      0.1896                 0.3310                 0.1982
 IR Inten    --     42.2298                25.1915               104.6937

                     19                     20                     21
                      A                      A                      A
 Frequencies --    522.8620               535.2997               560.5566
 Red. masses --      1.2320                 1.8643                 2.5454
 Frc consts  --      0.1984                 0.3147                 0.4712
 IR Inten    --    163.3992                30.0489                40.4680

                     22                     23                     24
                      A                      A                      A
 Frequencies --    578.0638               600.0379               635.8202
 Red. masses --      2.2774                 2.6508                 1.6269
 Frc consts  --      0.4484                 0.5623                 0.3875
 IR Inten    --      8.9212                23.5853               258.7855

                     25                     26                     27
                      A                      A                      A
 Frequencies --    663.0857               701.5620               727.3703
 Red. masses --      1.2253                 3.7498                 1.9304
 Frc consts  --      0.3174                 1.0874                 0.6017
 IR Inten    --     72.0574                46.4918                92.3047

                     28                     29                     30
                      A                      A                      A
 Frequencies --    749.7877               767.0291               817.6047
 Red. masses --      6.0091                 3.7378                 2.7967
 Frc consts  --      1.9904                 1.2957                 1.1015
 IR Inten    --     26.5212                 4.8798                60.1564

                     31                     32                     33
                      A                      A                      A
 Frequencies --    821.9690               893.3653               957.0406
 Red. masses --      2.1363                 4.1402                 3.1918
 Frc consts  --      0.8504                 1.9468                 1.7224
 IR Inten    --    116.8936                15.7538                10.8985

                     34                     35                     36
                      A                      A                      A
 Frequencies --   1022.7663              1059.0621              1084.5061
 Red. masses --      2.5180                 1.9125                 1.6805
 Frc consts  --      1.5519                 1.2638                 1.1645
 IR Inten    --     19.1358                36.7273                 2.3497

                     37                     38                     39
                      A                      A                      A
 Frequencies --   1111.2893              1140.7342              1146.5749
 Red. masses --      1.6033                 1.4595                 2.2847
 Frc consts  --      1.1666                 1.1190                 1.7696
 IR Inten    --     15.6483                 1.7878                12.1226

                     40                     41                     42
                      A                      A                      A
 Frequencies --   1167.4380              1204.0356              1215.4797
 Red. masses --      1.2813                 2.8827                 2.2347
 Frc consts  --      1.0289                 2.4622                 1.9452
 IR Inten    --      5.7937                49.3009                18.6462

                     43                     44                     45
                      A                      A                      A
 Frequencies --   1246.5386              1324.0199              1376.6883
 Red. masses --      1.7597                 1.5991                 1.3139
 Frc consts  --      1.6110                 1.6516                 1.4672
 IR Inten    --      2.9011               104.3328                12.7292

                     46                     47                     48
                      A                      A                      A
 Frequencies --   1420.2720              1433.5616              1442.2797
 Red. masses --      1.6706                 1.4990                 2.1930
 Frc consts  --      1.9855                 1.8150                 2.6877
 IR Inten    --     60.9979                87.7330               130.8127

                     49                     50                     51
                      A                      A                      A
 Frequencies --   1479.8368              1481.8303              1496.0676
 Red. masses --      1.9411                 2.3711                 1.3134
 Frc consts  --      2.5045                 3.0675                 1.7320
 IR Inten    --     29.9223                17.1474                40.7680

                     52                     53                     54
                      A                      A                      A
 Frequencies --   1519.8824              1526.6581              1529.3922
 Red. masses --      1.0729                 1.0501                 1.1074
 Frc consts  --      1.4603                 1.4420                 1.5261
 IR Inten    --     10.4041                 2.0530                 6.0323

                     55                     56                     57
                      A                      A                      A
 Frequencies --   1553.7562              1573.6899              1632.3241
 Red. masses --      1.0798                 1.8745                 2.3123
 Frc consts  --      1.5359                 2.7352                 3.6301
 IR Inten    --     23.8548               340.9030               215.7612

                     58                     59                     60
                      A                      A                      A
 Frequencies --   1662.9521              1700.5202              1729.5849
 Red. masses --      1.3053                 1.5289                 2.6966
 Frc consts  --      2.1268                 2.6049                 4.7529
 IR Inten    --     87.2820               336.3031               655.4733

                     61                     62                     63
                      A                      A                      A
 Frequencies --   1754.8139              3035.1867              3038.8048
 Red. masses --      6.2392                 1.0682                 1.0596
 Frc consts  --     11.3199                 5.7977                 5.7649
 IR Inten    --    337.5988                 2.9195                96.2842

                     64                     65                     66
                      A                      A                      A
 Frequencies --   3068.1852              3113.1444              3132.1889
 Red. masses --      1.0384                 1.0915                 1.1028
 Frc consts  --      5.7595                 6.2325                 6.3743
 IR Inten    --     32.2490                21.3821                26.2845

                     67                     68                     69
                      A                      A                      A
 Frequencies --   3150.1212              3170.8792              3289.7842
 Red. masses --      1.1052                 1.0990                 1.0664
 Frc consts  --      6.4614                 6.5106                 6.8002
 IR Inten    --      5.2650                12.2482               351.3910

                     70                     71                     72
                      A                      A                      A
 Frequencies --   3515.5214              3551.0769              3602.9223
 Red. masses --      1.0547                 1.0479                 1.0763
 Frc consts  --      7.6800                 7.7859                 8.2315
 IR Inten    --    133.3064                17.9166                20.1050

                     73                     74                     75
                      A                      A                      A
 Frequencies --   3633.0811              3660.4624              3675.1756
 Red. masses --      1.0848                 1.0982                 1.0960
 Frc consts  --      8.4360                 8.6698                 8.7222
 IR Inten    --     37.5250                19.2402                72.6744

 - Thermochemistry -
 -------------------
 Temperature   298.150 Kelvin.  Pressure   1.00000 Atm.
 Atom     1 has atomic number  6 and mass  12.00000

 Molecular mass:   186.12291 amu.
 Principal axes and moments of inertia in atomic units:
                           1         2         3
     Eigenvalues --  1419.382263763.241214206.74656
           X            0.99996   0.00410   0.00806
           Y           -0.00395   0.99983  -0.01780
           Z           -0.00813   0.01777   0.99981
 This molecule is an asymmetric top.
 Rotational symmetry number  1.
 Warning -- assumption of classical behavior for rotation
           may cause significant error
 Rotational temperatures (Kelvin)      0.06102     0.02302     0.02059
 Rotational constants (GHZ):           1.27150     0.47957     0.42901
 Zero-point vibrational energy     601844.6 (Joules/Mol)
                                  143.84431 (Kcal/Mol)
 Warning -- explicit consideration of  23 degrees of freedom as
           vibrations may cause significant error
 Vibrational temperatures:     61.21    68.94   116.28   196.41   209.98
          (Kelvin)            233.86   246.36   255.41   296.97   320.96
                              340.20   458.86   483.04   560.74   572.16
                              614.22   640.85   677.22   752.28   770.18
                              806.52   831.70   863.32   914.80   954.03
                             1009.39  1046.52  1078.78  1103.58  1176.35
                             1182.63  1285.35  1376.97  1471.53  1523.75
                             1560.36  1598.90  1641.26  1649.67  1679.68
                             1732.34  1748.80  1793.49  1904.97  1980.75
                             2043.45  2062.58  2075.12  2129.16  2132.02
                             2152.51  2186.77  2196.52  2200.45  2235.51
                             2264.19  2348.55  2392.62  2446.67  2488.49
                             2524.79  4366.96  4372.16  4414.43  4479.12
                             4506.52  4532.32  4562.19  4733.27  5058.05
                             5109.21  5183.80  5227.19  5266.59  5287.76

 Zero-point correction=                           0.229231 (Hartree/Particle)
 Thermal correction to Energy=                    0.243594
 Thermal correction to Enthalpy=                  0.244538
 Thermal correction to Gibbs Free Energy=         0.188255
 Sum of electronic and zero-point Energies=           -640.642499
 Sum of electronic and thermal Energies=              -640.628135
 Sum of electronic and thermal Enthalpies=            -640.627191
 Sum of electronic and thermal Free Energies=         -640.683474

                     E (Thermal)             CV                S
                      KCal/Mol        Cal/Mol-Kelvin    Cal/Mol-Kelvin
 Total                  152.857             53.559            118.457
 Electronic               0.000              0.000              0.000
 Translational            0.889              2.981             41.570
 Rotational               0.889              2.981             31.486
 Vibrational            151.080             47.597             45.402
 Vibration     1          0.595              1.980              5.137
 Vibration     2          0.595              1.978              4.902
 Vibration     3          0.600              1.962              3.871
 Vibration     4          0.614              1.917              2.852
 Vibration     5          0.617              1.907              2.724
 Vibration     6          0.623              1.888              2.520
 Vibration     7          0.626              1.878              2.422
 Vibration     8          0.628              1.870              2.354
 Vibration     9          0.641              1.831              2.075
 Vibration    10          0.649              1.806              1.934
 Vibration    11          0.655              1.785              1.829
 Vibration    12          0.705              1.637              1.316
 Vibration    13          0.717              1.604              1.232
 Vibration    14          0.758              1.492              1.001
 Vibration    15          0.764              1.475              0.971
 Vibration    16          0.789              1.412              0.869
 Vibration    17          0.805              1.371              0.810
 Vibration    18          0.828              1.315              0.736
 Vibration    19          0.878              1.199              0.603
 Vibration    20          0.890              1.172              0.575
 Vibration    21          0.916              1.117              0.523
 Vibration    22          0.935              1.079              0.489
 Vibration    23          0.958              1.032              0.450

 Optimization completed.
    -- Stationary point found.
 Normal termination of Gaussian 16 at Sun Dec 13 20:16:03 2020.

 ----------------------------------------------------------------------
 # B3LYP/6-311++G(d,p) empiricaldispersion=gd3bj scf=xqc pop=npa geom=c
 heck
 ----------------------------------------------------------------------

 --------------------------------------
 CID_83036773_JID_3897_Energie_neutraal
 --------------------------------------
 Structure from the checkpoint file:  "JID_3897.chk"
 Charge =  0 Multiplicity = 1

 SCF Done:  E(RB3LYP) =  -641.081549763     A.U. after   14 cycles
 Normal termination of Gaussian 16 at Sun Dec 13 20:18:46 2020.

 ----------------------------------------------------------------------
 # B3LYP/6-311++G(d,p) empiricaldispersion=gd3bj scf=xqc pop=npa geom=c
 heck
 ----------------------------------------------------------------------

 ------------------------------------
 CID_83036773_JID_3897_Energie_kation
 ------------------------------------
 Structure from the checkpoint file:  "JID_3897.chk"
 Charge =  1 Multiplicity = 2

 SCF Done:  E(UB3LYP) =  -640.796152666     A.U. after   25 cycles
 Normal termination of Gaussian 16 at Sun Dec 13 20:25:35 2020.
 Gaussian 16:  ES64L-G16RevA.03 25-Dec-2016

 ----------------------------------------------------------------------
 # B3LYP/6-311++G(d,p) empiricaldispersion=gd3bj scf=xqc pop=npa geom=c
 heck
 ----------------------------------------------------------------------

 -----------------------------------
 CID_83036773_JID_3897_Energie_anion
 -----------------------------------
 Structure from the checkpoint file:  "JID_3897.chk"
 Charge = -1 Multiplicity = 2

                         Standard orientation:
 ---------------------------------------------------------------------
 Center     Atomic      Atomic             Coordinates (Angstroms)
 Number     Number       Type             X           Y           Z
 ---------------------------------------------------------------------
      1          6           0        1.654185   -1.430202    1.708114
      2          6           0        1.334552   -0.134503    0.954492
      3          6           0        2.233099    0.031597   -0.285490
      4          8           0        2.747441   -0.928043   -0.868531
      5          7           0        2.403073    1.299189   -0.746419
      6          6           0        1.765933    2.505532   -0.241437
      7          7           0       -0.081446    0.022258    0.618669
      8          6           0       -0.658670   -0.765039   -0.254041
      9          7           0       -0.049826   -1.789855   -0.935490
     10          7           0       -2.004331   -0.686427   -0.585936
     11          6           0       -2.803234    0.180586   -0.025246
     12          7           0       -2.520140    0.991246    1.030688
     13          7           0       -4.082459    0.296830   -0.546739
     14          1           0        1.466773   -2.313532    1.096321
     15          1           0        1.022377   -1.484616    2.599754
     16          1           0        2.704887   -1.446753    2.016222
     17          1           0        1.569240    0.697955    1.629716
     18          1           0        2.967788    1.357559   -1.584099
     19          1           0        2.306796    2.937157    0.611176
     20          1           0        1.741710    3.249264   -1.042112
     21          1           0        0.738055    2.284200    0.056717
     22          1           0       -0.593727   -2.163403   -1.699482
     23          1           0        0.960608   -1.797508   -1.034503
     24          1           0       -3.049011    1.847778    1.122027
     25          1           0       -1.513606    0.991724    1.246129
     26          1           0       -4.296044   -0.459935   -1.184770
     27          1           0       -4.814656    0.463934    0.133408
 ---------------------------------------------------------------------

 SCF Done:  E(UB3LYP) =  -641.072338905     A.U. after   29 cycles

 The electronic state is 2-A.
 Alpha  occ. eigenvalues --  -18.99816 -14.24591 -14.21999 -14.21476 -14.21281
 Alpha  occ. eigenvalues --  -14.17707 -14.17648 -10.17825 -10.17787 -10.16448
 Alpha  occ. eigenvalues --  -10.11197 -10.10442 -10.06509  -0.94791  -0.89267
 Alpha  occ. eigenvalues --   -0.84943  -0.83009  -0.77465  -0.76319  -0.75085
 Alpha  occ. eigenvalues --   -0.65534  -0.61291  -0.56637  -0.53903  -0.48459
 Alpha  occ. eigenvalues --   -0.47230  -0.44347  -0.43256  -0.41550  -0.39962
 Alpha  occ. eigenvalues --   -0.39825  -0.37860  -0.36165  -0.35448  -0.34011
 Alpha  occ. eigenvalues --   -0.32873  -0.32323  -0.30762  -0.30441  -0.29378
 Alpha  occ. eigenvalues --   -0.27995  -0.26408  -0.25637  -0.18930  -0.17595
 Alpha  occ. eigenvalues --   -0.17183  -0.16505  -0.14860  -0.14636  -0.12311
 Alpha  occ. eigenvalues --    0.04102
 Alpha virt. eigenvalues --    0.05868   0.07427   0.08009   0.08732   0.09157
 Alpha virt. eigenvalues --    0.09523   0.09927   0.10180   0.11092   0.11492
 Alpha virt. eigenvalues --    0.12280   0.13613   0.14099   0.14292   0.14737

  Beta  occ. eigenvalues --  -18.99813 -14.24578 -14.21934 -14.21473 -14.21232
  Beta  occ. eigenvalues --  -14.17697 -14.17639 -10.17823 -10.17784 -10.16448
  Beta  occ. eigenvalues --  -10.11189 -10.10392 -10.06506  -0.94782  -0.89238
  Beta  occ. eigenvalues --   -0.84914  -0.82983  -0.77396  -0.76281  -0.75047
  Beta  occ. eigenvalues --   -0.65516  -0.61218  -0.56611  -0.53853  -0.48413
  Beta  occ. eigenvalues --   -0.47200  -0.44275  -0.43220  -0.41497  -0.39914
  Beta  occ. eigenvalues --   -0.39766  -0.37835  -0.36123  -0.35395  -0.33976
  Beta  occ. eigenvalues --   -0.32856  -0.32302  -0.30732  -0.30398  -0.29352
  Beta  occ. eigenvalues --   -0.27981  -0.26388  -0.25623  -0.18914  -0.17556
  Beta  occ. eigenvalues --   -0.17142  -0.16481  -0.14841  -0.14612  -0.12295
  Beta virt. eigenvalues --    0.06660   0.07484   0.07838   0.08414   0.09307
  Beta virt. eigenvalues --    0.09634   0.09760   0.10334   0.10588   0.11192
  Beta virt. eigenvalues --    0.11764   0.12988   0.13707   0.14258   0.14335

 Mulliken charges and spin densities:
               1          2
     1  C   -0.263081  -0.256872
     2  C   -0.081755  -0.168774
     3  C    0.095433  -0.099030
     4  O   -0.348504   0.005648
     5  N   -0.455742   0.242789
     6  C    1.045360  -1.403436
     7  N   -0.068997  -0.062496
     8  C    0.387407  -0.494825
     9  N   -0.247133  -0.074345
    10  N   -0.178755  -0.096731
    11  C    0.456942  -0.411658
    12  N   -0.286270  -0.116103
    13  N   -0.463847   0.191440
    14  H    0.167550   0.001283
    15  H    0.100337   0.041447
    16  H    0.117945   0.024022
    17  H    0.042837   0.151945
    18  H    0.064418   0.229666
    19  H   -0.352791   0.511816
    20  H   -0.630553   0.787845
    21  H   -0.021032   0.229135
    22  H    0.228332   0.040857
    23  H    0.286812  -0.024769
    24  H   -0.446874   0.712168
    25  H    0.437264  -0.058052
    26  H    0.031192   0.220287
    27  H   -0.616496   0.876742
 Sum of Mulliken charges =  -1.00000   1.00000

 Dipole moment (field-independent basis, Debye):
    X=              5.2376    Y=             -5.3232    Z=             -0.2484  Tot=              7.4720
 Quadrupole moment (field-independent basis, Debye-Ang):
   XX=           -160.9403   YY=           -124.3329   ZZ=           -103.8854
   XY=              5.6179   XZ=              8.3423   YZ=             -0.2043

 Summary of Natural Population Analysis:

                                       Natural Population
                Natural  -----------------------------------------------
    Atom  No    Charge         Core      Valence    Rydberg      Total
 -----------------------------------------------------------------------
      C    1   -0.28850      0.99965     2.28349    0.00536     3.28850
      C    2   -0.05633      0.99956     2.04311    0.01367     3.05633
      C    3    0.34129      0.99964     1.63442    0.02465     2.65871
      O    4   -0.34533      0.99988     3.33978    0.00568     4.34533
      N    5   -0.30846      0.99967     2.79821    0.01059     3.80846
      C    6   -0.18521      0.99964     2.17735    0.00823     3.18521
      N    7   -0.34377      0.99965     2.83233    0.01178     3.84377
      C    8    0.31153      0.99961     1.67094    0.01792     2.68847
      N    9   -0.40885      0.99969     2.90213    0.00702     3.90885
      N   10   -0.33928      0.99962     2.82851    0.01115     3.83928
      C   11    0.32764      0.99965     1.65613    0.01658     2.67236
      N   12   -0.40675      0.99969     2.89794    0.00912     3.90675
      N   13   -0.39686      0.99971     2.88752    0.00963     3.89686
      H   14    0.10503      0.00000     0.39390    0.00107     0.39497
      H   15    0.10075      0.00000     0.39839    0.00086     0.39925
      H   16    0.09872      0.00000     0.40051    0.00077     0.40128
      H   17    0.10022      0.00000     0.39789    0.00189     0.39978
      H   18    0.19306      0.00000     0.30439    0.00255     0.30694
      H   19    0.09198      0.00000     0.40622    0.00180     0.40802
      H   20    0.10257      0.00000     0.39520    0.00223     0.39743
      H   21    0.11041      0.00000     0.38722    0.00238     0.38959
      H   22    0.19415      0.00000     0.30425    0.00160     0.30585
      H   23    0.20392      0.00000     0.29415    0.00194     0.29608
      H   24    0.19527      0.00000     0.29916    0.00557     0.30473
      H   25    0.21751      0.00000     0.27968    0.00281     0.28249
      H   26    0.19228      0.00000     0.30484    0.00287     0.30772
      H   27    0.19301      0.00000     0.29559    0.01140     0.30699
 =======================================================================
   * Total *   -0.00000     12.99565    36.81322    0.19112    50.00000

 Normal termination of Gaussian 16 at Sun Dec 13 20:33:33 2020.
