 Gaussian 16, Revision A.03,

 -----------------------------------------------------------
 # opt freq B3LYP/6-31G(d) empiricaldispersion=gd3bj scf=xqc
 -----------------------------------------------------------

 -------------------------------
 CID_116588333_JID_3086_neutraal
 -------------------------------
 Symbolic Z-matrix:
 Charge =  0 Multiplicity = 1

 SCF Done:  E(RB3LYP) =  -558.128144085     A.U. after   14 cycles
 SCF Done:  E(RB3LYP) =  -558.131617089     A.U. after   14 cycles
 SCF Done:  E(RB3LYP) =  -558.127106225     A.U. after   15 cycles
 SCF Done:  E(RB3LYP) =  -558.131949373     A.U. after   13 cycles
 SCF Done:  E(RB3LYP) =  -558.132416643     A.U. after   13 cycles
 SCF Done:  E(RB3LYP) =  -558.132921375     A.U. after   12 cycles
 SCF Done:  E(RB3LYP) =  -558.133422422     A.U. after   12 cycles
 SCF Done:  E(RB3LYP) =  -558.133572021     A.U. after   11 cycles
 SCF Done:  E(RB3LYP) =  -558.133523478     A.U. after   12 cycles
 SCF Done:  E(RB3LYP) =  -558.133791702     A.U. after   12 cycles
 SCF Done:  E(RB3LYP) =  -558.134907447     A.U. after   11 cycles
 SCF Done:  E(RB3LYP) =  -558.134865355     A.U. after   11 cycles
 SCF Done:  E(RB3LYP) =  -558.134880728     A.U. after   10 cycles
 SCF Done:  E(RB3LYP) =  -558.134884919     A.U. after   10 cycles
 SCF Done:  E(RB3LYP) =  -558.134885087     A.U. after    8 cycles
 SCF Done:  E(RB3LYP) =  -558.134885078     A.U. after    7 cycles
 Optimization completed.
    -- Stationary point found.
 Normal termination of Gaussian 16 at Sun Dec 13 20:11:07 2020.

 --------------------------------------------------------------------
 #N Geom=AllCheck Guess=TCheck SCRF=Check GenChk RB3LYP/6-31G(d) Freq
 --------------------------------------------------------------------

 Structure from the checkpoint file:  "JID_3086.chk"
 -------------------------------
 CID_116588333_JID_3086_neutraal
 -------------------------------
 Charge =  0 Multiplicity = 1

 SCF Done:  E(RB3LYP) =  -558.134885078     A.U. after    1 cycles

  Exact polarizability: 121.487 -13.543 119.703  -1.631   3.345  94.410
 Approx polarizability: 156.364 -27.825 193.904   1.750  15.000 149.242

 ******    1 imaginary frequencies (negative Signs) ******

                      1                      2                      3
                      A                      A                      A
 Frequencies --    -16.4803                27.1800                69.1052
 Red. masses --      2.0612                 5.0743                 4.1783
 Frc consts  --      0.0003                 0.0022                 0.0118
 IR Inten    --      0.1821                 2.4001                 1.0111

                      4                      5                      6
                      A                      A                      A
 Frequencies --     74.5531               163.7417               171.2271
 Red. masses --      3.6710                 4.8108                 4.1491
 Frc consts  --      0.0120                 0.0760                 0.0717
 IR Inten    --      2.3323                 1.9449                 1.2133

                      7                      8                      9
                      A                      A                      A
 Frequencies --    259.0933               269.2958               345.8959
 Red. masses --      4.0770                 3.3444                 1.9931
 Frc consts  --      0.1612                 0.1429                 0.1405
 IR Inten    --      0.4471                 1.0982                 0.0602

                     10                     11                     12
                      A                      A                      A
 Frequencies --    379.3082               402.3886               442.4446
 Red. masses --      3.1128                 2.0027                 2.9190
 Frc consts  --      0.2639                 0.1911                 0.3367
 IR Inten    --      6.2857                 0.3624                 5.1407

                     13                     14                     15
                      A                      A                      A
 Frequencies --    480.1593               492.5837               558.7027
 Red. masses --      4.6412                 3.7257                 2.4980
 Frc consts  --      0.6305                 0.5326                 0.4594
 IR Inten    --      4.4393                 1.4468                20.1727

                     16                     17                     18
                      A                      A                      A
 Frequencies --    603.1540               617.1883               680.4574
 Red. masses --      6.0519                 1.2603                 1.3444
 Frc consts  --      1.2972                 0.2829                 0.3668
 IR Inten    --      3.7029                46.1242                29.8049

                     19                     20                     21
                      A                      A                      A
 Frequencies --    706.8972               730.5298               758.7408
 Red. masses --      4.1531                 2.9421                 3.3548
 Frc consts  --      1.2227                 0.9251                 1.1379
 IR Inten    --      5.8580                 0.5321                 5.6165

                     22                     23                     24
                      A                      A                      A
 Frequencies --    788.6959               817.0318               820.2117
 Red. masses --      2.3306                 2.2857                 2.6410
 Frc consts  --      0.8542                 0.8990                 1.0468
 IR Inten    --      3.9184                 8.5452                 3.3328

                     25                     26                     27
                      A                      A                      A
 Frequencies --    848.5102               870.1445               888.9681
 Red. masses --      3.1210                 2.4377                 1.8323
 Frc consts  --      1.3239                 1.0875                 0.8531
 IR Inten    --     15.9649                57.8483                 8.8390

                     28                     29                     30
                      A                      A                      A
 Frequencies --    928.6525               945.6013               957.9322
 Red. masses --      1.9189                 1.8168                 3.4174
 Frc consts  --      0.9750                 0.9571                 1.8477
 IR Inten    --      9.8056                 3.1026                17.5321

                     31                     32                     33
                      A                      A                      A
 Frequencies --    994.4296              1009.8423              1021.5864
 Red. masses --      2.0780                 2.4876                 2.2423
 Frc consts  --      1.2107                 1.4947                 1.3788
 IR Inten    --      0.1898                 2.0074                10.4458

                     34                     35                     36
                      A                      A                      A
 Frequencies --   1040.7497              1058.6719              1084.2921
 Red. masses --      2.3097                 1.4753                 2.2606
 Frc consts  --      1.4740                 0.9742                 1.5659
 IR Inten    --      2.0534                13.0505                44.1437

                     37                     38                     39
                      A                      A                      A
 Frequencies --   1114.5425              1117.7341              1172.1580
 Red. masses --      2.0124                 2.5361                 2.4478
 Frc consts  --      1.4728                 1.8668                 1.9815
 IR Inten    --     11.5363                16.4692                78.8897

                     40                     41                     42
                      A                      A                      A
 Frequencies --   1202.8780              1210.6355              1238.6922
 Red. masses --      1.2409                 1.1996                 1.3647
 Frc consts  --      1.0579                 1.0358                 1.2338
 IR Inten    --      1.0408                 2.2550                 6.4578

                     43                     44                     45
                      A                      A                      A
 Frequencies --   1246.2077              1259.3562              1269.8227
 Red. masses --      1.2873                 1.3615                 1.2590
 Frc consts  --      1.1779                 1.2722                 1.1961
 IR Inten    --     28.6165                10.7078                16.6932

                     46                     47                     48
                      A                      A                      A
 Frequencies --   1290.2653              1319.6454              1327.8024
 Red. masses --      1.3447                 1.2655                 1.2698
 Frc consts  --      1.3190                 1.2985                 1.3190
 IR Inten    --      9.8848                 2.5595                 2.0520

                     49                     50                     51
                      A                      A                      A
 Frequencies --   1333.1833              1355.5359              1361.2654
 Red. masses --      1.3867                 1.3446                 1.3463
 Frc consts  --      1.4522                 1.4557                 1.4698
 IR Inten    --      0.2257                 2.3992                10.2506

                     52                     53                     54
                      A                      A                      A
 Frequencies --   1372.9326              1396.9317              1419.5784
 Red. masses --      1.4127                 1.6622                 1.3155
 Frc consts  --      1.5690                 1.9111                 1.5619
 IR Inten    --     17.1323                 9.3715                 3.0166

                     55                     56                     57
                      A                      A                      A
 Frequencies --   1425.0124              1453.0890              1502.0084
 Red. masses --      1.4607                 1.3440                 1.1087
 Frc consts  --      1.7476                 1.6720                 1.4737
 IR Inten    --      0.3085                 5.2023                 8.6544

                     58                     59                     60
                      A                      A                      A
 Frequencies --   1514.1200              1527.3846              1531.4605
 Red. masses --      1.0800                 1.0939                 1.0874
 Frc consts  --      1.4588                 1.5036                 1.5026
 IR Inten    --      0.1637                 2.8803                 1.0537

                     61                     62                     63
                      A                      A                      A
 Frequencies --   1547.1055              1760.4562              2210.4402
 Red. masses --      1.0918                11.4365                 5.9830
 Frc consts  --      1.5397                20.8830                17.2236
 IR Inten    --      5.5019               136.7975                57.5225

                     64                     65                     66
                      A                      A                      A
 Frequencies --   3051.7433              3054.7536              3055.1511
 Red. masses --      1.0622                 1.0654                 1.0628
 Frc consts  --      5.8284                 5.8573                 5.8447
 IR Inten    --     19.1983                28.4878                 1.3967

                     67                     68                     69
                      A                      A                      A
 Frequencies --   3057.1934              3067.1196              3074.0812
 Red. masses --      1.0645                 1.0645                 1.0846
 Frc consts  --      5.8619                 5.9003                 6.0390
 IR Inten    --     27.5527                43.5808                 0.2424

                     70                     71                     72
                      A                      A                      A
 Frequencies --   3090.0442              3092.9787              3097.4236
 Red. masses --      1.0944                 1.0932                 1.0878
 Frc consts  --      6.1569                 6.1616                 6.1489
 IR Inten    --     24.0519                65.1519                14.5752

                     73                     74                     75
                      A                      A                      A
 Frequencies --   3102.5141              3107.6970              3108.0270
 Red. masses --      1.0986                 1.1051                 1.1017
 Frc consts  --      6.2303                 6.2880                 6.2705
 IR Inten    --     26.5301                22.7483                15.1014

                     76                     77                     78
                      A                      A                      A
 Frequencies --   3119.1137              3463.4310              3489.2169
 Red. masses --      1.1020                 1.0745                 1.1591
 Frc consts  --      6.3165                 7.5941                 8.3143
 IR Inten    --     72.2698                 5.4553                45.7526

 - Thermochemistry -
 -------------------
 Temperature   298.150 Kelvin.  Pressure   1.00000 Atm.
 Atom     1 has atomic number  6 and mass  12.00000

 Molecular mass:   177.11536 amu.
 Principal axes and moments of inertia in atomic units:
                           1         2         3
     Eigenvalues --  1263.906363387.322503662.89779
           X            0.99979  -0.00423  -0.02016
           Y            0.00342   0.99919  -0.04019
           Z            0.02031   0.04011   0.99899
 This molecule is an asymmetric top.
 Rotational symmetry number  1.
 Warning -- assumption of classical behavior for rotation
           may cause significant error
 Rotational temperatures (Kelvin)      0.06853     0.02557     0.02365
 Rotational constants (GHZ):           1.42791     0.53279     0.49271
    1 imaginary frequencies ignored.
 Zero-point vibrational energy     638917.7 (Joules/Mol)
                                  152.70500 (Kcal/Mol)
 Warning -- explicit consideration of  16 degrees of freedom as
           vibrations may cause significant error
 Vibrational temperatures:     39.11    99.43   107.27   235.59   246.36
          (Kelvin)            372.78   387.46   497.67   545.74   578.95
                              636.58   690.84   708.72   803.85   867.80
                              888.00   979.03  1017.07  1051.07  1091.66
                             1134.76  1175.53  1180.10  1220.82  1251.94
                             1279.03  1336.12  1360.51  1378.25  1430.76
                             1452.94  1469.84  1497.41  1523.19  1560.05
                             1603.58  1608.17  1686.47  1730.67  1741.83
                             1782.20  1793.01  1811.93  1826.99  1856.40
                             1898.68  1910.41  1918.15  1950.31  1958.56
                             1975.34  2009.87  2042.46  2050.28  2090.67
                             2161.06  2178.48  2197.57  2203.43  2225.94
                             2532.90  3180.33  4390.78  4395.11  4395.68
                             4398.62  4412.90  4422.92  4445.88  4450.11
                             4456.50  4463.83  4471.28  4471.76  4487.71
                             4983.10  5020.20

 Zero-point correction=                           0.243351 (Hartree/Particle)
 Thermal correction to Energy=                    0.254479
 Thermal correction to Enthalpy=                  0.255423
 Thermal correction to Gibbs Free Energy=         0.205304
 Sum of electronic and zero-point Energies=           -557.891534
 Sum of electronic and thermal Energies=              -557.880406
 Sum of electronic and thermal Enthalpies=            -557.879462
 Sum of electronic and thermal Free Energies=         -557.929581

                     E (Thermal)             CV                S
                      KCal/Mol        Cal/Mol-Kelvin    Cal/Mol-Kelvin
 Total                  159.688             44.400            105.485
 Electronic               0.000              0.000              0.000
 Translational            0.889              2.981             41.422
 Rotational               0.889              2.981             31.128
 Vibrational            157.910             38.438             32.934
 Vibration     1          0.593              1.984              6.025
 Vibration     2          0.598              1.969              4.179
 Vibration     3          0.599              1.966              4.029
 Vibration     4          0.623              1.887              2.506
 Vibration     5          0.626              1.878              2.422
 Vibration     6          0.668              1.747              1.668
 Vibration     7          0.674              1.730              1.601
 Vibration     8          0.724              1.584              1.185
 Vibration     9          0.749              1.514              1.042
 Vibration    10          0.768              1.465              0.954
 Vibration    11          0.802              1.378              0.819
 Vibration    12          0.837              1.294              0.710
 Vibration    13          0.848              1.266              0.677
 Vibration    14          0.914              1.121              0.526
 Vibration    15          0.962              1.025              0.444
 Vibration    16          0.977              0.996              0.421

                           ! Non-Optimized Parameters !
 Normal termination of Gaussian 16 at Sun Dec 13 20:18:29 2020.

 ----------------------------------------------------------------------
 # B3LYP/6-311++G(d,p) empiricaldispersion=gd3bj scf=xqc pop=npa geom=c
 heck
 ----------------------------------------------------------------------

 ---------------------------------------
 CID_116588333_JID_3086_Energie_neutraal
 ---------------------------------------
 Structure from the checkpoint file:  "JID_3086.chk"
 Charge =  0 Multiplicity = 1

 SCF Done:  E(RB3LYP) =  -558.293670839     A.U. after   14 cycles
 Normal termination of Gaussian 16 at Sun Dec 13 20:21:34 2020.

 ----------------------------------------------------------------------
 # B3LYP/6-311++G(d,p) empiricaldispersion=gd3bj scf=xqc pop=npa geom=c
 heck
 ----------------------------------------------------------------------

 -------------------------------------
 CID_116588333_JID_3086_Energie_kation
 -------------------------------------
 Structure from the checkpoint file:  "JID_3086.chk"
 Charge =  1 Multiplicity = 2

 SCF Done:  E(UB3LYP) =  -557.981255013     A.U. after   21 cycles
 Normal termination of Gaussian 16 at Sun Dec 13 20:28:03 2020.
 Gaussian 16:  ES64L-G16RevA.03 25-Dec-2016

 ----------------------------------------------------------------------
 # B3LYP/6-311++G(d,p) empiricaldispersion=gd3bj scf=xqc pop=npa geom=c
 heck
 ----------------------------------------------------------------------

 ------------------------------------
 CID_116588333_JID_3086_Energie_anion
 ------------------------------------
 Structure from the checkpoint file:  "JID_3086.chk"
 Charge = -1 Multiplicity = 2

                         Standard orientation:
 ---------------------------------------------------------------------
 Center     Atomic      Atomic             Coordinates (Angstroms)
 Number     Number       Type             X           Y           Z
 ---------------------------------------------------------------------
      1          6           0       -3.578704    1.772814   -0.175911
      2          6           0       -3.007198    0.707318   -0.213965
      3          6           0       -2.318486   -0.576708   -0.230380
      4          8           0       -2.326244   -1.273536   -1.233232
      5          6           0       -1.582561   -0.967571    1.037233
      6          6           0       -0.073272   -0.626401    0.997096
      7          6           0        0.689232   -1.449683   -0.056309
      8          6           0        2.138966   -0.922517   -0.227572
      9          6           0        2.286869    0.028130   -1.452063
     10          6           0        2.050770    1.441534   -0.856662
     11          6           0        1.717623    1.155179    0.633045
     12          6           0        0.201825    0.881555    0.845979
     13          7           0        2.454220   -0.087133    0.953951
     14          1           0       -4.086173    2.711562   -0.170900
     15          1           0       -2.045690   -0.470870    1.897591
     16          1           0       -1.699401   -2.050977    1.153871
     17          1           0        0.330311   -0.916302    1.972120
     18          1           0        0.701041   -2.497839    0.265153
     19          1           0        0.165265   -1.428903   -1.017153
     20          1           0        2.838886   -1.760931   -0.281815
     21          1           0        1.583090   -0.217728   -2.253187
     22          1           0        3.294828   -0.052781   -1.873622
     23          1           0        1.254529    1.993528   -1.366070
     24          1           0        2.960017    2.049376   -0.926808
     25          1           0        2.053958    1.962125    1.290161
     26          1           0       -0.362631    1.296855    0.003865
     27          1           0       -0.161323    1.398874    1.741953
     28          1           0        3.453320    0.120334    0.950100
 ---------------------------------------------------------------------

 SCF Done:  E(UB3LYP) =  -558.302594280     A.U. after   29 cycles

 The electronic state is 2-A.
 Alpha  occ. eigenvalues --  -18.92542 -14.18416 -10.08433 -10.08274 -10.07706
 Alpha  occ. eigenvalues --  -10.05647 -10.05520 -10.04477 -10.03924 -10.03605
 Alpha  occ. eigenvalues --  -10.03109 -10.02133 -10.01438  -0.86757  -0.81664
 Alpha  occ. eigenvalues --   -0.67842  -0.64673  -0.63963  -0.61432  -0.57907
 Alpha  occ. eigenvalues --   -0.52740  -0.49553  -0.45861  -0.45267  -0.42174
 Alpha  occ. eigenvalues --   -0.40141  -0.37416  -0.35778  -0.33652  -0.32954
 Alpha  occ. eigenvalues --   -0.32155  -0.29523  -0.28038  -0.27796  -0.26901
 Alpha  occ. eigenvalues --   -0.26091  -0.24755  -0.23581  -0.23035  -0.22593
 Alpha  occ. eigenvalues --   -0.20054  -0.19591  -0.18948  -0.18575  -0.14234
 Alpha  occ. eigenvalues --   -0.13544  -0.12514  -0.09044   0.04498
 Alpha virt. eigenvalues --    0.06234   0.08463   0.09215   0.09364   0.10181
 Alpha virt. eigenvalues --    0.11006   0.11080   0.12200   0.12488   0.13294
 Alpha virt. eigenvalues --    0.13698   0.14111   0.15707   0.15994   0.16266

  Beta  occ. eigenvalues --  -18.91936 -14.18399 -10.08430 -10.08267 -10.07319
  Beta  occ. eigenvalues --  -10.05641 -10.05513 -10.04421 -10.03914 -10.03606
  Beta  occ. eigenvalues --  -10.03147 -10.02170 -10.01151  -0.85655  -0.81641
  Beta  occ. eigenvalues --   -0.67724  -0.64643  -0.63941  -0.60961  -0.57697
  Beta  occ. eigenvalues --   -0.52715  -0.49055  -0.45780  -0.44770  -0.42118
  Beta  occ. eigenvalues --   -0.40038  -0.37040  -0.35690  -0.33598  -0.32802
  Beta  occ. eigenvalues --   -0.32051  -0.29252  -0.27782  -0.27477  -0.26685
  Beta  occ. eigenvalues --   -0.25972  -0.24435  -0.23466  -0.23014  -0.21135
  Beta  occ. eigenvalues --   -0.20019  -0.19398  -0.18536  -0.18269  -0.13373
  Beta  occ. eigenvalues --   -0.12485  -0.12364  -0.08530
  Beta virt. eigenvalues --    0.06666   0.08593   0.09113   0.09384   0.10266
  Beta virt. eigenvalues --    0.10721   0.11000   0.11700   0.12257   0.12474
  Beta virt. eigenvalues --    0.13256   0.13719   0.14058   0.15696   0.15990

 Mulliken charges and spin densities:
               1          2
     1  C   -0.475612   0.367467
     2  C    0.328466  -0.164879
     3  C   -0.341231   0.322430
     4  O   -0.359998   0.204919
     5  C   -0.322101  -0.086502
     6  C    0.352193   0.025855
     7  C   -0.410958  -0.339061
     8  C    0.164686   0.149187
     9  C   -0.284141  -0.280198
    10  C   -0.522274  -0.110577
    11  C    0.505543  -0.199260
    12  C   -0.636676  -0.130480
    13  N   -0.171901  -0.042739
    14  H    0.144360  -0.007936
    15  H    0.075655   0.045649
    16  H    0.069758   0.087383
    17  H    0.081899   0.165613
    18  H    0.129141  -0.012244
    19  H    0.174332   0.028035
    20  H   -0.050252   0.270005
    21  H    0.154501  -0.027072
    22  H   -0.087431   0.229677
    23  H    0.142889  -0.020166
    24  H   -0.027847   0.169090
    25  H    0.069024   0.141691
    26  H    0.113832   0.021230
    27  H    0.156303  -0.028559
    28  H    0.027841   0.221441
 Sum of Mulliken charges =  -1.00000   1.00000

 Dipole moment (field-independent basis, Debye):
    X=              4.3875    Y=              1.7005    Z=              1.3157  Tot=              4.8860
 Quadrupole moment (field-independent basis, Debye-Ang):
   XX=           -133.8925   YY=            -96.1229   ZZ=            -99.4267
   XY=             -2.5831   XZ=             -8.8951   YZ=             -1.9953

 Summary of Natural Population Analysis:

                                       Natural Population
                Natural  -----------------------------------------------
    Atom  No    Charge         Core      Valence    Rydberg      Total
 -----------------------------------------------------------------------
      C    1   -0.07460      0.99931     2.07131    0.00398     3.07460
      C    2   -0.05014      0.99933     2.04147    0.00934     3.05014
      C    3    0.27866      0.99958     1.70023    0.02153     2.72134
      O    4   -0.22889      0.99988     3.22281    0.00620     4.22889
      C    5   -0.22179      0.99959     2.21297    0.00924     3.22179
      C    6   -0.09930      0.99958     2.08958    0.01014     3.09930
      C    7   -0.19700      0.99959     2.18674    0.01067     3.19700
      C    8   -0.01467      0.99961     2.00155    0.01350     3.01467
      C    9   -0.20281      0.99963     2.19473    0.00845     3.20281
      C   10   -0.20124      0.99963     2.19336    0.00825     3.20124
      C   11   -0.01434      0.99961     2.00116    0.01357     3.01434
      C   12   -0.19420      0.99960     2.18517    0.00943     3.19420
      N   13   -0.34078      0.99975     2.82952    0.01151     3.84078
      H   14    0.09802      0.00000     0.40096    0.00101     0.40198
      H   15    0.09946      0.00000     0.39952    0.00102     0.40054
      H   16    0.10399      0.00000     0.39489    0.00113     0.39601
      H   17    0.09908      0.00000     0.39905    0.00187     0.40092
      H   18    0.09717      0.00000     0.40197    0.00086     0.40283
      H   19    0.11024      0.00000     0.38857    0.00119     0.38976
      H   20    0.09468      0.00000     0.40446    0.00086     0.40532
      H   21    0.10124      0.00000     0.39790    0.00086     0.39876
      H   22    0.09461      0.00000     0.40407    0.00132     0.40539
      H   23    0.10016      0.00000     0.39902    0.00083     0.39984
      H   24    0.09337      0.00000     0.40533    0.00130     0.40663
      H   25    0.09381      0.00000     0.40544    0.00075     0.40619
      H   26    0.10478      0.00000     0.39370    0.00152     0.39522
      H   27    0.09904      0.00000     0.40014    0.00083     0.40096
      H   28    0.17146      0.00000     0.32644    0.00211     0.32854
 =======================================================================
   * Total *    0.00000     12.99468    34.85204    0.15327    48.00000

 Normal termination of Gaussian 16 at Sun Dec 13 20:37:16 2020.
