 Gaussian 16, Revision A.03,

 -----------------------------------------------------------
 # opt freq B3LYP/6-31G(d) empiricaldispersion=gd3bj scf=xqc
 -----------------------------------------------------------

 -------------------------------
 CID_150631994_JID_2815_neutraal
 -------------------------------
 Symbolic Z-matrix:
 Charge =  0 Multiplicity = 1

 SCF Done:  E(RB3LYP) =  -886.259913372     A.U. after   18 cycles
 SCF Done:  E(RB3LYP) =  -886.270531833     A.U. after   16 cycles
 SCF Done:  E(RB3LYP) =  -886.271686623     A.U. after   15 cycles
 SCF Done:  E(RB3LYP) =  -886.273282061     A.U. after   14 cycles
 SCF Done:  E(RB3LYP) =  -886.274963595     A.U. after   17 cycles
 SCF Done:  E(RB3LYP) =  -886.275836344     A.U. after   16 cycles
 SCF Done:  E(RB3LYP) =  -886.275987449     A.U. after   14 cycles
 SCF Done:  E(RB3LYP) =  -886.276033826     A.U. after   12 cycles
 SCF Done:  E(RB3LYP) =  -886.276046470     A.U. after   10 cycles
 SCF Done:  E(RB3LYP) =  -886.276047192     A.U. after    9 cycles
 SCF Done:  E(RB3LYP) =  -886.276047446     A.U. after    8 cycles
 Optimization completed.
    -- Stationary point found.
 Normal termination of Gaussian 16 at Wed Dec  9 18:00:00 2020.

 --------------------------------------------------------------------
 #N Geom=AllCheck Guess=TCheck SCRF=Check GenChk RB3LYP/6-31G(d) Freq
 --------------------------------------------------------------------

 Structure from the checkpoint file:  "JID_2815.chk"
 -------------------------------
 CID_150631994_JID_2815_neutraal
 -------------------------------
 Charge =  0 Multiplicity = 1

 SCF Done:  E(RB3LYP) =  -886.276047446     A.U. after    1 cycles

  Exact polarizability: 215.179   6.006 121.594  -0.001  -0.001  42.003
 Approx polarizability: 405.220  13.177 270.348  -0.004  -0.007  68.083

                      1                      2                      3
                      A                      A                      A
 Frequencies --     53.7672               118.4461               127.1419
 Red. masses --     11.5978                11.9828                 9.2849
 Frc consts  --      0.0198                 0.0990                 0.0884
 IR Inten    --      0.1615                 0.0855                 0.7464

                      4                      5                      6
                      A                      A                      A
 Frequencies --    181.6867               270.4338               300.8237
 Red. masses --      6.3621                 5.5119                 9.6209
 Frc consts  --      0.1237                 0.2375                 0.5130
 IR Inten    --      0.1381                 3.0920                 1.0796

                      7                      8                      9
                      A                      A                      A
 Frequencies --    371.4749               386.4462               405.2654
 Red. masses --     10.1135                 4.2195                 7.7249
 Frc consts  --      0.8223                 0.3713                 0.7475
 IR Inten    --      2.6312                 0.3815                 2.3890

                     10                     11                     12
                      A                      A                      A
 Frequencies --    494.4674               506.9557               552.2472
 Red. masses --     13.3368                11.1451                 4.5573
 Frc consts  --      1.9212                 1.6876                 0.8189
 IR Inten    --      9.7577                 5.3600                 4.1668

                     13                     14                     15
                      A                      A                      A
 Frequencies --    594.1989               617.7258               646.4699
 Red. masses --      3.5848                 7.2318                 7.9070
 Frc consts  --      0.7457                 1.6259                 1.9470
 IR Inten    --      5.6952                18.6880                 0.1838

                     16                     17                     18
                      A                      A                      A
 Frequencies --    701.7891               707.1676               767.9793
 Red. masses --      2.9760                 8.8459                 1.5385
 Frc consts  --      0.8636                 2.6064                 0.5346
 IR Inten    --     15.6936                 1.1369                 8.8260

                     19                     20                     21
                      A                      A                      A
 Frequencies --    799.6152               847.8996               886.1755
 Red. masses --      6.4849                 1.3716                 6.4199
 Frc consts  --      2.4429                 0.5810                 2.9704
 IR Inten    --      1.7374                41.7810                16.8793

                     22                     23                     24
                      A                      A                      A
 Frequencies --    905.3848               976.1668              1072.4172
 Red. masses --      1.3903                 1.3955                 2.9819
 Frc consts  --      0.6715                 0.7835                 2.0206
 IR Inten    --      1.3948                 1.5867                32.8250

                     25                     26                     27
                      A                      A                      A
 Frequencies --   1081.4685              1110.5900              1133.0447
 Red. masses --      1.8590                 8.3921                 1.8488
 Frc consts  --      1.2811                 6.0986                 1.3984
 IR Inten    --     10.7779                25.9808                50.8503

                     28                     29                     30
                      A                      A                      A
 Frequencies --   1173.0058              1258.4590              1331.5030
 Red. masses --      2.3846                 2.2959                 1.9647
 Frc consts  --      1.9331                 2.1423                 2.0522
 IR Inten    --     17.8949                 9.9576                10.9851

                     31                     32                     33
                      A                      A                      A
 Frequencies --   1371.2297              1381.5220              1406.2901
 Red. masses --      3.2258                 5.6414                 3.1471
 Frc consts  --      3.5736                 6.3438                 3.6670
 IR Inten    --    298.8112               173.1212                13.6847

                     34                     35                     36
                      A                      A                      A
 Frequencies --   1444.6184              1533.9458              1572.5533
 Red. masses --      3.1527                 5.8804                 5.8284
 Frc consts  --      3.8765                 8.1522                 8.4920
 IR Inten    --    207.0248                40.4602               114.6437

                     37                     38                     39
                      A                      A                      A
 Frequencies --   1666.0510              2265.0263              3193.7804
 Red. masses --      6.0839                13.9950                 1.0890
 Frc consts  --      9.9497                42.3028                 6.5444
 IR Inten    --     16.6774               880.7798                11.5726

                     40                     41                     42
                      A                      A                      A
 Frequencies --   3217.0170              3239.1852              3265.1426
 Red. masses --      1.0914                 1.0906                 1.1014
 Frc consts  --      6.6549                 6.7423                 6.9181
 IR Inten    --      2.1975                 8.6119                14.3215

 - Thermochemistry -
 -------------------
 Temperature   298.150 Kelvin.  Pressure   1.00000 Atm.
 Atom     1 has atomic number  6 and mass  12.00000

 Molecular mass:   176.01567 amu.
 Principal axes and moments of inertia in atomic units:
                           1         2         3
     Eigenvalues --   775.668393292.055754067.72411
           X            1.00000   0.00060   0.00000
           Y           -0.00060   1.00000   0.00000
           Z           -0.00000  -0.00000   1.00000
 This molecule is an asymmetric top.
 Rotational symmetry number  1.
 Warning -- assumption of classical behavior for rotation
           may cause significant error
 Rotational temperatures (Kelvin)      0.11166     0.02631     0.02129
 Rotational constants (GHZ):           2.32669     0.54821     0.44367
 Zero-point vibrational energy     274761.8 (Joules/Mol)
                                   65.66964 (Kcal/Mol)
 Warning -- explicit consideration of  14 degrees of freedom as
           vibrations may cause significant error
 Vibrational temperatures:     77.36   170.42   182.93   261.41   389.09
          (Kelvin)            432.82   534.47   556.01   583.09   711.43
                              729.40   794.56   854.92   888.77   930.13
                             1009.72  1017.46  1104.95  1150.47  1219.94
                             1275.01  1302.65  1404.49  1542.97  1555.99
                             1597.89  1630.20  1687.69  1810.64  1915.74
                             1972.89  1987.70  2023.34  2078.48  2207.01
                             2262.55  2397.08  3258.87  4595.14  4628.57
                             4660.47  4697.81

 Zero-point correction=                           0.104651 (Hartree/Particle)
 Thermal correction to Energy=                    0.113999
 Thermal correction to Enthalpy=                  0.114944
 Thermal correction to Gibbs Free Energy=         0.069131
 Sum of electronic and zero-point Energies=           -886.171396
 Sum of electronic and thermal Energies=              -886.162048
 Sum of electronic and thermal Enthalpies=            -886.161104
 Sum of electronic and thermal Free Energies=         -886.206917

                     E (Thermal)             CV                S
                      KCal/Mol        Cal/Mol-Kelvin    Cal/Mol-Kelvin
 Total                   71.536             35.390             96.421
 Electronic               0.000              0.000              0.000
 Translational            0.889              2.981             41.403
 Rotational               0.889              2.981             30.719
 Vibrational             69.758             29.428             24.299
 Vibration     1          0.596              1.976              4.674
 Vibration     2          0.609              1.934              3.126
 Vibration     3          0.611              1.926              2.989
 Vibration     4          0.630              1.865              2.311
 Vibration     5          0.674              1.728              1.593
 Vibration     6          0.693              1.672              1.412
 Vibration     7          0.743              1.531              1.074
 Vibration     8          0.755              1.499              1.014
 Vibration     9          0.770              1.459              0.943
 Vibration    10          0.850              1.262              0.672
 Vibration    11          0.862              1.235              0.641
 Vibration    12          0.908              1.135              0.540
 Vibration    13          0.952              1.044              0.460
 Vibration    14          0.977              0.994              0.420

 Optimization completed.
    -- Stationary point found.
 Normal termination of Gaussian 16 at Wed Dec  9 18:03:21 2020.

 ----------------------------------------------------------------------
 # B3LYP/6-311++G(d,p) empiricaldispersion=gd3bj scf=xqc pop=npa geom=c
 heck
 ----------------------------------------------------------------------

 ---------------------------------------
 CID_150631994_JID_2815_Energie_neutraal
 ---------------------------------------
 Structure from the checkpoint file:  "JID_2815.chk"
 Charge =  0 Multiplicity = 1

 SCF Done:  E(RB3LYP) =  -886.427785935     A.U. after   18 cycles
 Normal termination of Gaussian 16 at Wed Dec  9 18:05:38 2020.

 ----------------------------------------------------------------------
 # B3LYP/6-311++G(d,p) empiricaldispersion=gd3bj scf=xqc pop=npa geom=c
 heck
 ----------------------------------------------------------------------

 -------------------------------------
 CID_150631994_JID_2815_Energie_kation
 -------------------------------------
 Structure from the checkpoint file:  "JID_2815.chk"
 Charge =  1 Multiplicity = 2

 SCF Done:  E(UB3LYP) =  -886.130736824     A.U. after   27 cycles
 Normal termination of Gaussian 16 at Wed Dec  9 18:09:36 2020.
 Gaussian 16:  ES64L-G16RevA.03 25-Dec-2016

 ----------------------------------------------------------------------
 # B3LYP/6-311++G(d,p) empiricaldispersion=gd3bj scf=xqc pop=npa geom=c
 heck
 ----------------------------------------------------------------------

 ------------------------------------
 CID_150631994_JID_2815_Energie_anion
 ------------------------------------
 Structure from the checkpoint file:  "JID_2815.chk"
 Charge = -1 Multiplicity = 2

                         Standard orientation:
 ---------------------------------------------------------------------
 Center     Atomic      Atomic             Coordinates (Angstroms)
 Number     Number       Type             X           Y           Z
 ---------------------------------------------------------------------
      1          6           0        3.192265    0.474680   -0.000034
      2          6           0        3.331849   -0.894452    0.000155
      3          7           0        2.114119   -1.584279    0.000167
      4          6           0        1.212765   -0.633763   -0.000076
      5          6           0        1.781100    0.718063   -0.000156
      6          6           0        1.001477    1.851755    0.000100
      7          6           0       -0.410410    1.817000    0.000097
      8          6           0       -1.160402    0.661538   -0.000079
      9         16           0       -0.497709   -0.954585   -0.000197
     10          7           0       -2.553725    0.807942   -0.000136
     11          7           0       -3.276020   -0.203457    0.000071
     12          7           0       -4.065628   -1.024273    0.000243
     13          1           0        3.974079    1.221910   -0.000091
     14          1           0        4.252509   -1.465872    0.000276
     15          1           0        1.479619    2.827890    0.000255
     16          1           0       -0.965942    2.748982    0.000259
 ---------------------------------------------------------------------

 SCF Done:  E(UB3LYP) =  -886.475769231     A.U. after   25 cycles

 The electronic state is 2-A.
 Alpha  occ. eigenvalues --  -88.73471 -14.35421 -14.25964 -14.25373 -14.13937
 Alpha  occ. eigenvalues --  -10.10348 -10.06641 -10.04225 -10.03513 -10.03357
 Alpha  occ. eigenvalues --  -10.02242 -10.01110  -7.82175  -5.78504  -5.78100
 Alpha  occ. eigenvalues --   -5.77757  -1.02380  -0.87115  -0.79893  -0.71167
 Alpha  occ. eigenvalues --   -0.64913  -0.61556  -0.58370  -0.51805  -0.47308
 Alpha  occ. eigenvalues --   -0.42526  -0.40589  -0.39857  -0.38455  -0.35972
 Alpha  occ. eigenvalues --   -0.34154  -0.32798  -0.28730  -0.27261  -0.27222
 Alpha  occ. eigenvalues --   -0.25748  -0.23408  -0.22913  -0.20662  -0.18706
 Alpha  occ. eigenvalues --   -0.16883  -0.15586  -0.12023  -0.08271  -0.07335
 Alpha  occ. eigenvalues --    0.01261
 Alpha virt. eigenvalues --    0.07426   0.09358   0.10256   0.11360   0.11506
 Alpha virt. eigenvalues --    0.12829   0.13690   0.14703   0.15130   0.16100
 Alpha virt. eigenvalues --    0.16830   0.17174   0.17766   0.17900   0.18453

  Beta  occ. eigenvalues --  -88.73393 -14.35204 -14.25570 -14.25567 -14.13984
  Beta  occ. eigenvalues --  -10.09870 -10.06416 -10.04380 -10.03179 -10.03138
  Beta  occ. eigenvalues --  -10.02167 -10.01132  -7.82104  -5.78472  -5.78068
  Beta  occ. eigenvalues --   -5.77494  -1.01946  -0.86915  -0.79648  -0.70688
  Beta  occ. eigenvalues --   -0.64476  -0.61136  -0.58090  -0.51413  -0.46988
  Beta  occ. eigenvalues --   -0.42267  -0.40391  -0.38680  -0.38184  -0.35752
  Beta  occ. eigenvalues --   -0.33548  -0.32437  -0.28516  -0.26919  -0.26076
  Beta  occ. eigenvalues --   -0.25613  -0.22795  -0.22166  -0.20525  -0.18576
  Beta  occ. eigenvalues --   -0.15533  -0.14769  -0.11996  -0.07541  -0.06058
  Beta virt. eigenvalues --    0.07299   0.07773   0.09357   0.10252   0.11498
  Beta virt. eigenvalues --    0.12784   0.12860   0.13688   0.15208   0.15281
  Beta virt. eigenvalues --    0.16122   0.17236   0.17534   0.17824   0.18158

 Mulliken charges and spin densities:
               1          2
     1  C   -0.704387  -0.031671
     2  C    0.164289   0.142901
     3  N   -0.106859  -0.017316
     4  C   -0.882203   0.097123
     5  C    1.122940   0.043825
     6  C   -0.064006   0.334185
     7  C    0.462536  -0.092109
     8  C   -0.999686   0.239679
     9  S   -0.486218   0.129127
    10  N    0.324557  -0.108885
    11  N    0.058372   0.072548
    12  N   -0.365536   0.216468
    13  H    0.079862  -0.000220
    14  H    0.119750  -0.010255
    15  H    0.110667  -0.021652
    16  H    0.165922   0.006253
 Sum of Mulliken charges =  -1.00000   1.00000

 Dipole moment (field-independent basis, Debye):
    X=             -1.2913    Y=              3.0994    Z=             -0.0001  Tot=              3.3576
 Quadrupole moment (field-independent basis, Debye-Ang):
   XX=           -114.2082   YY=            -91.4233   ZZ=            -83.9197
   XY=              1.6040   XZ=              0.0004   YZ=              0.0018

 Summary of Natural Population Analysis:

                                       Natural Population
                Natural  -----------------------------------------------
    Atom  No    Charge         Core      Valence    Rydberg      Total
 -----------------------------------------------------------------------
      C    1   -0.17182      0.99952     2.16319    0.00911     3.17182
      C    2    0.02678      0.99958     1.95857    0.01507     2.97322
      N    3   -0.29650      0.99968     2.78108    0.01574     3.79650
      C    4    0.06039      0.99946     1.92051    0.01963     2.93961
      C    5   -0.06097      0.99948     2.05194    0.00955     3.06097
      C    6    0.01025      0.99952     1.98170    0.00853     2.98975
      C    7   -0.17927      0.99951     2.16968    0.01008     3.17927
      C    8    0.08176      0.99945     1.90458    0.01422     2.91824
      S    9    0.22933      4.99937     2.75016    0.02114     7.77067
      N   10   -0.20918      0.99963     2.69514    0.01440     3.70918
      N   11    0.13240      0.99970     2.35109    0.01681     3.36760
      N   12    0.01506      0.99982     2.47180    0.01333     3.48494
      H   13    0.09429      0.00000     0.40470    0.00101     0.40571
      H   14    0.07951      0.00000     0.41937    0.00113     0.42049
      H   15    0.08641      0.00000     0.41198    0.00161     0.41359
      H   16    0.10155      0.00000     0.39721    0.00124     0.39845
 =======================================================================
   * Total *    0.00000     15.99473    28.83269    0.17259    45.00000

 Normal termination of Gaussian 16 at Wed Dec  9 18:15:34 2020.
