 Gaussian 16, Revision A.03,

 -----------------------------------------------------------
 # opt freq B3LYP/6-31G(d) empiricaldispersion=gd3bj scf=xqc
 -----------------------------------------------------------

 -------------------------------
 CID_151764260_JID_4668_neutraal
 -------------------------------
 Symbolic Z-matrix:
 Charge =  0 Multiplicity = 1

 SCF Done:  E(RB3LYP) =  -724.831184140     A.U. after   15 cycles
 SCF Done:  E(RB3LYP) =  -724.836842685     A.U. after   13 cycles
 SCF Done:  E(RB3LYP) =  -724.832121529     A.U. after   15 cycles
 SCF Done:  E(RB3LYP) =  -724.837333437     A.U. after   12 cycles
 SCF Done:  E(RB3LYP) =  -724.835670589     A.U. after   14 cycles
 SCF Done:  E(RB3LYP) =  -724.840138719     A.U. after   13 cycles
 SCF Done:  E(RB3LYP) =  -724.840479347     A.U. after   13 cycles
 SCF Done:  E(RB3LYP) =  -724.840591129     A.U. after   13 cycles
 SCF Done:  E(RB3LYP) =  -724.840876369     A.U. after   12 cycles
 SCF Done:  E(RB3LYP) =  -724.841604172     A.U. after   14 cycles
 SCF Done:  E(RB3LYP) =  -724.843839790     A.U. after   13 cycles
 SCF Done:  E(RB3LYP) =  -724.843837247     A.U. after   12 cycles
 SCF Done:  E(RB3LYP) =  -724.843843862     A.U. after   11 cycles
 SCF Done:  E(RB3LYP) =  -724.843839052     A.U. after   11 cycles
 SCF Done:  E(RB3LYP) =  -724.843843912     A.U. after   11 cycles
 SCF Done:  E(RB3LYP) =  -724.843843947     A.U. after    7 cycles
 Optimization completed.
    -- Stationary point found.
 Normal termination of Gaussian 16 at Thu Dec 10 10:46:25 2020.

 --------------------------------------------------------------------
 #N Geom=AllCheck Guess=TCheck SCRF=Check GenChk RB3LYP/6-31G(d) Freq
 --------------------------------------------------------------------

 Structure from the checkpoint file:  "JID_4668.chk"
 -------------------------------
 CID_151764260_JID_4668_neutraal
 -------------------------------
 Charge =  0 Multiplicity = 1

 SCF Done:  E(RB3LYP) =  -724.843843947     A.U. after    1 cycles

  Exact polarizability: 123.916  -2.569 107.016   0.495   0.138  98.420
 Approx polarizability: 170.224  -2.689 147.455   4.605   0.041 143.132

                      1                      2                      3
                      A                      A                      A
 Frequencies --     36.5105                41.5988                58.0455
 Red. masses --      3.0904                 3.4880                 4.8288
 Frc consts  --      0.0024                 0.0036                 0.0096
 IR Inten    --      0.5428                 0.2676                 2.0864

                      4                      5                      6
                      A                      A                      A
 Frequencies --     74.9375               101.0752               108.1479
 Red. masses --      3.4504                 3.9182                 6.9236
 Frc consts  --      0.0114                 0.0236                 0.0477
 IR Inten    --      2.2280                 1.6720                 0.6811

                      7                      8                      9
                      A                      A                      A
 Frequencies --    119.2131               145.5397               163.2611
 Red. masses --      3.5208                 2.7848                 2.4918
 Frc consts  --      0.0295                 0.0348                 0.0391
 IR Inten    --      0.5316                 5.3813                 0.5297

                     10                     11                     12
                      A                      A                      A
 Frequencies --    191.7923               209.5543               230.1647
 Red. masses --      1.6640                 1.7441                 1.7148
 Frc consts  --      0.0361                 0.0451                 0.0535
 IR Inten    --      0.6888                 0.8974                 2.1961

                     13                     14                     15
                      A                      A                      A
 Frequencies --    240.3164               267.6583               281.3086
 Red. masses --      1.3469                 3.0975                 1.8792
 Frc consts  --      0.0458                 0.1307                 0.0876
 IR Inten    --      0.5504                 3.9920                 2.3616

                     16                     17                     18
                      A                      A                      A
 Frequencies --    307.0617               344.7843               381.2541
 Red. masses --      2.4950                 3.2796                 3.4750
 Frc consts  --      0.1386                 0.2297                 0.2976
 IR Inten    --      5.3188                10.8308                 1.9846

                     19                     20                     21
                      A                      A                      A
 Frequencies --    419.3408               446.8542               482.1487
 Red. masses --      3.1477                 3.0730                 3.9450
 Frc consts  --      0.3261                 0.3615                 0.5403
 IR Inten    --      2.9698                 3.6450                 4.9596

                     22                     23                     24
                      A                      A                      A
 Frequencies --    526.1770               551.2968               583.9070
 Red. masses --      2.0959                 1.7386                 4.4611
 Frc consts  --      0.3419                 0.3113                 0.8961
 IR Inten    --     46.2759                49.0746                39.3233

                     25                     26                     27
                      A                      A                      A
 Frequencies --    614.9615               716.0968               741.7817
 Red. masses --      4.8300                 2.0386                 4.3653
 Frc consts  --      1.0762                 0.6159                 1.4152
 IR Inten    --     30.6969                 2.2859                18.5823

                     28                     29                     30
                      A                      A                      A
 Frequencies --    766.1033               809.1743               831.6009
 Red. masses --      9.7128                 1.5789                 3.6983
 Frc consts  --      3.3587                 0.6091                 1.5069
 IR Inten    --     36.5418                15.0792                33.7368

                     31                     32                     33
                      A                      A                      A
 Frequencies --    864.0606               899.0427               937.1674
 Red. masses --      1.9600                 1.7046                 2.8977
 Frc consts  --      0.8622                 0.8118                 1.4995
 IR Inten    --      1.5184                 6.5862                 8.4839

                     34                     35                     36
                      A                      A                      A
 Frequencies --    976.5348              1022.9300              1039.0084
 Red. masses --      1.9821                 1.9380                 2.6482
 Frc consts  --      1.1137                 1.1948                 1.6844
 IR Inten    --      4.4956                 2.3712                10.7262

                     37                     38                     39
                      A                      A                      A
 Frequencies --   1071.2532              1087.6080              1133.0568
 Red. masses --      6.6711                 2.5762                 2.5315
 Frc consts  --      4.5106                 1.7954                 1.9148
 IR Inten    --    112.3365                 0.5573                 5.4680

                     40                     41                     42
                      A                      A                      A
 Frequencies --   1138.4470              1152.9024              1174.9194
 Red. masses --      2.1533                 2.0738                 1.7079
 Frc consts  --      1.6443                 1.6240                 1.3890
 IR Inten    --     78.1664                38.4900                10.2731

                     43                     44                     45
                      A                      A                      A
 Frequencies --   1187.9863              1202.2407              1213.6058
 Red. masses --      1.2788                 1.7549                 1.7638
 Frc consts  --      1.0633                 1.4945                 1.5306
 IR Inten    --      1.9371               184.8787                51.5908

                     46                     47                     48
                      A                      A                      A
 Frequencies --   1228.2989              1254.9823              1273.5470
 Red. masses --      1.7883                 1.4869                 3.3212
 Frc consts  --      1.5896                 1.3798                 3.1738
 IR Inten    --      1.5826                 8.7849                18.2409

                     49                     50                     51
                      A                      A                      A
 Frequencies --   1312.6047              1347.9187              1371.0267
 Red. masses --      1.3575                 1.2765                 1.3051
 Frc consts  --      1.3780                 1.3665                 1.4454
 IR Inten    --      4.7149                 3.1666                 1.3197

                     52                     53                     54
                      A                      A                      A
 Frequencies --   1398.8219              1418.6106              1422.1983
 Red. masses --      1.3860                 1.8439                 1.9754
 Frc consts  --      1.5978                 2.1863                 2.3541
 IR Inten    --      9.6559                63.7423                76.8804

                     55                     56                     57
                      A                      A                      A
 Frequencies --   1434.2475              1447.0769              1457.1268
 Red. masses --      1.2233                 1.2534                 1.1883
 Frc consts  --      1.4826                 1.5464                 1.4865
 IR Inten    --     19.1913                 4.5802                 1.8486

                     58                     59                     60
                      A                      A                      A
 Frequencies --   1482.6958              1504.6935              1509.8395
 Red. masses --      1.1433                 1.0484                 1.0624
 Frc consts  --      1.4808                 1.3985                 1.4269
 IR Inten    --      3.2315                 5.6429                 1.8952

                     61                     62                     63
                      A                      A                      A
 Frequencies --   1517.7588              1524.5075              1533.0087
 Red. masses --      1.0792                 1.0530                 1.0501
 Frc consts  --      1.4648                 1.4420                 1.4540
 IR Inten    --      1.4609                 1.2149                 8.0888

                     64                     65                     66
                      A                      A                      A
 Frequencies --   1534.4310              1538.1518              1540.7690
 Red. masses --      1.0577                 1.0487                 1.0659
 Frc consts  --      1.4673                 1.4619                 1.4909
 IR Inten    --      5.5292                 5.9735                 5.9194

                     67                     68                     69
                      A                      A                      A
 Frequencies --   1838.5074              1848.1543              2912.4072
 Red. masses --      9.9540                 9.4560                 1.0838
 Frc consts  --     19.8235                19.0297                 5.4162
 IR Inten    --    120.1158               402.4751               131.8692

                     70                     71                     72
                      A                      A                      A
 Frequencies --   3034.9413              3045.9628              3048.4070
 Red. masses --      1.0373                 1.0520                 1.0466
 Frc consts  --      5.6294                 5.7504                 5.7303
 IR Inten    --     55.9708                 9.4085                36.4317

                     73                     74                     75
                      A                      A                      A
 Frequencies --   3060.8843              3073.2798              3078.6257
 Red. masses --      1.0746                 1.0309                 1.0940
 Frc consts  --      5.9317                 5.7368                 6.1093
 IR Inten    --      7.1426                28.6222                22.0321

                     76                     77                     78
                      A                      A                      A
 Frequencies --   3083.0695              3112.9363              3115.2565
 Red. masses --      1.0826                 1.1018                 1.0967
 Frc consts  --      6.0631                 6.2908                 6.2709
 IR Inten    --     11.9420                48.5587                33.0916

                     79                     80                     81
                      A                      A                      A
 Frequencies --   3119.7894              3130.0276              3145.9229
 Red. masses --      1.1013                 1.0969                 1.1051
 Frc consts  --      6.3154                 6.3319                 6.4436
 IR Inten    --     41.0433                18.6415                23.7240

                     82                     83                     84
                      A                      A                      A
 Frequencies --   3152.6663              3164.5226              3728.9836
 Red. masses --      1.1048                 1.1064                 1.0647
 Frc consts  --      6.4699                 6.5278                 8.7225
 IR Inten    --     25.3505                 7.9367                87.7738

 - Thermochemistry -
 -------------------
 Temperature   298.150 Kelvin.  Pressure   1.00000 Atm.
 Atom     1 has atomic number  6 and mass  12.00000

 Molecular mass:   204.11101 amu.
 Principal axes and moments of inertia in atomic units:
                           1         2         3
     Eigenvalues --  2087.244043538.623193914.76539
           X            0.99966  -0.02447   0.00905
           Y            0.02453   0.99968  -0.00669
           Z           -0.00889   0.00691   0.99994
 This molecule is an asymmetric top.
 Rotational symmetry number  1.
 Warning -- assumption of classical behavior for rotation
           may cause significant error
 Rotational temperatures (Kelvin)      0.04150     0.02448     0.02212
 Rotational constants (GHZ):           0.86465     0.51001     0.46101
 Zero-point vibrational energy     661768.7 (Joules/Mol)
                                  158.16652 (Kcal/Mol)
 Warning -- explicit consideration of  25 degrees of freedom as
           vibrations may cause significant error
 Vibrational temperatures:     52.53    59.85    83.51   107.82   145.42
          (Kelvin)            155.60   171.52   209.40   234.90   275.95
                              301.50   331.16   345.76   385.10   404.74
                              441.79   496.07   548.54   603.34   642.92
                              693.70   757.05   793.19   840.11   884.79
                             1030.30  1067.26  1102.25  1164.22  1196.49
                             1243.19  1293.52  1348.37  1405.02  1471.77
                             1494.90  1541.29  1564.83  1630.22  1637.97
                             1658.77  1690.45  1709.25  1729.76  1746.11
                             1767.25  1805.64  1832.35  1888.55  1939.35
                             1972.60  2012.59  2041.06  2046.23  2063.56
                             2082.02  2096.48  2133.27  2164.92  2172.32
                             2183.72  2193.43  2205.66  2207.70  2213.06
                             2216.82  2645.20  2659.08  4190.30  4366.60
                             4382.46  4385.98  4403.93  4421.76  4429.46
                             4435.85  4478.82  4482.16  4488.68  4503.41
                             4526.28  4535.98  4553.04  5365.18

 Zero-point correction=                           0.252054 (Hartree/Particle)
 Thermal correction to Energy=                    0.268329
 Thermal correction to Enthalpy=                  0.269273
 Thermal correction to Gibbs Free Energy=         0.207676
 Sum of electronic and zero-point Energies=           -724.591790
 Sum of electronic and thermal Energies=              -724.575515
 Sum of electronic and thermal Enthalpies=            -724.574571
 Sum of electronic and thermal Free Energies=         -724.636167

                     E (Thermal)             CV                S
                      KCal/Mol        Cal/Mol-Kelvin    Cal/Mol-Kelvin
 Total                  168.379             57.826            129.641
 Electronic               0.000              0.000              0.000
 Translational            0.889              2.981             41.845
 Rotational               0.889              2.981             31.736
 Vibrational            166.601             51.865             56.060
 Vibration     1          0.594              1.982              5.440
 Vibration     2          0.594              1.981              5.181
 Vibration     3          0.596              1.974              4.523
 Vibration     4          0.599              1.966              4.019
 Vibration     5          0.604              1.948              3.433
 Vibration     6          0.606              1.943              3.302
 Vibration     7          0.609              1.933              3.113
 Vibration     8          0.617              1.907              2.730
 Vibration     9          0.623              1.888              2.512
 Vibration    10          0.634              1.851              2.210
 Vibration    11          0.642              1.826              2.048
 Vibration    12          0.652              1.795              1.878
 Vibration    13          0.657              1.779              1.801
 Vibration    14          0.673              1.733              1.611
 Vibration    15          0.681              1.708              1.526
 Vibration    16          0.697              1.660              1.378
 Vibration    17          0.723              1.586              1.190
 Vibration    18          0.751              1.510              1.034
 Vibration    19          0.782              1.428              0.894
 Vibration    20          0.806              1.368              0.805
 Vibration    21          0.838              1.290              0.704
 Vibration    22          0.881              1.192              0.596
 Vibration    23          0.907              1.137              0.541
 Vibration    24          0.941              1.066              0.478
 Vibration    25          0.974              1.000              0.425

                           ! Non-Optimized Parameters !
 Normal termination of Gaussian 16 at Thu Dec 10 10:56:16 2020.

 ----------------------------------------------------------------------
 # B3LYP/6-311++G(d,p) empiricaldispersion=gd3bj scf=xqc pop=npa geom=c
 heck
 ----------------------------------------------------------------------

 ---------------------------------------
 CID_151764260_JID_4668_Energie_neutraal
 ---------------------------------------
 Structure from the checkpoint file:  "JID_4668.chk"
 Charge =  0 Multiplicity = 1

 SCF Done:  E(RB3LYP) =  -725.066965731     A.U. after   15 cycles
 Normal termination of Gaussian 16 at Thu Dec 10 11:00:54 2020.

 ----------------------------------------------------------------------
 # B3LYP/6-311++G(d,p) empiricaldispersion=gd3bj scf=xqc pop=npa geom=c
 heck
 ----------------------------------------------------------------------

 -------------------------------------
 CID_151764260_JID_4668_Energie_kation
 -------------------------------------
 Structure from the checkpoint file:  "JID_4668.chk"
 Charge =  1 Multiplicity = 2

 SCF Done:  E(UB3LYP) =  -724.746987476     A.U. after   25 cycles
 Normal termination of Gaussian 16 at Thu Dec 10 11:11:48 2020.
 Gaussian 16:  ES64L-G16RevA.03 25-Dec-2016

 ----------------------------------------------------------------------
 # B3LYP/6-311++G(d,p) empiricaldispersion=gd3bj scf=xqc pop=npa geom=c
 heck
 ----------------------------------------------------------------------

 ------------------------------------
 CID_151764260_JID_4668_Energie_anion
 ------------------------------------
 Structure from the checkpoint file:  "JID_4668.chk"
 Charge = -1 Multiplicity = 2

                         Standard orientation:
 ---------------------------------------------------------------------
 Center     Atomic      Atomic             Coordinates (Angstroms)
 Number     Number       Type             X           Y           Z
 ---------------------------------------------------------------------
      1          6           0       -3.929270    0.332345   -0.796787
      2          6           0       -3.179312   -0.899152   -0.279234
      3          6           0       -1.665693   -0.889327   -0.549198
      4          6           0       -0.914193    0.319204    0.046698
      5          6           0       -1.037504    0.355465    1.565416
      6          8           0       -0.126381    0.182404    2.340685
      7          7           0        0.477118    0.372829   -0.410357
      8          6           0        1.230593    1.516236   -0.229539
      9          8           0        2.410399    1.650591   -0.473307
     10          8           0        0.452578    2.540303    0.232566
     11          7           0        1.115120   -0.845702   -0.677061
     12          6           0        1.844011   -0.843185   -1.949692
     13          8           0        2.090410   -1.127987    0.340372
     14          6           0        1.648460   -2.233354    1.116654
     15          1           0       -3.655727    1.242928   -0.251655
     16          1           0       -5.011507    0.203425   -0.690476
     17          1           0       -3.715573    0.505461   -1.858625
     18          1           0       -3.375146   -1.027181    0.792984
     19          1           0       -3.587512   -1.795293   -0.762591
     20          1           0       -1.214020   -1.811315   -0.175453
     21          1           0       -1.489354   -0.876102   -1.631386
     22          1           0       -1.399275    1.230976   -0.316978
     23          1           0       -2.066568    0.562625    1.933314
     24          1           0        1.065038    3.291842    0.316104
     25          1           0        2.697866   -0.162413   -1.937301
     26          1           0        2.181960   -1.866617   -2.128653
     27          1           0        1.139805   -0.555828   -2.735223
     28          1           0        0.745872   -1.991134    1.685498
     29          1           0        1.473557   -3.117665    0.489939
     30          1           0        2.466331   -2.435476    1.814003
 ---------------------------------------------------------------------

 SCF Done:  E(UB3LYP) =  -725.059697986     A.U. after   32 cycles

 The electronic state is 2-A.
 Alpha  occ. eigenvalues --  -19.07204 -19.04532 -19.00251 -18.98199 -14.29031
 Alpha  occ. eigenvalues --  -14.26739 -10.22556 -10.11315 -10.10423 -10.10303
 Alpha  occ. eigenvalues --  -10.08873 -10.05834 -10.05603 -10.04931  -1.02019
 Alpha  occ. eigenvalues --   -0.98225  -0.92024  -0.91796  -0.86296  -0.73139
 Alpha  occ. eigenvalues --   -0.68879  -0.62740  -0.59376  -0.57562  -0.55411
 Alpha  occ. eigenvalues --   -0.49763  -0.48554  -0.45980  -0.43278  -0.40924
 Alpha  occ. eigenvalues --   -0.38752  -0.38452  -0.36669  -0.35594  -0.35330
 Alpha  occ. eigenvalues --   -0.34413  -0.32972  -0.32445  -0.31472  -0.30964
 Alpha  occ. eigenvalues --   -0.29900  -0.29590  -0.29049  -0.27386  -0.26416
 Alpha  occ. eigenvalues --   -0.25178  -0.23371  -0.22951  -0.22626  -0.21934
 Alpha  occ. eigenvalues --   -0.19305  -0.18114  -0.16370  -0.14717  -0.12414
 Alpha  occ. eigenvalues --    0.04741
 Alpha virt. eigenvalues --    0.07322   0.07627   0.07777   0.08472   0.09519
 Alpha virt. eigenvalues --    0.09864   0.10516   0.11079   0.11831   0.12448
 Alpha virt. eigenvalues --    0.12749   0.13236   0.13595   0.14032   0.14438

  Beta  occ. eigenvalues --  -19.07201 -19.04530 -19.00250 -18.97897 -14.29029
  Beta  occ. eigenvalues --  -14.26736 -10.22553 -10.11040 -10.10418 -10.10328
  Beta  occ. eigenvalues --  -10.08857 -10.05778 -10.05560 -10.04892  -1.02011
  Beta  occ. eigenvalues --   -0.98220  -0.91985  -0.91275  -0.86275  -0.73105
  Beta  occ. eigenvalues --   -0.68799  -0.62617  -0.59350  -0.57523  -0.55270
  Beta  occ. eigenvalues --   -0.49459  -0.48391  -0.45839  -0.43194  -0.40863
  Beta  occ. eigenvalues --   -0.38739  -0.38308  -0.36594  -0.35534  -0.35206
  Beta  occ. eigenvalues --   -0.34323  -0.32930  -0.32391  -0.31409  -0.30768
  Beta  occ. eigenvalues --   -0.29739  -0.29475  -0.28839  -0.27220  -0.26389
  Beta  occ. eigenvalues --   -0.24193  -0.23286  -0.22917  -0.22521  -0.21596
  Beta  occ. eigenvalues --   -0.19278  -0.18074  -0.16326  -0.14698  -0.12206
  Beta virt. eigenvalues --    0.07225   0.07751   0.08181   0.08792   0.09631
  Beta virt. eigenvalues --    0.10158   0.10587   0.11045   0.11344   0.11944
  Beta virt. eigenvalues --    0.12684   0.13022   0.13564   0.13740   0.13965

 Mulliken charges and spin densities:
               1          2
     1  C    1.228480  -1.856522
     2  C   -0.824243   0.463495
     3  C    0.019196  -0.081823
     4  C   -0.269562  -0.565915
     5  C    0.303399  -0.203246
     6  O   -0.285562   0.091548
     7  N    0.142591  -0.019797
     8  C    0.408790  -0.065989
     9  O   -0.327160   0.001119
    10  O   -0.169361  -0.006872
    11  N   -0.173541   0.086554
    12  C    0.156501  -0.499094
    13  O    0.067890   0.009028
    14  C   -0.085781  -0.196398
    15  H   -0.014806   0.137681
    16  H   -0.532539   0.680624
    17  H   -0.210885   0.364983
    18  H   -0.134947   0.289263
    19  H   -0.732790   0.899261
    20  H   -0.081279   0.266527
    21  H   -0.223150   0.398360
    22  H    0.154278   0.102691
    23  H    0.041388   0.024800
    24  H    0.255636   0.041699
    25  H    0.185030   0.011469
    26  H    0.037188   0.110635
    27  H   -0.237290   0.385469
    28  H    0.153262   0.022884
    29  H    0.006041   0.122900
    30  H    0.143226  -0.015334
 Sum of Mulliken charges =  -1.00000   1.00000

 Dipole moment (field-independent basis, Debye):
    X=              5.7751    Y=              2.1966    Z=              1.7926  Tot=              6.4335
 Quadrupole moment (field-independent basis, Debye-Ang):
   XX=           -153.5132   YY=           -104.8809   ZZ=           -122.9599
   XY=            -10.7168   XZ=            -10.2647   YZ=             -3.5720

 Summary of Natural Population Analysis:

                                       Natural Population
                Natural  -----------------------------------------------
    Atom  No    Charge         Core      Valence    Rydberg      Total
 -----------------------------------------------------------------------
      C    1   -0.28732      0.99967     2.28201    0.00565     3.28732
      C    2   -0.19119      0.99964     2.18223    0.00932     3.19119
      C    3   -0.18692      0.99960     2.17703    0.01029     3.18692
      C    4   -0.05798      0.99955     2.04433    0.01410     3.05798
      C    5    0.25621      0.99971     1.72388    0.02021     2.74379
      O    6   -0.25891      0.99988     3.25221    0.00682     4.25891
      N    7   -0.17335      0.99960     2.65806    0.01569     3.67335
      C    8    0.46479      0.99971     1.50815    0.02736     2.53521
      O    9   -0.32732      0.99987     3.32218    0.00527     4.32732
      O   10   -0.34962      0.99988     3.34425    0.00549     4.34962
      N   11   -0.03137      0.99973     2.51460    0.01704     3.53137
      C   12   -0.18232      0.99962     2.17382    0.00888     3.18232
      O   13   -0.22364      0.99990     3.21397    0.00978     4.22364
      C   14   -0.09737      0.99962     2.08909    0.00866     3.09737
      H   15    0.09201      0.00000     0.40692    0.00107     0.40799
      H   16    0.10006      0.00000     0.39857    0.00136     0.39994
      H   17    0.09896      0.00000     0.39966    0.00138     0.40104
      H   18    0.09498      0.00000     0.40366    0.00136     0.40502
      H   19    0.10033      0.00000     0.39746    0.00222     0.39967
      H   20    0.10532      0.00000     0.39230    0.00238     0.39468
      H   21    0.10405      0.00000     0.39295    0.00300     0.39595
      H   22    0.11391      0.00000     0.38386    0.00222     0.38609
      H   23    0.04284      0.00000     0.45473    0.00243     0.45716
      H   24    0.24071      0.00000     0.25638    0.00291     0.25929
      H   25    0.10275      0.00000     0.39595    0.00129     0.39725
      H   26    0.09466      0.00000     0.40438    0.00096     0.40534
      H   27    0.09988      0.00000     0.39882    0.00129     0.40012
      H   28    0.09409      0.00000     0.40428    0.00162     0.40591
      H   29    0.07674      0.00000     0.42180    0.00147     0.42326
      H   30    0.08503      0.00000     0.41406    0.00091     0.41497
 =======================================================================
   * Total *    0.00000     13.99596    40.81162    0.19241    55.00000

 Normal termination of Gaussian 16 at Thu Dec 10 11:25:01 2020.
