 Gaussian 16, Revision A.03,

 -----------------------------------------------------------
 # opt freq B3LYP/6-31G(d) empiricaldispersion=gd3bj scf=xqc
 -----------------------------------------------------------

 ------------------------------
 CID_63363556_JID_2374_neutraal
 ------------------------------
 Symbolic Z-matrix:
 Charge =  0 Multiplicity = 1

 SCF Done:  E(RB3LYP) =  -594.339443711     A.U. after   14 cycles
 SCF Done:  E(RB3LYP) =  -594.343076079     A.U. after   12 cycles
 SCF Done:  E(RB3LYP) =  -594.342987736     A.U. after   13 cycles
 SCF Done:  E(RB3LYP) =  -594.344012874     A.U. after   12 cycles
 SCF Done:  E(RB3LYP) =  -594.344140186     A.U. after   11 cycles
 SCF Done:  E(RB3LYP) =  -594.344186946     A.U. after   11 cycles
 SCF Done:  E(RB3LYP) =  -594.344209998     A.U. after    9 cycles
 SCF Done:  E(RB3LYP) =  -594.344219795     A.U. after    9 cycles
 SCF Done:  E(RB3LYP) =  -594.344223690     A.U. after    9 cycles
 SCF Done:  E(RB3LYP) =  -594.344225621     A.U. after    9 cycles
 SCF Done:  E(RB3LYP) =  -594.344227224     A.U. after    9 cycles
 SCF Done:  E(RB3LYP) =  -594.344227481     A.U. after    8 cycles
 Optimization completed.
    -- Stationary point found.
 Normal termination of Gaussian 16 at Wed Dec  9 17:20:40 2020.

 --------------------------------------------------------------------
 #N Geom=AllCheck Guess=TCheck SCRF=Check GenChk RB3LYP/6-31G(d) Freq
 --------------------------------------------------------------------

 Structure from the checkpoint file:  "JID_2374.chk"
 ------------------------------
 CID_63363556_JID_2374_neutraal
 ------------------------------
 Charge =  0 Multiplicity = 1

 SCF Done:  E(RB3LYP) =  -594.344227481     A.U. after    1 cycles

  Exact polarizability: 123.293   1.283  82.385  -3.608  -4.022  88.191
 Approx polarizability: 155.675   3.429 117.791  -0.796  -6.325 133.623

                      1                      2                      3
                      A                      A                      A
 Frequencies --     29.4623                37.3651                44.8568
 Red. masses --      3.8438                 8.3275                 5.4072
 Frc consts  --      0.0020                 0.0069                 0.0064
 IR Inten    --      0.7439                 1.6098                 0.2351

                      4                      5                      6
                      A                      A                      A
 Frequencies --    124.2990               138.1872               205.8205
 Red. masses --      3.6389                 3.6794                 3.3023
 Frc consts  --      0.0331                 0.0414                 0.0824
 IR Inten    --      0.6654                 0.5912                 0.9839

                      7                      8                      9
                      A                      A                      A
 Frequencies --    230.9353               244.9201               316.5709
 Red. masses --      2.5627                 2.2509                 3.0312
 Frc consts  --      0.0805                 0.0796                 0.1790
 IR Inten    --      1.7777                 2.1345                 5.5158

                     10                     11                     12
                      A                      A                      A
 Frequencies --    362.4757               409.1145               435.7810
 Red. masses --      2.4050                 3.5335                 2.5427
 Frc consts  --      0.1862                 0.3485                 0.2845
 IR Inten    --      5.4581                 3.4570                 6.6835

                     13                     14                     15
                      A                      A                      A
 Frequencies --    446.9974               459.7503               510.2855
 Red. masses --      3.2294                 1.8637                 2.4938
 Frc consts  --      0.3802                 0.2321                 0.3826
 IR Inten    --      3.6712                 2.2844                 1.9161

                     16                     17                     18
                      A                      A                      A
 Frequencies --    565.2951               577.7969               634.4034
 Red. masses --      3.5703                 2.1476                 1.3575
 Frc consts  --      0.6722                 0.4224                 0.3219
 IR Inten    --     36.5866                 1.3730                32.5474

                     19                     20                     21
                      A                      A                      A
 Frequencies --    711.4906               757.5722               807.1330
 Red. masses --      1.4633                 2.9756                 2.3114
 Frc consts  --      0.4364                 1.0062                 0.8872
 IR Inten    --    143.7943                28.5223                13.0026

                     22                     23                     24
                      A                      A                      A
 Frequencies --    843.8943               868.3906               876.7679
 Red. masses --      2.4080                 2.4117                 1.4453
 Frc consts  --      1.0104                 1.0715                 0.6546
 IR Inten    --     21.9488                12.7404                 5.6832

                     25                     26                     27
                      A                      A                      A
 Frequencies --    888.0034               936.5734               958.0545
 Red. masses --      2.4727                 2.4177                 2.7378
 Frc consts  --      1.1488                 1.2495                 1.4806
 IR Inten    --      1.1088                22.0993                11.9719

                     28                     29                     30
                      A                      A                      A
 Frequencies --    980.5236              1003.5080              1042.1613
 Red. masses --      2.4334                 1.4646                 1.9217
 Frc consts  --      1.3784                 0.8690                 1.2297
 IR Inten    --     10.1383                 3.6448                36.5150

                     31                     32                     33
                      A                      A                      A
 Frequencies --   1052.9425              1106.9325              1124.4133
 Red. masses --      1.9179                 2.6824                 3.2466
 Frc consts  --      1.2528                 1.9365                 2.4184
 IR Inten    --     15.1799                35.7967                50.4986

                     34                     35                     36
                      A                      A                      A
 Frequencies --   1138.1505              1141.1146              1183.7992
 Red. masses --      2.3090                 3.0788                 2.1026
 Frc consts  --      1.7623                 2.3620                 1.7360
 IR Inten    --     37.2683                60.2152                80.1537

                     37                     38                     39
                      A                      A                      A
 Frequencies --   1206.1382              1220.1871              1246.5111
 Red. masses --      2.1031                 1.5397                 1.4177
 Frc consts  --      1.8026                 1.3507                 1.2978
 IR Inten    --    112.7449                10.4673                44.3943

                     40                     41                     42
                      A                      A                      A
 Frequencies --   1265.1995              1282.1629              1319.9150
 Red. masses --      1.3595                 1.2985                 1.2446
 Frc consts  --      1.2822                 1.2577                 1.2775
 IR Inten    --     18.9752                 6.5143                 2.6046

                     43                     44                     45
                      A                      A                      A
 Frequencies --   1332.5025              1335.1091              1356.6274
 Red. masses --      1.3859                 1.3102                 1.3451
 Frc consts  --      1.4499                 1.3760                 1.4586
 IR Inten    --      3.9348                 3.3371                 8.7035

                     46                     47                     48
                      A                      A                      A
 Frequencies --   1362.5285              1392.5618              1393.4640
 Red. masses --      1.3023                 1.3831                 1.3593
 Frc consts  --      1.4244                 1.5803                 1.5551
 IR Inten    --      8.4391                15.1642                 8.0985

                     49                     50                     51
                      A                      A                      A
 Frequencies --   1397.0260              1412.2194              1424.0047
 Red. masses --      1.3992                 1.3755                 1.3976
 Frc consts  --      1.6089                 1.6162                 1.6697
 IR Inten    --      6.0690                20.6666                17.6470

                     52                     53                     54
                      A                      A                      A
 Frequencies --   1440.9226              1500.3420              1508.8316
 Red. masses --      1.3557                 1.1157                 1.0897
 Frc consts  --      1.6584                 1.4797                 1.4617
 IR Inten    --      3.3403                 8.1145                 2.7549

                     55                     56                     57
                      A                      A                      A
 Frequencies --   1516.4297              1519.0233              1521.5065
 Red. masses --      1.0894                 1.0957                 1.0838
 Frc consts  --      1.4760                 1.4896                 1.4783
 IR Inten    --      4.3335                 2.7512                 0.6582

                     58                     59                     60
                      A                      A                      A
 Frequencies --   1534.7321              1547.0929              1854.8765
 Red. masses --      1.1008                 1.2415                 9.2947
 Frc consts  --      1.5277                 1.7508                18.8414
 IR Inten    --      3.8223                64.8774               326.9219

                     61                     62                     63
                      A                      A                      A
 Frequencies --   2967.8486              2974.6255              3010.8266
 Red. masses --      1.0718                 1.0716                 1.0713
 Frc consts  --      5.5622                 5.5869                 5.7216
 IR Inten    --     27.9652                73.6315                21.4062

                     64                     65                     66
                      A                      A                      A
 Frequencies --   3034.8324              3038.1630              3045.9662
 Red. masses --      1.0690                 1.0800                 1.0607
 Frc consts  --      5.8010                 5.8737                 5.7984
 IR Inten    --     36.4198                45.1967                39.5360

                     67                     68                     69
                      A                      A                      A
 Frequencies --   3087.1541              3089.1759              3098.8826
 Red. masses --      1.1024                 1.0794                 1.0927
 Frc consts  --      6.1900                 6.0690                 6.1823
 IR Inten    --     44.7106                 9.1946                35.6379

                     70                     71                     72
                      A                      A                      A
 Frequencies --   3099.5158              3108.5041              3114.0896
 Red. masses --      1.0803                 1.0921                 1.0916
 Frc consts  --      6.1147                 6.2177                 6.2371
 IR Inten    --     21.3907                57.8186                48.3286

                     73                     74                     75
                      A                      A                      A
 Frequencies --   3150.8411              3523.7118              3675.8662
 Red. masses --      1.1054                 1.0732                 1.0640
 Frc consts  --      6.4658                 7.8512                 8.4703
 IR Inten    --     12.2913                 5.0616                46.5869

 - Thermochemistry -
 -------------------
 Temperature   298.150 Kelvin.  Pressure   1.00000 Atm.
 Atom     1 has atomic number  6 and mass  12.00000

 Molecular mass:   173.10519 amu.
 Principal axes and moments of inertia in atomic units:
                           1         2         3
     Eigenvalues --   877.240404232.302744366.99121
           X            0.99989  -0.00059  -0.01456
           Y           -0.00021   0.99850  -0.05484
           Z            0.01457   0.05484   0.99839
 This molecule is an asymmetric top.
 Rotational symmetry number  1.
 Warning -- assumption of classical behavior for rotation
           may cause significant error
 Rotational temperatures (Kelvin)      0.09873     0.02046     0.01983
 Rotational constants (GHZ):           2.05729     0.42642     0.41327
 Zero-point vibrational energy     622690.1 (Joules/Mol)
                                  148.82651 (Kcal/Mol)
 Warning -- explicit consideration of  17 degrees of freedom as
           vibrations may cause significant error
 Vibrational temperatures:     42.39    53.76    64.54   178.84   198.82
          (Kelvin)            296.13   332.26   352.39   455.47   521.52
                              588.62   626.99   643.13   661.48   734.19
                              813.33   831.32   912.77  1023.68  1089.98
                             1161.28  1214.18  1249.42  1261.47  1277.64
                             1347.52  1378.43  1410.75  1443.82  1499.44
                             1514.95  1592.63  1617.78  1637.54  1641.81
                             1703.22  1735.36  1755.58  1793.45  1820.34
                             1844.75  1899.06  1917.17  1920.92  1951.88
                             1960.37  2003.59  2004.88  2010.01  2031.87
                             2048.83  2073.17  2158.66  2170.87  2181.80
                             2185.54  2189.11  2208.14  2225.92  2668.75
                             4270.07  4279.82  4331.91  4366.45  4371.24
                             4382.47  4441.73  4444.64  4458.60  4459.51
                             4472.44  4480.48  4533.36  5069.84  5288.75

 Zero-point correction=                           0.237170 (Hartree/Particle)
 Thermal correction to Energy=                    0.249106
 Thermal correction to Enthalpy=                  0.250050
 Thermal correction to Gibbs Free Energy=         0.197365
 Sum of electronic and zero-point Energies=           -594.107057
 Sum of electronic and thermal Energies=              -594.095121
 Sum of electronic and thermal Enthalpies=            -594.094177
 Sum of electronic and thermal Free Energies=         -594.146862

                     E (Thermal)             CV                S
                      KCal/Mol        Cal/Mol-Kelvin    Cal/Mol-Kelvin
 Total                  156.317             44.819            110.886
 Electronic               0.000              0.000              0.000
 Translational            0.889              2.981             41.354
 Rotational               0.889              2.981             31.162
 Vibrational            154.539             38.858             38.370
 Vibration     1          0.593              1.984              5.865
 Vibration     2          0.594              1.982              5.394
 Vibration     3          0.595              1.979              5.032
 Vibration     4          0.610              1.929              3.032
 Vibration     5          0.614              1.915              2.829
 Vibration     6          0.640              1.832              2.080
 Vibration     7          0.653              1.794              1.872
 Vibration     8          0.660              1.771              1.767
 Vibration     9          0.703              1.642              1.328
 Vibration    10          0.736              1.550              1.111
 Vibration    11          0.773              1.450              0.930
 Vibration    12          0.796              1.392              0.840
 Vibration    13          0.806              1.368              0.805
 Vibration    14          0.818              1.339              0.767
 Vibration    15          0.865              1.227              0.633
 Vibration    16          0.921              1.106              0.513
 Vibration    17          0.934              1.079              0.489

                           ! Non-Optimized Parameters !
 Normal termination of Gaussian 16 at Wed Dec  9 17:26:34 2020.

 ----------------------------------------------------------------------
 # B3LYP/6-311++G(d,p) empiricaldispersion=gd3bj scf=xqc pop=npa geom=c
 heck
 ----------------------------------------------------------------------

 --------------------------------------
 CID_63363556_JID_2374_Energie_neutraal
 --------------------------------------
 Structure from the checkpoint file:  "JID_2374.chk"
 Charge =  0 Multiplicity = 1

 SCF Done:  E(RB3LYP) =  -594.529892422     A.U. after   13 cycles
 Normal termination of Gaussian 16 at Wed Dec  9 17:29:03 2020.

 ----------------------------------------------------------------------
 # B3LYP/6-311++G(d,p) empiricaldispersion=gd3bj scf=xqc pop=npa geom=c
 heck
 ----------------------------------------------------------------------

 ------------------------------------
 CID_63363556_JID_2374_Energie_kation
 ------------------------------------
 Structure from the checkpoint file:  "JID_2374.chk"
 Charge =  1 Multiplicity = 2

 SCF Done:  E(UB3LYP) =  -594.230282496     A.U. after   19 cycles
 Normal termination of Gaussian 16 at Wed Dec  9 17:33:28 2020.
 Gaussian 16:  ES64L-G16RevA.03 25-Dec-2016

 ----------------------------------------------------------------------
 # B3LYP/6-311++G(d,p) empiricaldispersion=gd3bj scf=xqc pop=npa geom=c
 heck
 ----------------------------------------------------------------------

 -----------------------------------
 CID_63363556_JID_2374_Energie_anion
 -----------------------------------
 Structure from the checkpoint file:  "JID_2374.chk"
 Charge = -1 Multiplicity = 2

                         Standard orientation:
 ---------------------------------------------------------------------
 Center     Atomic      Atomic             Coordinates (Angstroms)
 Number     Number       Type             X           Y           Z
 ---------------------------------------------------------------------
      1          6           0        3.377807   -0.501484   -0.556254
      2          6           0        1.977837   -1.034278   -0.882529
      3          6           0        0.988229   -0.731270    0.250584
      4          6           0        1.078862    0.766442    0.611706
      5          8           0        2.405091    1.166331    0.927003
      6          6           0        3.297636    0.971962   -0.161865
      7          7           0       -0.334820   -1.206695   -0.141467
      8          6           0       -1.393543   -1.221434    0.852415
      9          6           0       -2.233875    0.077033    1.042006
     10          6           0       -3.022419    0.417376   -0.196189
     11          8           0       -4.208283    0.247150   -0.363270
     12          8           0       -2.221724    0.920709   -1.183170
     13          1           0        3.806264   -1.066638    0.281244
     14          1           0        4.051272   -0.624861   -1.413777
     15          1           0        1.612724   -0.548204   -1.801014
     16          1           0        1.988344   -2.111773   -1.076924
     17          1           0        1.292926   -1.301562    1.139082
     18          1           0        0.679588    1.364907   -0.227062
     19          1           0        0.489221    0.994364    1.503623
     20          1           0        4.267097    1.354041    0.171231
     21          1           0        2.969983    1.575713   -1.027037
     22          1           0       -0.642180   -0.742859   -0.992589
     23          1           0       -2.097203   -2.028347    0.607324
     24          1           0       -0.948586   -1.478688    1.820004
     25          1           0       -2.954132   -0.076768    1.849958
     26          1           0       -1.585977    0.918482    1.298936
     27          1           0       -2.809480    1.079455   -1.946473
 ---------------------------------------------------------------------

 SCF Done:  E(UB3LYP) =  -594.516439596     A.U. after   33 cycles
 SCF Done:  E(UB3LYP) =  -594.516439596     a.u. after    1 cycles

 The electronic state is 2-A.
 Alpha  occ. eigenvalues --  -19.06693 -19.02575 -19.01493 -14.19759 -10.20365
 Alpha  occ. eigenvalues --  -10.11652 -10.11031 -10.10734 -10.09991 -10.08426
 Alpha  occ. eigenvalues --  -10.07121 -10.06817  -1.00688  -0.93986  -0.91916
 Alpha  occ. eigenvalues --   -0.81322  -0.70147  -0.67698  -0.64679  -0.56449
 Alpha  occ. eigenvalues --   -0.54742  -0.52595  -0.49186  -0.47402  -0.41497
 Alpha  occ. eigenvalues --   -0.39932  -0.38794  -0.38336  -0.37333  -0.36612
 Alpha  occ. eigenvalues --   -0.35287  -0.34613  -0.32176  -0.31487  -0.31212
 Alpha  occ. eigenvalues --   -0.29424  -0.28772  -0.28022  -0.27212  -0.25546
 Alpha  occ. eigenvalues --   -0.24320  -0.22874  -0.22687  -0.21160  -0.18241
 Alpha  occ. eigenvalues --   -0.16832  -0.12177   0.04530
 Alpha virt. eigenvalues --    0.06395   0.06744   0.08213   0.08871   0.09313
 Alpha virt. eigenvalues --    0.09548   0.09786   0.10491   0.11574   0.11821
 Alpha virt. eigenvalues --    0.12242   0.13071   0.13521   0.14176   0.15200

  Beta  occ. eigenvalues --  -19.06629 -19.02569 -19.01456 -14.19750 -10.20329
  Beta  occ. eigenvalues --  -10.11634 -10.11013 -10.10712 -10.09985 -10.08399
  Beta  occ. eigenvalues --  -10.07103 -10.06803  -1.00582  -0.93972  -0.91823
  Beta  occ. eigenvalues --   -0.81302  -0.70109  -0.67644  -0.64629  -0.56367
  Beta  occ. eigenvalues --   -0.54699  -0.52530  -0.49073  -0.47347  -0.41445
  Beta  occ. eigenvalues --   -0.39865  -0.38746  -0.38292  -0.37284  -0.36573
  Beta  occ. eigenvalues --   -0.35181  -0.34578  -0.32134  -0.31426  -0.31162
  Beta  occ. eigenvalues --   -0.29383  -0.28734  -0.27992  -0.27153  -0.25503
  Beta  occ. eigenvalues --   -0.24281  -0.22826  -0.22584  -0.21130  -0.18177
  Beta  occ. eigenvalues --   -0.16795  -0.12158
  Beta virt. eigenvalues --    0.06808   0.07442   0.07920   0.08572   0.09483
  Beta virt. eigenvalues --    0.09651   0.09943   0.10197   0.11005   0.11849
  Beta virt. eigenvalues --    0.12219   0.12518   0.13249   0.13775   0.14371

 Mulliken charges and spin densities:
               1          2
     1  C   -0.283370  -0.081990
     2  C    0.232744  -0.201413
     3  C   -1.036910   0.248062
     4  C    0.291130  -0.693784
     5  O   -0.151831   0.040708
     6  C    0.897043  -1.158526
     7  N    0.139965  -0.009262
     8  C    0.379727  -0.508960
     9  C    0.336003  -0.567509
    10  C    0.366153  -0.459453
    11  O   -0.313933   0.046337
    12  O   -0.206921   0.011030
    13  H    0.094532   0.037689
    14  H   -0.425366   0.587179
    15  H   -0.099113   0.234649
    16  H   -0.097331   0.285623
    17  H    0.082085   0.083765
    18  H    0.047049   0.148787
    19  H    0.096531   0.082632
    20  H   -0.214017   0.394006
    21  H   -0.100553   0.207149
    22  H    0.208591   0.022561
    23  H    0.141040   0.049815
    24  H   -0.353655   0.493471
    25  H   -0.466287   0.684504
    26  H   -0.122461   0.271310
    27  H   -0.440844   0.751618
 Sum of Mulliken charges =  -1.00000   1.00000

 Dipole moment (field-independent basis, Debye):
    X=              1.8799    Y=             -1.5818    Z=              2.1177  Tot=              3.2436
 Quadrupole moment (field-independent basis, Debye-Ang):
   XX=           -152.2055   YY=           -104.1124   ZZ=           -114.1298
   XY=              0.9520   XZ=              0.8659   YZ=              2.7508

 Summary of Natural Population Analysis:

                                       Natural Population
                Natural  -----------------------------------------------
    Atom  No    Charge         Core      Valence    Rydberg      Total
 -----------------------------------------------------------------------
      C    1   -0.20423      0.99963     2.19604    0.00856     3.20423
      C    2   -0.19284      0.99961     2.18267    0.01056     3.19284
      C    3   -0.01748      0.99958     2.00629    0.01161     3.01748
      C    4   -0.01727      0.99955     2.00626    0.01146     3.01727
      O    5   -0.30048      0.99989     3.29112    0.00947     4.30048
      C    6   -0.00958      0.99958     1.99641    0.01359     3.00958
      N    7   -0.34527      0.99973     2.83382    0.01172     3.84527
      C    8   -0.08121      0.99962     2.06955    0.01204     3.08121
      C    9   -0.24765      0.99957     2.23926    0.00882     3.24765
      C   10    0.40836      0.99971     1.56660    0.02533     2.59164
      O   11   -0.30393      0.99987     3.29782    0.00624     4.30393
      O   12   -0.35349      0.99988     3.34565    0.00796     4.35349
      H   13    0.09493      0.00000     0.40381    0.00126     0.40507
      H   14    0.10193      0.00000     0.39647    0.00160     0.39807
      H   15    0.09560      0.00000     0.40273    0.00167     0.40440
      H   16    0.10427      0.00000     0.39442    0.00131     0.39573
      H   17    0.08932      0.00000     0.40865    0.00203     0.41068
      H   18    0.08141      0.00000     0.41658    0.00201     0.41859
      H   19    0.08982      0.00000     0.40834    0.00184     0.41018
      H   20    0.09035      0.00000     0.40838    0.00128     0.40965
      H   21    0.07728      0.00000     0.42120    0.00152     0.42272
      H   22    0.18204      0.00000     0.31418    0.00379     0.31796
      H   23    0.09311      0.00000     0.40570    0.00119     0.40689
      H   24    0.09718      0.00000     0.40144    0.00138     0.40282
      H   25    0.11214      0.00000     0.38615    0.00171     0.38786
      H   26    0.10979      0.00000     0.38805    0.00217     0.39021
      H   27    0.24590      0.00000     0.23732    0.01678     0.25410
 =======================================================================
   * Total *    0.00000     11.99622    34.82490    0.17888    47.00000

 Normal termination of Gaussian 16 at Wed Dec  9 17:41:03 2020.
