 Gaussian 16, Revision A.03,

 -----------------------------------------------------------
 # opt freq B3LYP/6-31G(d) empiricaldispersion=gd3bj scf=xqc
 -----------------------------------------------------------

 -------------------------------
 CID_113435071_JID_8553_neutraal
 -------------------------------
 Symbolic Z-matrix:
 Charge =  0 Multiplicity = 1

 SCF Done:  E(RB3LYP) =  -1185.47509473     A.U. after   15 cycles
 SCF Done:  E(RB3LYP) =  -1185.48172567     A.U. after   13 cycles
 SCF Done:  E(RB3LYP) =  -1185.48176565     A.U. after   13 cycles
 SCF Done:  E(RB3LYP) =  -1185.48299117     A.U. after   12 cycles
 SCF Done:  E(RB3LYP) =  -1185.48316182     A.U. after   12 cycles
 SCF Done:  E(RB3LYP) =  -1185.48334655     A.U. after   11 cycles
 SCF Done:  E(RB3LYP) =  -1185.48349899     A.U. after   11 cycles
 SCF Done:  E(RB3LYP) =  -1185.48364177     A.U. after   12 cycles
 SCF Done:  E(RB3LYP) =  -1185.48378791     A.U. after   11 cycles
 SCF Done:  E(RB3LYP) =  -1185.48387661     A.U. after   11 cycles
 SCF Done:  E(RB3LYP) =  -1185.48535514     A.U. after   10 cycles
 SCF Done:  E(RB3LYP) =  -1185.48535715     A.U. after   10 cycles
 SCF Done:  E(RB3LYP) =  -1185.48535763     A.U. after    8 cycles
 SCF Done:  E(RB3LYP) =  -1185.48535783     A.U. after    8 cycles
 SCF Done:  E(RB3LYP) =  -1185.48535789     A.U. after    7 cycles
 Optimization completed.
    -- Stationary point found.
 Normal termination of Gaussian 16 at Fri Dec 11 21:28:28 2020.

 --------------------------------------------------------------------
 #N Geom=AllCheck Guess=TCheck SCRF=Check GenChk RB3LYP/6-31G(d) Freq
 --------------------------------------------------------------------

 Structure from the checkpoint file:  "JID_8553.chk"
 -------------------------------
 CID_113435071_JID_8553_neutraal
 -------------------------------
 Charge =  0 Multiplicity = 1

 SCF Done:  E(RB3LYP) =  -1185.48535789     A.U. after    1 cycles

  Exact polarizability: 211.028 -18.427 135.740   0.553   8.681 151.067
 Approx polarizability: 276.524 -31.382 201.640   6.107  25.078 274.662

                      1                      2                      3
                      A                      A                      A
 Frequencies --     20.6170                31.3715                39.6275
 Red. masses --      3.7044                 4.4217                 2.8361
 Frc consts  --      0.0009                 0.0026                 0.0026
 IR Inten    --      0.2895                 0.2424                 0.0180

                      4                      5                      6
                      A                      A                      A
 Frequencies --     50.7716                80.4869                89.5446
 Red. masses --      6.8379                 6.7742                 5.8535
 Frc consts  --      0.0104                 0.0259                 0.0277
 IR Inten    --      1.6462                 1.2514                 3.5492

                      7                      8                      9
                      A                      A                      A
 Frequencies --    112.5784               139.2256               169.6957
 Red. masses --      4.4844                 3.6350                 3.0109
 Frc consts  --      0.0335                 0.0415                 0.0511
 IR Inten    --      0.6071                 1.7121                 4.0181

                     10                     11                     12
                      A                      A                      A
 Frequencies --    193.3429               200.8001               207.6147
 Red. masses --      2.9502                 1.4684                 3.9405
 Frc consts  --      0.0650                 0.0349                 0.1001
 IR Inten    --      3.4145                70.8200                 6.2169

                     13                     14                     15
                      A                      A                      A
 Frequencies --    220.9746               234.1492               291.4647
 Red. masses --      1.6091                 1.8330                 2.1922
 Frc consts  --      0.0463                 0.0592                 0.1097
 IR Inten    --     32.4181                 9.7392                 2.9277

                     16                     17                     18
                      A                      A                      A
 Frequencies --    320.2176               325.5558               348.9411
 Red. masses --      2.6881                 3.2752                 4.2703
 Frc consts  --      0.1624                 0.2045                 0.3063
 IR Inten    --      4.6607                 1.9255                 3.2294

                     19                     20                     21
                      A                      A                      A
 Frequencies --    374.6611               386.8519               414.6520
 Red. masses --      3.8168                 2.3568                 2.4330
 Frc consts  --      0.3157                 0.2078                 0.2465
 IR Inten    --      1.1363                 0.3960                 3.4096

                     22                     23                     24
                      A                      A                      A
 Frequencies --    437.2542               475.1723               529.5674
 Red. masses --      4.7690                 2.9650                 3.7449
 Frc consts  --      0.5372                 0.3944                 0.6188
 IR Inten    --      2.4435                 5.2834                 2.0845

                     25                     26                     27
                      A                      A                      A
 Frequencies --    551.6738               554.8496               571.8547
 Red. masses --      3.1380                 3.5145                 4.8166
 Frc consts  --      0.5627                 0.6375                 0.9280
 IR Inten    --     26.2142                11.7253                18.3929

                     28                     29                     30
                      A                      A                      A
 Frequencies --    592.1000               629.4148               652.7960
 Red. masses --      3.4936                 3.0094                 2.3085
 Frc consts  --      0.7216                 0.7024                 0.5796
 IR Inten    --      1.4777                 8.4803                35.2545

                     31                     32                     33
                      A                      A                      A
 Frequencies --    685.1021               696.3919               754.8672
 Red. masses --      3.3549                 2.6499                 4.9682
 Frc consts  --      0.9278                 0.7572                 1.6680
 IR Inten    --     17.3455                 0.2968                26.3921

                     34                     35                     36
                      A                      A                      A
 Frequencies --    768.7224               797.3139               801.9827
 Red. masses --      5.1658                 2.7332                 1.2620
 Frc consts  --      1.7986                 1.0237                 0.4782
 IR Inten    --     15.7122                22.1736                 1.2626

                     37                     38                     39
                      A                      A                      A
 Frequencies --    823.9300               831.3692               880.0059
 Red. masses --      1.3772                 1.5606                 3.1049
 Frc consts  --      0.5509                 0.6355                 1.4167
 IR Inten    --     28.4857                 2.1948                 5.8918

                     40                     41                     42
                      A                      A                      A
 Frequencies --    895.5735               921.6866               956.0524
 Red. masses --      1.4311                 2.4577                 2.2134
 Frc consts  --      0.6763                 1.2301                 1.1920
 IR Inten    --      1.7268                18.1518                 4.5025

                     43                     44                     45
                      A                      A                      A
 Frequencies --    961.8532               999.7495              1028.0586
 Red. masses --      2.1156                 2.3027                 1.8499
 Frc consts  --      1.1532                 1.3560                 1.1520
 IR Inten    --      4.7762                 0.2898                 1.4849

                     46                     47                     48
                      A                      A                      A
 Frequencies --   1035.3715              1047.3744              1061.7628
 Red. masses --      2.1697                 2.1711                 1.8468
 Frc consts  --      1.3704                 1.4032                 1.2267
 IR Inten    --     18.8638                21.8431                64.5283

                     49                     50                     51
                      A                      A                      A
 Frequencies --   1083.9269              1097.7952              1101.0662
 Red. masses --      1.7995                 3.7552                 1.6114
 Frc consts  --      1.2456                 2.6664                 1.1510
 IR Inten    --      6.0082                33.2445                11.8551

                     52                     53                     54
                      A                      A                      A
 Frequencies --   1125.6021              1136.8169              1163.1684
 Red. masses --      2.8626                 2.7541                 3.5624
 Frc consts  --      2.1369                 2.0971                 2.8397
 IR Inten    --     16.3634                 8.5259                47.8367

                     55                     56                     57
                      A                      A                      A
 Frequencies --   1189.4474              1196.7129              1201.9914
 Red. masses --      2.2659                 3.0678                 2.3487
 Frc consts  --      1.8887                 2.5885                 1.9993
 IR Inten    --     61.4005                12.8457                44.8153

                     58                     59                     60
                      A                      A                      A
 Frequencies --   1229.7553              1247.1006              1272.8762
 Red. masses --      1.1451                 1.3963                 1.3631
 Frc consts  --      1.0203                 1.2795                 1.3013
 IR Inten    --      6.8952                 3.6758                 9.0494

                     61                     62                     63
                      A                      A                      A
 Frequencies --   1288.1894              1299.7173              1303.2200
 Red. masses --      1.1559                 1.4590                 1.3496
 Frc consts  --      1.1302                 1.4522                 1.3505
 IR Inten    --     33.7197                75.2808                14.9030

                     64                     65                     66
                      A                      A                      A
 Frequencies --   1334.5991              1343.1854              1361.7694
 Red. masses --      1.3664                 1.3323                 1.5606
 Frc consts  --      1.4340                 1.4162                 1.7051
 IR Inten    --     15.0195                17.3871                19.6047

                     67                     68                     69
                      A                      A                      A
 Frequencies --   1372.0119              1385.6694              1390.9640
 Red. masses --      1.5508                 2.4480                 2.3724
 Frc consts  --      1.7199                 2.7694                 2.7043
 IR Inten    --     34.5279               213.4742                88.8899

                     70                     71                     72
                      A                      A                      A
 Frequencies --   1403.5817              1408.6175              1437.7233
 Red. masses --      1.3043                 1.5656                 1.2252
 Frc consts  --      1.5139                 1.8303                 1.4921
 IR Inten    --     59.5764                10.6669                 2.7019

                     73                     74                     75
                      A                      A                      A
 Frequencies --   1448.4356              1470.4180              1493.4649
 Red. masses --      1.3521                 1.4387                 1.4631
 Frc consts  --      1.6713                 1.8327                 1.9227
 IR Inten    --      7.4244                 3.2828                31.9450

                     76                     77                     78
                      A                      A                      A
 Frequencies --   1501.0724              1512.4827              1517.0297
 Red. masses --      1.1025                 1.0707                 1.1054
 Frc consts  --      1.4636                 1.4431                 1.4989
 IR Inten    --     12.6554                 3.5741                 6.9339

                     79                     80                     81
                      A                      A                      A
 Frequencies --   1525.3321              1526.1329              1527.0055
 Red. masses --      1.8289                 1.0838                 1.3066
 Frc consts  --      2.5071                 1.4873                 1.7950
 IR Inten    --     39.0940                12.5140                17.3667

                     82                     83                     84
                      A                      A                      A
 Frequencies --   1535.9298              1537.7258              1548.6191
 Red. masses --      1.0994                 1.3384                 1.0926
 Frc consts  --      1.5281                 1.8647                 1.5438
 IR Inten    --      2.7025                37.6044                13.5667

                     85                     86                     87
                      A                      A                      A
 Frequencies --   1604.5742              1741.9548              2980.3831
 Red. masses --      5.6089                 7.4427                 1.0726
 Frc consts  --      8.5084                13.3062                 5.6133
 IR Inten    --     11.1550               319.8626                31.6452

                     88                     89                     90
                      A                      A                      A
 Frequencies --   2989.9128              3022.1661              3044.7470
 Red. masses --      1.0720                 1.0558                 1.0619
 Frc consts  --      5.6460                 5.6815                 5.8002
 IR Inten    --     61.2010                60.8805                31.3354

                     91                     92                     93
                      A                      A                      A
 Frequencies --   3054.6729              3054.9396              3066.3012
 Red. masses --      1.0589                 1.0791                 1.0607
 Frc consts  --      5.8216                 5.9335                 5.8761
 IR Inten    --     40.9327                69.8700                10.0470

                     94                     95                     96
                      A                      A                      A
 Frequencies --   3076.7243              3083.7225              3110.7050
 Red. masses --      1.0642                 1.1015                 1.0908
 Frc consts  --      5.9353                 6.1712                 6.2186
 IR Inten    --     18.5773                 8.4080                43.7141

                     97                     98                     99
                      A                      A                      A
 Frequencies --   3114.0560              3118.7195              3126.2278
 Red. masses --      1.0923                 1.1046                 1.1029
 Frc consts  --      6.2407                 6.3298                 6.3508
 IR Inten    --     30.5780                17.5036                43.7103

                    100                    101                    102
                      A                      A                      A
 Frequencies --   3130.4022              3132.8971              3211.0318
 Red. masses --      1.1037                 1.0998                 1.0909
 Frc consts  --      6.3723                 6.3603                 6.6270
 IR Inten    --     27.4692                13.3836                12.1731

                    103                    104                    105
                      A                      A                      A
 Frequencies --   3238.7801              3566.1280              3769.5018
 Red. masses --      1.0943                 1.0745                 1.0667
 Frc consts  --      6.7633                 8.0506                 8.9300
 IR Inten    --      6.7426                23.0059                26.0951

 - Thermochemistry -
 -------------------
 Temperature   298.150 Kelvin.  Pressure   1.00000 Atm.
 Atom     1 has atomic number  6 and mass  12.00000

 Molecular mass:   269.10857 amu.
 Principal axes and moments of inertia in atomic units:
                           1         2         3
     Eigenvalues --  2786.605208470.090619297.23301
           X            0.99986  -0.01635  -0.00242
           Y            0.01631   0.99973  -0.01658
           Z            0.00269   0.01654   0.99986
 This molecule is an asymmetric top.
 Rotational symmetry number  1.
 Warning -- assumption of classical behavior for rotation
           may cause significant error
 Rotational temperatures (Kelvin)      0.03108     0.01023     0.00932
 Rotational constants (GHZ):           0.64765     0.21307     0.19412
 Zero-point vibrational energy     819159.1 (Joules/Mol)
                                  195.78371 (Kcal/Mol)
 Warning -- explicit consideration of  28 degrees of freedom as
           vibrations may cause significant error
 Vibrational temperatures:     29.66    45.14    57.02    73.05   115.80
          (Kelvin)            128.83   161.98   200.31   244.15   278.18
                              288.91   298.71   317.93   336.89   419.35
                              460.72   468.40   502.05   539.05   556.59
                              596.59   629.11   683.67   761.93   793.74
                              798.30   822.77   851.90   905.59   939.23
                              985.71  1001.95  1086.09  1106.02  1147.16
                             1153.87  1185.45  1196.15  1266.13  1288.53
                             1326.10  1375.55  1383.89  1438.42  1479.15
                             1489.67  1506.94  1527.64  1559.53  1579.48
                             1584.19  1619.49  1635.63  1673.54  1711.35
                             1721.80  1729.40  1769.34  1794.30  1831.38
                             1853.42  1870.00  1875.04  1920.19  1932.54
                             1959.28  1974.02  1993.67  2001.29  2019.44
                             2026.69  2068.56  2083.98  2115.60  2148.76
                             2159.71  2176.13  2182.67  2194.61  2195.76
                             2197.02  2209.86  2212.44  2228.12  2308.62
                             2506.28  4288.11  4301.82  4348.22  4380.71
                             4394.99  4395.38  4411.72  4426.72  4436.79
                             4475.61  4480.43  4487.14  4497.94  4503.95
                             4507.54  4619.96  4659.88  5130.86  5423.47

 Zero-point correction=                           0.312001 (Hartree/Particle)
 Thermal correction to Energy=                    0.330292
 Thermal correction to Enthalpy=                  0.331236
 Thermal correction to Gibbs Free Energy=         0.263715
 Sum of electronic and zero-point Energies=          -1185.173357
 Sum of electronic and thermal Energies=             -1185.155066
 Sum of electronic and thermal Enthalpies=           -1185.154122
 Sum of electronic and thermal Free Energies=        -1185.221643

                     E (Thermal)             CV                S
                      KCal/Mol        Cal/Mol-Kelvin    Cal/Mol-Kelvin
 Total                  207.261             68.680            142.110
 Electronic               0.000              0.000              0.000
 Translational            0.889              2.981             42.669
 Rotational               0.889              2.981             33.750
 Vibrational            205.484             62.718             65.691
 Vibration     1          0.593              1.986              6.574
 Vibration     2          0.594              1.983              5.741
 Vibration     3          0.594              1.981              5.278
 Vibration     4          0.595              1.977              4.787
 Vibration     5          0.600              1.962              3.879
 Vibration     6          0.602              1.957              3.670
 Vibration     7          0.607              1.939              3.224
 Vibration     8          0.615              1.914              2.814
 Vibration     9          0.625              1.880              2.439
 Vibration    10          0.635              1.849              2.196
 Vibration    11          0.638              1.839              2.126
 Vibration    12          0.641              1.829              2.065
 Vibration    13          0.648              1.809              1.951
 Vibration    14          0.654              1.789              1.847
 Vibration    15          0.687              1.690              1.465
 Vibration    16          0.706              1.635              1.309
 Vibration    17          0.710              1.624              1.282
 Vibration    18          0.726              1.577              1.171
 Vibration    19          0.746              1.524              1.061
 Vibration    20          0.755              1.498              1.012
 Vibration    21          0.778              1.438              0.910
 Vibration    22          0.798              1.389              0.835
 Vibration    23          0.832              1.305              0.723
 Vibration    24          0.885              1.185              0.588
 Vibration    25          0.907              1.136              0.541
 Vibration    26          0.910              1.129              0.534
 Vibration    27          0.928              1.092              0.501
 Vibration    28          0.950              1.049              0.463

 Optimization completed.
    -- Stationary point found.
 Normal termination of Gaussian 16 at Fri Dec 11 21:45:10 2020.

 ----------------------------------------------------------------------
 # B3LYP/6-311++G(d,p) empiricaldispersion=gd3bj scf=xqc pop=npa geom=c
 heck
 ----------------------------------------------------------------------

 ---------------------------------------
 CID_113435071_JID_8553_Energie_neutraal
 ---------------------------------------
 Structure from the checkpoint file:  "JID_8553.chk"
 Charge =  0 Multiplicity = 1

 SCF Done:  E(RB3LYP) =  -1185.74692764     A.U. after   16 cycles
 Normal termination of Gaussian 16 at Fri Dec 11 21:52:20 2020.

 ----------------------------------------------------------------------
 # B3LYP/6-311++G(d,p) empiricaldispersion=gd3bj scf=xqc pop=npa geom=c
 heck
 ----------------------------------------------------------------------

 -------------------------------------
 CID_113435071_JID_8553_Energie_kation
 -------------------------------------
 Structure from the checkpoint file:  "JID_8553.chk"
 Charge =  1 Multiplicity = 2

 SCF Done:  E(UB3LYP) =  -1185.44800727     A.U. after   30 cycles
 Normal termination of Gaussian 16 at Fri Dec 11 22:10:38 2020.
 Gaussian 16:  ES64L-G16RevA.03 25-Dec-2016

 ----------------------------------------------------------------------
 # B3LYP/6-311++G(d,p) empiricaldispersion=gd3bj scf=xqc pop=npa geom=c
 heck
 ----------------------------------------------------------------------

 ------------------------------------
 CID_113435071_JID_8553_Energie_anion
 ------------------------------------
 Structure from the checkpoint file:  "JID_8553.chk"
 Charge = -1 Multiplicity = 2

                         Standard orientation:
 ---------------------------------------------------------------------
 Center     Atomic      Atomic             Coordinates (Angstroms)
 Number     Number       Type             X           Y           Z
 ---------------------------------------------------------------------
      1          6           0       -4.796595    1.985775   -0.201738
      2          6           0       -4.750190    0.605157    0.473523
      3          6           0       -3.374623    0.004634    0.503611
      4          6           0       -2.566541   -0.202713    1.594898
      5          6           0       -1.296379   -0.750783    1.259851
      6          6           0       -1.135898   -0.952084   -0.089214
      7         16           0       -2.577870   -0.504269   -0.961729
      8          6           0       -0.029523   -1.595934   -0.831530
      9          8           0       -0.266325   -2.341637   -1.779857
     10          7           0        1.260346   -1.419849   -0.373972
     11          6           0        1.984438   -0.215711    0.098621
     12          6           0        1.153187    1.080834    0.017185
     13          6           0        2.020466    2.338187    0.157448
     14          8           0        3.084227    2.381629   -0.776894
     15          6           0        3.945560    1.262655   -0.626501
     16          6           0        3.197234   -0.048498   -0.851889
     17          6           0        2.455335   -0.471190    1.539693
     18          8           0        3.347102   -1.577612    1.524364
     19          1           0       -4.130302    2.688855    0.308950
     20          1           0       -5.812923    2.393680   -0.179871
     21          1           0       -4.478096    1.922448   -1.247577
     22          1           0       -5.102039    0.687707    1.508633
     23          1           0       -5.445485   -0.073100   -0.037805
     24          1           0       -2.880181    0.025481    2.608426
     25          1           0       -0.537594   -1.013913    1.986807
     26          1           0        1.873663   -2.068310   -0.856206
     27          1           0        0.652557    1.108851   -0.956688
     28          1           0        0.369906    1.106975    0.778562
     29          1           0        1.410382    3.225830   -0.032541
     30          1           0        2.418998    2.423884    1.182739
     31          1           0        4.419176    1.278598    0.369503
     32          1           0        4.736130    1.382911   -1.372366
     33          1           0        3.879670   -0.895469   -0.726925
     34          1           0        2.819396   -0.058906   -1.880504
     35          1           0        2.949114    0.422798    1.946513
     36          1           0        1.572640   -0.676763    2.160573
     37          1           0        3.549627   -1.815325    2.440585
 ---------------------------------------------------------------------

 SCF Done:  E(UB3LYP) =  -1185.74970973     A.U. after   33 cycles
 SCF Done:  E(UB3LYP) =  -1185.74970973     a.u. after    1 cycles

 The electronic state is 2-A.
 Alpha  occ. eigenvalues --  -88.74413 -19.03868 -19.02649 -18.95641 -14.20932
 Alpha  occ. eigenvalues --  -10.14289 -10.13032 -10.13021 -10.12696 -10.11896
 Alpha  occ. eigenvalues --  -10.07960 -10.07716 -10.07700 -10.07473 -10.06859
 Alpha  occ. eigenvalues --  -10.06793 -10.05513 -10.05155  -7.83063  -5.79352
 Alpha  occ. eigenvalues --   -5.78992  -5.78672  -0.95509  -0.92930  -0.90962
 Alpha  occ. eigenvalues --   -0.80655  -0.76042  -0.70017  -0.68211  -0.67863
 Alpha  occ. eigenvalues --   -0.61510  -0.60828  -0.60219  -0.55989  -0.54120
 Alpha  occ. eigenvalues --   -0.53163  -0.48956  -0.46203  -0.43727  -0.42259
 Alpha  occ. eigenvalues --   -0.42118  -0.41172  -0.39193  -0.37929  -0.37442
 Alpha  occ. eigenvalues --   -0.36366  -0.36034  -0.35339  -0.33027  -0.32639
 Alpha  occ. eigenvalues --   -0.32314  -0.31411  -0.29936  -0.29060  -0.28750
 Alpha  occ. eigenvalues --   -0.27983  -0.27670  -0.27176  -0.26871  -0.25192
 Alpha  occ. eigenvalues --   -0.24956  -0.24264  -0.23259  -0.23082  -0.22344
 Alpha  occ. eigenvalues --   -0.21744  -0.18328  -0.17661  -0.14619  -0.13670
 Alpha  occ. eigenvalues --   -0.12833  -0.11342   0.03694
 Alpha virt. eigenvalues --    0.05481   0.06616   0.07409   0.08080   0.08496
 Alpha virt. eigenvalues --    0.08760   0.09640   0.10206   0.10682   0.10904
 Alpha virt. eigenvalues --    0.11355   0.11735   0.12620   0.12742   0.12972

  Beta  occ. eigenvalues --  -88.74374 -19.03868 -19.02601 -18.95468 -14.20930
  Beta  occ. eigenvalues --  -10.14155 -10.13025 -10.13020 -10.12691 -10.11878
  Beta  occ. eigenvalues --  -10.07970 -10.07714 -10.07469 -10.07468 -10.06825
  Beta  occ. eigenvalues --  -10.06654 -10.05564 -10.05043  -7.83027  -5.79331
  Beta  occ. eigenvalues --   -5.78973  -5.78549  -0.95507  -0.92825  -0.90659
  Beta  occ. eigenvalues --   -0.80562  -0.75801  -0.69959  -0.68099  -0.67812
  Beta  occ. eigenvalues --   -0.61306  -0.60592  -0.60109  -0.55935  -0.54030
  Beta  occ. eigenvalues --   -0.53058  -0.48746  -0.46129  -0.43653  -0.42106
  Beta  occ. eigenvalues --   -0.42039  -0.40996  -0.39146  -0.37836  -0.37417
  Beta  occ. eigenvalues --   -0.36296  -0.36000  -0.35247  -0.32919  -0.32534
  Beta  occ. eigenvalues --   -0.32202  -0.31335  -0.29880  -0.28736  -0.28401
  Beta  occ. eigenvalues --   -0.27935  -0.27554  -0.26926  -0.26838  -0.25038
  Beta  occ. eigenvalues --   -0.24842  -0.24197  -0.23096  -0.22781  -0.22232
  Beta  occ. eigenvalues --   -0.21556  -0.18278  -0.17627  -0.14367  -0.13225
  Beta  occ. eigenvalues --   -0.12371  -0.10300
  Beta virt. eigenvalues --    0.06246   0.06530   0.07534   0.07760   0.08481
  Beta virt. eigenvalues --    0.08581   0.08935   0.09740   0.10343   0.10721
  Beta virt. eigenvalues --    0.10857   0.11464   0.11781   0.12646   0.12805

 Mulliken charges and spin densities:
               1          2
     1  C   -0.169112  -0.388022
     2  C   -0.664949   0.015590
     3  C    0.326920   0.173680
     4  C   -0.332852  -0.009114
     5  C    0.141872  -0.088814
     6  C    0.461389  -0.091084
     7  S   -0.239643   0.217848
     8  C   -0.033176  -0.053148
     9  O   -0.348322   0.063311
    10  N    0.145754   0.027781
    11  C   -0.931933   0.199002
    12  C   -0.106161   0.129378
    13  C   -0.542521  -0.084941
    14  O   -0.101670   0.005940
    15  C   -0.278155  -0.185612
    16  C   -0.303941   0.182347
    17  C    0.767256  -0.998770
    18  O   -0.291783   0.067098
    19  H    0.094780   0.039442
    20  H   -0.105156   0.225504
    21  H    0.133308   0.002037
    22  H    0.031285   0.110435
    23  H   -0.028507   0.189302
    24  H    0.028212   0.108859
    25  H   -0.004001   0.138747
    26  H    0.299199   0.002016
    27  H    0.221292  -0.002582
    28  H    0.231117  -0.021935
    29  H    0.180360   0.003718
    30  H    0.151124   0.011712
    31  H    0.031585   0.105467
    32  H    0.141550   0.054996
    33  H    0.160196   0.008071
    34  H    0.185091   0.010270
    35  H   -0.129035   0.258719
    36  H    0.065680   0.108723
    37  H   -0.187050   0.464029
 Sum of Mulliken charges =  -1.00000   1.00000

 Dipole moment (field-independent basis, Debye):
    X=              1.5209    Y=              5.0179    Z=              0.0789  Tot=              5.2439
 Quadrupole moment (field-independent basis, Debye-Ang):
   XX=           -183.0795   YY=           -153.9453   ZZ=           -146.7392
   XY=              2.6545   XZ=            -12.6505   YZ=              1.5708

 Summary of Natural Population Analysis:

                                       Natural Population
                Natural  -----------------------------------------------
    Atom  No    Charge         Core      Valence    Rydberg      Total
 -----------------------------------------------------------------------
      C    1   -0.28054      0.99966     2.27492    0.00596     3.28054
      C    2   -0.20708      0.99959     2.19784    0.00965     3.20708
      C    3   -0.05544      0.99950     2.04312    0.01282     3.05544
      C    4   -0.15157      0.99946     2.14224    0.00986     3.15157
      C    5   -0.10167      0.99949     2.09188    0.01031     3.10167
      C    6   -0.12511      0.99944     2.11196    0.01370     3.12511
      S    7    0.22756      4.99937     2.75366    0.01941     7.77244
      C    8    0.34253      0.99952     1.63448    0.02347     2.65747
      O    9   -0.30674      0.99988     3.30222    0.00464     4.30674
      N   10   -0.32818      0.99965     2.81639    0.01213     3.82818
      C   11    0.05863      0.99954     1.92635    0.01548     2.94137
      C   12   -0.21535      0.99958     2.20639    0.00938     3.21535
      C   13   -0.00682      0.99958     1.99624    0.01099     3.00682
      O   14   -0.30093      0.99989     3.29238    0.00866     4.30093
      C   15   -0.01279      0.99958     1.99967    0.01354     3.01279
      C   16   -0.21147      0.99958     2.20221    0.00968     3.21147
      C   17   -0.01158      0.99950     1.99879    0.01329     3.01158
      O   18   -0.37315      0.99989     3.36662    0.00664     4.37315
      H   19    0.09694      0.00000     0.40213    0.00093     0.40306
      H   20    0.09382      0.00000     0.40492    0.00126     0.40618
      H   21    0.09880      0.00000     0.40040    0.00080     0.40120
      H   22    0.10006      0.00000     0.39878    0.00116     0.39994
      H   23    0.10266      0.00000     0.39601    0.00133     0.39734
      H   24    0.10011      0.00000     0.39893    0.00096     0.39989
      H   25    0.10257      0.00000     0.39564    0.00179     0.39743
      H   26    0.19056      0.00000     0.30726    0.00218     0.30944
      H   27    0.11013      0.00000     0.38891    0.00096     0.38987
      H   28    0.11615      0.00000     0.38272    0.00113     0.38385
      H   29    0.09130      0.00000     0.40777    0.00093     0.40870
      H   30    0.07491      0.00000     0.42375    0.00135     0.42509
      H   31    0.07924      0.00000     0.41948    0.00128     0.42076
      H   32    0.09022      0.00000     0.40880    0.00098     0.40978
      H   33    0.11258      0.00000     0.38630    0.00112     0.38742
      H   34    0.10357      0.00000     0.39540    0.00103     0.39643
      H   35    0.07541      0.00000     0.42274    0.00185     0.42459
      H   36    0.08527      0.00000     0.41299    0.00174     0.41473
      H   37    0.23543      0.00000     0.25534    0.00924     0.26457
 =======================================================================
   * Total *    0.00005     21.99272    49.76559    0.24163    71.99995

 Normal termination of Gaussian 16 at Fri Dec 11 22:30:31 2020.
