 Gaussian 16, Revision A.03,

 -----------------------------------------------------------
 # opt freq B3LYP/6-31G(d) empiricaldispersion=gd3bj scf=xqc
 -----------------------------------------------------------

 ------------------------------
 CID_61908437_JID_1635_neutraal
 ------------------------------
 Symbolic Z-matrix:
 Charge =  0 Multiplicity = 1

 SCF Done:  E(RB3LYP) =  -499.059862768     A.U. after   15 cycles
 SCF Done:  E(RB3LYP) =  -499.098785162     A.U. after   14 cycles
 SCF Done:  E(RB3LYP) =  -499.141665667     A.U. after   13 cycles
 SCF Done:  E(RB3LYP) =  -499.176761739     A.U. after   13 cycles
 SCF Done:  E(RB3LYP) =  -499.192185181     A.U. after   14 cycles
 SCF Done:  E(RB3LYP) =  -499.197497521     A.U. after   14 cycles
 SCF Done:  E(RB3LYP) =  -499.201271825     A.U. after   12 cycles
 SCF Done:  E(RB3LYP) =  -499.204701608     A.U. after   12 cycles
 SCF Done:  E(RB3LYP) =  -499.208563440     A.U. after   13 cycles
 SCF Done:  E(RB3LYP) =  -499.211119154     A.U. after   12 cycles
 SCF Done:  E(RB3LYP) =  -499.212973407     A.U. after   10 cycles
 SCF Done:  E(RB3LYP) =  -499.212992513     A.U. after   10 cycles
 SCF Done:  E(RB3LYP) =  -499.212998688     A.U. after   10 cycles
 SCF Done:  E(RB3LYP) =  -499.212999775     A.U. after    9 cycles
 SCF Done:  E(RB3LYP) =  -499.213000461     A.U. after   10 cycles
 SCF Done:  E(RB3LYP) =  -499.213000529     A.U. after    8 cycles
 Optimization completed.
    -- Stationary point found.
 Normal termination of Gaussian 16 at Tue Dec  8 20:43:56 2020.

 --------------------------------------------------------------------
 #N Geom=AllCheck Guess=TCheck SCRF=Check GenChk RB3LYP/6-31G(d) Freq
 --------------------------------------------------------------------

 Structure from the checkpoint file:  "JID_1635.chk"
 ------------------------------
 CID_61908437_JID_1635_neutraal
 ------------------------------
 Charge =  0 Multiplicity = 1

 SCF Done:  E(RB3LYP) =  -499.213000529     A.U. after    1 cycles

  Exact polarizability: 104.981   2.406 101.068  -1.825  -2.987  82.544
 Approx polarizability: 130.924  11.346 150.135  -2.066  -7.697 122.272

                      1                      2                      3
                      A                      A                      A
 Frequencies --     27.7334                48.0359                76.5088
 Red. masses --      3.4333                 4.3946                 3.1000
 Frc consts  --      0.0016                 0.0060                 0.0107
 IR Inten    --      0.7288                 2.2333                 3.2075

                      4                      5                      6
                      A                      A                      A
 Frequencies --    107.1940               150.3023               168.9431
 Red. masses --      3.0168                 3.0090                 1.8986
 Frc consts  --      0.0204                 0.0401                 0.0319
 IR Inten    --      1.1524                 3.4577                 2.7513

                      7                      8                      9
                      A                      A                      A
 Frequencies --    190.2884               229.7023               243.5026
 Red. masses --      2.6355                 2.5991                 1.3597
 Frc consts  --      0.0562                 0.0808                 0.0475
 IR Inten    --      0.8377                 1.6403                 0.4553

                     10                     11                     12
                      A                      A                      A
 Frequencies --    264.4611               303.4764               309.5438
 Red. masses --      1.6274                 1.9762                 1.2253
 Frc consts  --      0.0671                 0.1072                 0.0692
 IR Inten    --      4.1056                 4.6540                35.9664

                     13                     14                     15
                      A                      A                      A
 Frequencies --    317.6728               379.6754               404.7315
 Red. masses --      2.0188                 2.0780                 2.6644
 Frc consts  --      0.1200                 0.1765                 0.2571
 IR Inten    --      8.6283                 1.0727                 8.4615

                     16                     17                     18
                      A                      A                      A
 Frequencies --    447.8645               465.1181               482.8338
 Red. masses --      2.5234                 2.7295                 1.9994
 Frc consts  --      0.2982                 0.3479                 0.2746
 IR Inten    --      6.0685                 4.8183                 3.9678

                     19                     20                     21
                      A                      A                      A
 Frequencies --    573.3222               589.9585               704.0599
 Red. masses --      5.9659                 5.7772                 3.7528
 Frc consts  --      1.1554                 1.1847                 1.0960
 IR Inten    --      4.8548                 2.3959                 1.8654

                     22                     23                     24
                      A                      A                      A
 Frequencies --    803.5514               819.7351               842.2228
 Red. masses --      1.7553                 1.5092                 1.8641
 Frc consts  --      0.6678                 0.5975                 0.7791
 IR Inten    --     10.1671                 4.3056                96.8363

                     25                     26                     27
                      A                      A                      A
 Frequencies --    867.7371               897.7500               915.5837
 Red. masses --      1.6266                 2.1040                 2.0564
 Frc consts  --      0.7216                 0.9991                 1.0157
 IR Inten    --     51.8342                23.2791                30.0119

                     28                     29                     30
                      A                      A                      A
 Frequencies --    947.2618               992.1625              1013.9300
 Red. masses --      1.9767                 1.9955                 1.9931
 Frc consts  --      1.0451                 1.1573                 1.2073
 IR Inten    --     21.9139                 2.2096                22.6269

                     31                     32                     33
                      A                      A                      A
 Frequencies --   1047.8494              1077.5146              1089.4719
 Red. masses --      1.9373                 2.0120                 2.6594
 Frc consts  --      1.2533                 1.3763                 1.8598
 IR Inten    --      5.6222                25.5708                22.3960

                     34                     35                     36
                      A                      A                      A
 Frequencies --   1110.1461              1155.8432              1187.8688
 Red. masses --      1.9248                 2.3701                 2.3074
 Frc consts  --      1.3977                 1.8656                 1.9182
 IR Inten    --      5.6149                75.2100                43.8713

                     37                     38                     39
                      A                      A                      A
 Frequencies --   1196.7434              1213.5939              1243.3009
 Red. masses --      2.5527                 1.7809                 1.1594
 Frc consts  --      2.1540                 1.5454                 1.0560
 IR Inten    --     37.6144                23.6191                 4.8836

                     40                     41                     42
                      A                      A                      A
 Frequencies --   1304.8418              1337.5855              1350.5180
 Red. masses --      1.4385                 1.1939                 1.6257
 Frc consts  --      1.4430                 1.2586                 1.7470
 IR Inten    --      7.9370                19.9827                 3.0355

                     43                     44                     45
                      A                      A                      A
 Frequencies --   1357.5014              1377.2784              1411.4052
 Red. masses --      1.1538                 1.3420                 1.2409
 Frc consts  --      1.2527                 1.4999                 1.4565
 IR Inten    --      2.8070                 0.1350                10.1930

                     46                     47                     48
                      A                      A                      A
 Frequencies --   1412.1392              1434.2284              1438.0871
 Red. masses --      1.3949                 1.2416                 1.2517
 Frc consts  --      1.6388                 1.5048                 1.5252
 IR Inten    --      2.8654                20.7730                 1.9300

                     49                     50                     51
                      A                      A                      A
 Frequencies --   1444.0704              1506.3957              1511.6495
 Red. masses --      1.3135                 1.0700                 1.0711
 Frc consts  --      1.6138                 1.4306                 1.4421
 IR Inten    --     16.2880                 6.1520                 2.0415

                     52                     53                     54
                      A                      A                      A
 Frequencies --   1514.6332              1519.8098              1527.0164
 Red. masses --      1.0598                 1.0521                 1.0522
 Frc consts  --      1.4325                 1.4318                 1.4456
 IR Inten    --      3.3856                 2.8842                 0.1714

                     55                     56                     57
                      A                      A                      A
 Frequencies --   1532.4659              1539.4950              1547.4006
 Red. masses --      1.0603                 1.0785                 1.0868
 Frc consts  --      1.4672                 1.5060                 1.5333
 IR Inten    --      6.4558                 4.4683                 1.1520

                     58                     59                     60
                      A                      A                      A
 Frequencies --   1689.3046              2366.3941              3015.8895
 Red. masses --      1.0918                12.6963                 1.0685
 Frc consts  --      1.8357                41.8891                 5.7263
 IR Inten    --     25.2853                 3.6368                75.3229

                     61                     62                     63
                      A                      A                      A
 Frequencies --   3021.6888              3052.0985              3056.5533
 Red. masses --      1.0694                 1.0644                 1.0376
 Frc consts  --      5.7530                 5.8421                 5.7113
 IR Inten    --     14.1363                10.0200                16.3818

                     64                     65                     66
                      A                      A                      A
 Frequencies --   3060.8792              3072.0235              3094.3247
 Red. masses --      1.0619                 1.0384                 1.0964
 Frc consts  --      5.8616                 5.7741                 6.1853
 IR Inten    --     15.3773                13.5564                30.8053

                     67                     68                     69
                      A                      A                      A
 Frequencies --   3096.1980              3098.9199              3107.2151
 Red. masses --      1.0947                 1.0953                 1.0999
 Frc consts  --      6.1829                 6.1972                 6.2566
 IR Inten    --      6.7156                37.5369                40.5569

                     70                     71                     72
                      A                      A                      A
 Frequencies --   3123.1109              3133.5282              3141.2478
 Red. masses --      1.1003                 1.1036                 1.1008
 Frc consts  --      6.3230                 6.3848                 6.3999
 IR Inten    --     57.9994                31.2821                21.6304

                     73                     74                     75
                      A                      A                      A
 Frequencies --   3163.0823              3472.9344              3566.6659
 Red. masses --      1.1042                 1.0489                 1.0934
 Frc consts  --      6.5091                 7.4535                 8.1952
 IR Inten    --     10.4626                 1.0244                 0.2110

 - Thermochemistry -
 -------------------
 Temperature   298.150 Kelvin.  Pressure   1.00000 Atm.
 Atom     1 has atomic number  6 and mass  12.00000

 Molecular mass:   156.12626 amu.
 Principal axes and moments of inertia in atomic units:
                           1         2         3
     Eigenvalues --  1079.209223058.000893565.23484
           X            0.99872  -0.05055  -0.00312
           Y            0.05060   0.99858   0.01673
           Z            0.00227  -0.01686   0.99986
 This molecule is an asymmetric top.
 Rotational symmetry number  1.
 Warning -- assumption of classical behavior for rotation
           may cause significant error
 Rotational temperatures (Kelvin)      0.08026     0.02832     0.02429
 Rotational constants (GHZ):           1.67228     0.59017     0.50621
 Zero-point vibrational energy     629868.4 (Joules/Mol)
                                  150.54216 (Kcal/Mol)
 Warning -- explicit consideration of  20 degrees of freedom as
           vibrations may cause significant error
 Vibrational temperatures:     39.90    69.11   110.08   154.23   216.25
          (Kelvin)            243.07   273.78   330.49   350.35   380.50
                              436.63   445.36   457.06   546.27   582.32
                              644.38   669.20   694.69   824.88   848.82
                             1012.99  1156.13  1179.42  1211.77  1248.48
                             1291.66  1317.32  1362.90  1427.50  1458.82
                             1507.62  1550.30  1567.51  1597.25  1663.00
                             1709.08  1721.85  1746.09  1788.83  1877.38
                             1924.49  1943.09  1953.14  1981.60  2030.70
                             2031.75  2063.53  2069.09  2077.70  2167.37
                             2174.93  2179.22  2186.67  2197.04  2204.88
                             2214.99  2226.36  2430.53  3404.71  4339.19
                             4347.54  4391.29  4397.70  4403.92  4419.96
                             4452.04  4454.74  4458.65  4470.59  4493.46
                             4508.45  4519.55  4550.97  4996.78  5131.64

 Zero-point correction=                           0.239904 (Hartree/Particle)
 Thermal correction to Energy=                    0.253142
 Thermal correction to Enthalpy=                  0.254086
 Thermal correction to Gibbs Free Energy=         0.199751
 Sum of electronic and zero-point Energies=           -498.973096
 Sum of electronic and thermal Energies=              -498.959858
 Sum of electronic and thermal Enthalpies=            -498.958914
 Sum of electronic and thermal Free Energies=         -499.013250

                     E (Thermal)             CV                S
                      KCal/Mol        Cal/Mol-Kelvin    Cal/Mol-Kelvin
 Total                  158.849             48.148            114.359
 Electronic               0.000              0.000              0.000
 Translational            0.889              2.981             41.046
 Rotational               0.889              2.981             30.843
 Vibrational            157.072             42.187             42.470
 Vibration     1          0.593              1.984              5.985
 Vibration     2          0.595              1.978              4.897
 Vibration     3          0.599              1.965              3.978
 Vibration     4          0.606              1.943              3.319
 Vibration     5          0.618              1.902              2.668
 Vibration     6          0.625              1.881              2.447
 Vibration     7          0.634              1.853              2.225
 Vibration     8          0.652              1.796              1.881
 Vibration     9          0.659              1.774              1.777
 Vibration    10          0.671              1.738              1.632
 Vibration    11          0.695              1.667              1.398
 Vibration    12          0.699              1.656              1.365
 Vibration    13          0.704              1.640              1.322
 Vibration    14          0.750              1.513              1.040
 Vibration    15          0.770              1.460              0.945
 Vibration    16          0.807              1.366              0.802
 Vibration    17          0.823              1.327              0.751
 Vibration    18          0.839              1.288              0.702
 Vibration    19          0.930              1.089              0.498
 Vibration    20          0.947              1.053              0.467

 Optimization completed.
    -- Stationary point found.
 Normal termination of Gaussian 16 at Tue Dec  8 20:50:34 2020.

 ----------------------------------------------------------------------
 # B3LYP/6-311++G(d,p) empiricaldispersion=gd3bj scf=xqc pop=npa geom=c
 heck
 ----------------------------------------------------------------------

 --------------------------------------
 CID_61908437_JID_1635_Energie_neutraal
 --------------------------------------
 Structure from the checkpoint file:  "JID_1635.chk"
 Charge =  0 Multiplicity = 1

 SCF Done:  E(RB3LYP) =  -499.365764900     A.U. after   14 cycles
 Normal termination of Gaussian 16 at Tue Dec  8 20:54:50 2020.

 ----------------------------------------------------------------------
 # B3LYP/6-311++G(d,p) empiricaldispersion=gd3bj scf=xqc pop=npa geom=c
 heck
 ----------------------------------------------------------------------

 ------------------------------------
 CID_61908437_JID_1635_Energie_kation
 ------------------------------------
 Structure from the checkpoint file:  "JID_1635.chk"
 Charge =  1 Multiplicity = 2

 SCF Done:  E(UB3LYP) =  -499.025940974     A.U. after   22 cycles
 Normal termination of Gaussian 16 at Tue Dec  8 21:01:48 2020.
 Gaussian 16:  ES64L-G16RevA.03 25-Dec-2016

 ----------------------------------------------------------------------
 # B3LYP/6-311++G(d,p) empiricaldispersion=gd3bj scf=xqc pop=npa geom=c
 heck
 ----------------------------------------------------------------------

 -----------------------------------
 CID_61908437_JID_1635_Energie_anion
 -----------------------------------
 Structure from the checkpoint file:  "JID_1635.chk"
 Charge = -1 Multiplicity = 2

                         Standard orientation:
 ---------------------------------------------------------------------
 Center     Atomic      Atomic             Coordinates (Angstroms)
 Number     Number       Type             X           Y           Z
 ---------------------------------------------------------------------
      1          6           0       -2.680571    1.710626    0.442781
      2          6           0       -2.878064    0.599849   -0.586126
      3          8           0       -2.837515   -0.712553   -0.039101
      4          6           0       -1.596108   -1.148464    0.490024
      5          6           0       -0.488366   -1.344450   -0.564479
      6          6           0        0.457330   -0.148199   -0.789665
      7          6           0        1.741119   -0.156188    0.097826
      8          6           0        2.703446   -1.290685   -0.301183
      9          6           0        2.428015    1.134094   -0.140599
     10          7           0        2.931512    2.156547   -0.358095
     11          7           0        1.503878   -0.253370    1.546952
     12          1           0       -2.855573    2.686686   -0.023056
     13          1           0       -1.666201    1.724028    0.856276
     14          1           0       -3.385185    1.589312    1.271867
     15          1           0       -3.877055    0.680474   -1.025836
     16          1           0       -2.156127    0.703668   -1.410224
     17          1           0       -1.251651   -0.476694    1.289899
     18          1           0       -1.831103   -2.110283    0.956415
     19          1           0        0.097766   -2.231228   -0.293115
     20          1           0       -0.986083   -1.603887   -1.505590
     21          1           0        0.776075   -0.112274   -1.838059
     22          1           0       -0.071058    0.791849   -0.600946
     23          1           0        2.971613   -1.219398   -1.358619
     24          1           0        3.609839   -1.236959    0.305728
     25          1           0        2.231798   -2.263659   -0.129473
     26          1           0        1.072286   -1.151971    1.755098
     27          1           0        0.852249    0.469027    1.848972
 ---------------------------------------------------------------------

 SCF Done:  E(UB3LYP) =  -499.356154778     A.U. after   30 cycles

 The electronic state is 2-A.
 Alpha  occ. eigenvalues --  -19.02384 -14.21529 -14.20759 -10.15424 -10.12071
 Alpha  occ. eigenvalues --  -10.11389 -10.11092 -10.08298 -10.07462 -10.07293
 Alpha  occ. eigenvalues --  -10.06780  -0.93504  -0.82879  -0.79855  -0.69787
 Alpha  occ. eigenvalues --   -0.67092  -0.64973  -0.59588  -0.56199  -0.51661
 Alpha  occ. eigenvalues --   -0.47685  -0.42871  -0.40486  -0.40106  -0.37984
 Alpha  occ. eigenvalues --   -0.36845  -0.35096  -0.32907  -0.32660  -0.31675
 Alpha  occ. eigenvalues --   -0.30272  -0.29123  -0.28585  -0.27805  -0.27543
 Alpha  occ. eigenvalues --   -0.26547  -0.25287  -0.24612  -0.23662  -0.23188
 Alpha  occ. eigenvalues --   -0.20712  -0.16396  -0.15872   0.04295
 Alpha virt. eigenvalues --    0.06646   0.07272   0.08031   0.08879   0.09633
 Alpha virt. eigenvalues --    0.09941   0.10864   0.11408   0.11672   0.12081
 Alpha virt. eigenvalues --    0.12465   0.12637   0.12847   0.14325   0.14758

  Beta  occ. eigenvalues --  -19.02383 -14.21518 -14.20702 -10.15418 -10.12054
  Beta  occ. eigenvalues --  -10.11355 -10.11091 -10.08282 -10.07414 -10.07258
  Beta  occ. eigenvalues --  -10.06744  -0.93491  -0.82830  -0.79810  -0.69721
  Beta  occ. eigenvalues --   -0.67038  -0.64920  -0.59518  -0.56123  -0.51597
  Beta  occ. eigenvalues --   -0.47587  -0.42799  -0.40444  -0.40066  -0.37925
  Beta  occ. eigenvalues --   -0.36798  -0.35045  -0.32848  -0.32601  -0.31634
  Beta  occ. eigenvalues --   -0.30222  -0.29070  -0.28542  -0.27763  -0.27506
  Beta  occ. eigenvalues --   -0.26510  -0.25244  -0.24558  -0.23627  -0.23160
  Beta  occ. eigenvalues --   -0.20683  -0.16368  -0.15828
  Beta virt. eigenvalues --    0.06657   0.07611   0.08109   0.08657   0.09427
  Beta virt. eigenvalues --    0.10195   0.10380   0.11332   0.11756   0.11991
  Beta virt. eigenvalues --    0.12346   0.12742   0.12943   0.13169   0.14557

 Mulliken charges and spin densities:
               1          2
     1  C    0.620475  -1.017859
     2  C   -0.277658  -0.006074
     3  O   -0.145367   0.052781
     4  C    0.093751  -0.498501
     5  C    0.298703  -0.634583
     6  C   -0.509925   0.075665
     7  C   -0.317557   1.181849
     8  C    1.137089  -1.695880
     9  C    0.602823  -1.256627
    10  N   -0.328744   0.059333
    11  N   -0.083432  -0.161307
    12  H   -0.168385   0.298874
    13  H   -0.110374   0.249867
    14  H   -0.107630   0.264745
    15  H   -0.102395   0.277469
    16  H   -0.050140   0.176891
    17  H   -0.054507   0.203211
    18  H   -0.471026   0.663179
    19  H    0.127727   0.010736
    20  H   -0.152084   0.370566
    21  H   -0.243202   0.427798
    22  H    0.258649  -0.075427
    23  H   -0.127635   0.290202
    24  H   -0.002255   0.173215
    25  H   -0.711816   0.861507
    26  H   -0.172223   0.461096
    27  H   -0.002861   0.247272
 Sum of Mulliken charges =  -1.00000   1.00000

 Dipole moment (field-independent basis, Debye):
    X=             -1.4212    Y=              1.3436    Z=             -1.3634  Tot=              2.3841
 Quadrupole moment (field-independent basis, Debye-Ang):
   XX=           -129.1428   YY=           -120.1682   ZZ=           -104.2179
   XY=             -3.5119   XZ=              0.9555   YZ=              2.8832

 Summary of Natural Population Analysis:

                                       Natural Population
                Natural  -----------------------------------------------
    Atom  No    Charge         Core      Valence    Rydberg      Total
 -----------------------------------------------------------------------
      C    1   -0.30112      0.99966     2.29743    0.00403     3.30112
      C    2   -0.00970      0.99959     1.99909    0.01103     3.00970
      O    3   -0.30149      0.99989     3.29161    0.00999     4.30149
      C    4   -0.01096      0.99957     1.99681    0.01458     3.01096
      C    5   -0.21719      0.99961     2.20765    0.00993     3.21719
      C    6   -0.19286      0.99959     2.18209    0.01118     3.19286
      C    7    0.00754      0.99951     1.97872    0.01424     2.99246
      C    8   -0.27995      0.99963     2.27261    0.00771     3.27995
      C    9    0.16928      0.99961     1.81005    0.02106     2.83072
      N   10   -0.18546      0.99979     2.67400    0.01167     3.68546
      N   11   -0.41396      0.99975     2.90347    0.01074     3.91396
      H   12    0.10146      0.00000     0.39719    0.00135     0.39854
      H   13    0.09710      0.00000     0.40126    0.00164     0.40290
      H   14    0.10072      0.00000     0.39793    0.00135     0.39928
      H   15    0.08739      0.00000     0.41112    0.00149     0.41261
      H   16    0.07685      0.00000     0.42158    0.00157     0.42315
      H   17    0.07787      0.00000     0.41991    0.00222     0.42213
      H   18    0.09438      0.00000     0.40386    0.00176     0.40562
      H   19    0.10579      0.00000     0.39163    0.00258     0.39421
      H   20    0.10801      0.00000     0.39069    0.00130     0.39199
      H   21    0.10519      0.00000     0.39318    0.00163     0.39481
      H   22    0.10083      0.00000     0.39655    0.00261     0.39917
      H   23    0.10462      0.00000     0.39391    0.00147     0.39538
      H   24    0.10835      0.00000     0.39029    0.00136     0.39165
      H   25    0.10629      0.00000     0.39191    0.00180     0.39371
      H   26    0.18262      0.00000     0.31383    0.00355     0.31738
      H   27    0.17843      0.00000     0.31866    0.00290     0.32157
 =======================================================================
   * Total *   -0.00000     10.99619    31.84705    0.15676    43.00000

 Normal termination of Gaussian 16 at Tue Dec  8 21:11:42 2020.
