 Gaussian 16, Revision A.03,

 -----------------------------------------------------------
 # opt freq B3LYP/6-31G(d) empiricaldispersion=gd3bj scf=xqc
 -----------------------------------------------------------

 ------------------------------
 CID_79092538_JID_5722_neutraal
 ------------------------------
 Symbolic Z-matrix:
 Charge =  0 Multiplicity = 1

 SCF Done:  E(RB3LYP) =  -650.250070092     A.U. after   14 cycles
 SCF Done:  E(RB3LYP) =  -650.254668298     A.U. after   12 cycles
 SCF Done:  E(RB3LYP) =  -650.256320373     A.U. after   12 cycles
 SCF Done:  E(RB3LYP) =  -650.257184906     A.U. after   12 cycles
 SCF Done:  E(RB3LYP) =  -650.257457301     A.U. after   12 cycles
 SCF Done:  E(RB3LYP) =  -650.257580474     A.U. after   11 cycles
 SCF Done:  E(RB3LYP) =  -650.257855563     A.U. after   12 cycles
 SCF Done:  E(RB3LYP) =  -650.257883272     A.U. after   12 cycles
 SCF Done:  E(RB3LYP) =  -650.257926704     A.U. after   10 cycles
 SCF Done:  E(RB3LYP) =  -650.257960920     A.U. after   10 cycles
 SCF Done:  E(RB3LYP) =  -650.265556480     A.U. after   10 cycles
 SCF Done:  E(RB3LYP) =  -650.265567897     A.U. after   10 cycles
 SCF Done:  E(RB3LYP) =  -650.265570194     A.U. after    9 cycles
 SCF Done:  E(RB3LYP) =  -650.265571093     A.U. after    8 cycles
 SCF Done:  E(RB3LYP) =  -650.265571446     A.U. after    7 cycles
 SCF Done:  E(RB3LYP) =  -650.265571819     A.U. after    7 cycles
 Optimization completed.
    -- Stationary point found.
 Normal termination of Gaussian 16 at Thu Dec 10 16:30:41 2020.

 --------------------------------------------------------------------
 #N Geom=AllCheck Guess=TCheck SCRF=Check GenChk RB3LYP/6-31G(d) Freq
 --------------------------------------------------------------------

 Structure from the checkpoint file:  "JID_5722.chk"
 ------------------------------
 CID_79092538_JID_5722_neutraal
 ------------------------------
 Charge =  0 Multiplicity = 1

 SCF Done:  E(RB3LYP) =  -650.265571819     A.U. after    1 cycles

  Exact polarizability: 163.585   2.817 118.148  -0.250  -2.287 138.665
 Approx polarizability: 243.700   4.549 147.127 -11.803  -5.313 236.991

                      1                      2                      3
                      A                      A                      A
 Frequencies --     48.8830                50.1927                63.4778
 Red. masses --      3.6845                 3.1039                 2.6778
 Frc consts  --      0.0052                 0.0046                 0.0064
 IR Inten    --      0.0753                 0.8135                 0.3986

                      4                      5                      6
                      A                      A                      A
 Frequencies --     74.8463                94.7815               110.6863
 Red. masses --      3.8519                 2.6913                 2.2661
 Frc consts  --      0.0127                 0.0142                 0.0164
 IR Inten    --      0.5470                 0.8907                 0.4704

                      7                      8                      9
                      A                      A                      A
 Frequencies --    156.9643               199.4253               225.8134
 Red. masses --      3.1511                 3.5486                 2.1243
 Frc consts  --      0.0457                 0.0832                 0.0638
 IR Inten    --      1.1000                 2.3409                 1.1688

                     10                     11                     12
                      A                      A                      A
 Frequencies --    247.0615               250.4902               251.7878
 Red. masses --      1.3235                 1.1521                 1.5766
 Frc consts  --      0.0476                 0.0426                 0.0589
 IR Inten    --      1.0545                 0.3138                 0.7554

                     13                     14                     15
                      A                      A                      A
 Frequencies --    294.5565               304.9822               331.8892
 Red. masses --      2.8518                 3.5963                 2.5334
 Frc consts  --      0.1458                 0.1971                 0.1644
 IR Inten    --      4.4459                 4.6807                 8.1818

                     16                     17                     18
                      A                      A                      A
 Frequencies --    336.1577               388.4721               405.5843
 Red. masses --      2.7131                 1.3268                 2.0914
 Frc consts  --      0.1806                 0.1180                 0.2027
 IR Inten    --      0.8495               124.8230                17.5440

                     19                     20                     21
                      A                      A                      A
 Frequencies --    421.0892               445.1924               468.5356
 Red. masses --      2.4442                 2.1807                 2.7618
 Frc consts  --      0.2553                 0.2546                 0.3572
 IR Inten    --      6.4013                 4.9233                11.3270

                     22                     23                     24
                      A                      A                      A
 Frequencies --    501.6453               562.0293               587.1150
 Red. masses --      3.4458                 3.4100                 5.3440
 Frc consts  --      0.5109                 0.6346                 1.0853
 IR Inten    --      1.6018                12.8915                 0.7418

                     25                     26                     27
                      A                      A                      A
 Frequencies --    617.9744               688.7807               717.8861
 Red. masses --      3.7961                 1.1839                 4.4137
 Frc consts  --      0.8541                 0.3309                 1.3402
 IR Inten    --     10.1390               108.0286                20.9092

                     28                     29                     30
                      A                      A                      A
 Frequencies --    755.8347               787.9523               810.3618
 Red. masses --      4.5673                 3.8925                 1.4635
 Frc consts  --      1.5373                 1.4239                 0.5662
 IR Inten    --      5.7029                 4.7597                43.3357

                     31                     32                     33
                      A                      A                      A
 Frequencies --    825.3159               830.4493               868.6683
 Red. masses --      1.5642                 1.4343                 3.1425
 Frc consts  --      0.6278                 0.5828                 1.3971
 IR Inten    --      5.2149                23.1274                48.6211

                     34                     35                     36
                      A                      A                      A
 Frequencies --    923.9691               933.3687               943.9711
 Red. masses --      2.1232                 1.7550                 1.4499
 Frc consts  --      1.0680                 0.9008                 0.7612
 IR Inten    --     10.1447                34.5059                 0.3988

                     37                     38                     39
                      A                      A                      A
 Frequencies --    963.2160               979.4985              1006.6022
 Red. masses --      2.3935                 1.4698                 2.0842
 Frc consts  --      1.3084                 0.8308                 1.2442
 IR Inten    --      4.3157                 0.1675                12.1907

                     40                     41                     42
                      A                      A                      A
 Frequencies --   1059.9790              1076.3613              1080.7135
 Red. masses --      2.8948                 2.2295                 1.6396
 Frc consts  --      1.9163                 1.5219                 1.1282
 IR Inten    --     13.2906                11.0017                11.8476

                     43                     44                     45
                      A                      A                      A
 Frequencies --   1101.1127              1127.0547              1135.0228
 Red. masses --      2.2641                 2.1848                 1.4620
 Frc consts  --      1.6174                 1.6351                 1.1097
 IR Inten    --     53.6093                30.2942                 6.0562

                     46                     47                     48
                      A                      A                      A
 Frequencies --   1137.5944              1160.2841              1185.5190
 Red. masses --      1.3950                 1.8208                 1.8095
 Frc consts  --      1.0637                 1.4443                 1.4984
 IR Inten    --     14.7432                 5.7719                17.7647

                     49                     50                     51
                      A                      A                      A
 Frequencies --   1192.0159              1216.2693              1242.0107
 Red. masses --      1.5754                 1.8943                 1.7927
 Frc consts  --      1.3189                 1.6511                 1.6293
 IR Inten    --     12.5420                 9.1593                 8.4162

                     52                     53                     54
                      A                      A                      A
 Frequencies --   1262.8627              1296.9027              1318.8942
 Red. masses --      2.0847                 1.3681                 1.6508
 Frc consts  --      1.9589                 1.3558                 1.6918
 IR Inten    --      4.2410                11.3303                18.0898

                     55                     56                     57
                      A                      A                      A
 Frequencies --   1330.1552              1344.1737              1349.8882
 Red. masses --      1.8258                 4.0482                 1.8688
 Frc consts  --      1.9033                 4.3095                 2.0063
 IR Inten    --      9.0595                24.7601                 0.9745

                     58                     59                     60
                      A                      A                      A
 Frequencies --   1366.1101              1379.0706              1405.2555
 Red. masses --      1.3631                 1.8447                 1.3863
 Frc consts  --      1.4989                 2.0671                 1.6130
 IR Inten    --     16.7943                19.7762                 7.0129

                     61                     62                     63
                      A                      A                      A
 Frequencies --   1413.9086              1429.5234              1444.6313
 Red. masses --      1.2893                 1.3165                 1.3091
 Frc consts  --      1.5186                 1.5851                 1.6096
 IR Inten    --     12.9139                23.6182                 9.1520

                     64                     65                     66
                      A                      A                      A
 Frequencies --   1467.1718              1475.6061              1488.9563
 Red. masses --      1.1574                 2.4241                 1.1684
 Frc consts  --      1.4679                 3.1099                 1.5262
 IR Inten    --      5.2515                21.8344                 4.2087

                     67                     68                     69
                      A                      A                      A
 Frequencies --   1504.1455              1516.1543              1518.8068
 Red. masses --      1.2328                 1.0527                 1.0795
 Frc consts  --      1.6433                 1.4258                 1.4672
 IR Inten    --     16.4905                10.9462                 1.4829

                     70                     71                     72
                      A                      A                      A
 Frequencies --   1525.8675              1527.4058              1529.7143
 Red. masses --      1.0522                 1.0795                 1.0986
 Frc consts  --      1.4434                 1.4839                 1.5147
 IR Inten    --     11.4144                 8.6263                 0.7386

                     73                     74                     75
                      A                      A                      A
 Frequencies --   1536.5039              1543.3187              1549.9150
 Red. masses --      1.0685                 1.0719                 2.1596
 Frc consts  --      1.4862                 1.5043                 3.0566
 IR Inten    --      6.0486                 5.6216                41.4227

                     76                     77                     78
                      A                      A                      A
 Frequencies --   1551.7936              1619.7458              1651.3095
 Red. masses --      1.1388                 4.2425                 2.8107
 Frc consts  --      1.6157                 6.5579                 4.5156
 IR Inten    --      8.3300                19.8751                69.1614

                     79                     80                     81
                      A                      A                      A
 Frequencies --   1680.7154              2896.7306              2917.8841
 Red. masses --      1.6592                 1.0726                 1.0633
 Frc consts  --      2.7615                 5.3030                 5.3338
 IR Inten    --    194.5627                52.7591                64.7101

                     82                     83                     84
                      A                      A                      A
 Frequencies --   2924.9080              2933.1232              2962.6054
 Red. masses --      1.0803                 1.0652                 1.0743
 Frc consts  --      5.4452                 5.3995                 5.5555
 IR Inten    --     58.9934               221.3949                68.1999

                     85                     86                     87
                      A                      A                      A
 Frequencies --   3046.6538              3080.4214              3088.3787
 Red. masses --      1.0381                 1.0698                 1.0877
 Frc consts  --      5.6773                 5.9811                 6.1128
 IR Inten    --     24.4961                24.1779                 5.3402

                     88                     89                     90
                      A                      A                      A
 Frequencies --   3092.4750              3098.9597              3114.5040
 Red. masses --      1.0738                 1.0862                 1.0991
 Frc consts  --      6.0505                 6.1460                 6.2818
 IR Inten    --     33.8936                11.3240                43.4648

                     91                     92                     93
                      A                      A                      A
 Frequencies --   3127.4383              3129.4653              3132.3718
 Red. masses --      1.1033                 1.1026                 1.0886
 Frc consts  --      6.3580                 6.3623                 6.2934
 IR Inten    --     27.9926                29.9470                42.5482

                     94                     95                     96
                      A                      A                      A
 Frequencies --   3157.0746              3161.0059              3185.7708
 Red. masses --      1.0984                 1.0874                 1.0944
 Frc consts  --      6.4501                 6.4014                 6.5444
 IR Inten    --     16.5408                27.9043                32.7326

                     97                     98                     99
                      A                      A                      A
 Frequencies --   3471.9297              3482.8513              3654.6861
 Red. masses --      1.0737                 1.0551                 1.0939
 Frc consts  --      7.6260                 7.5407                 8.6083
 IR Inten    --      1.2934               158.9822                41.3434

 - Thermochemistry -
 -------------------
 Temperature   298.150 Kelvin.  Pressure   1.00000 Atm.
 Atom     1 has atomic number  6 and mass  12.00000

 Molecular mass:   208.16880 amu.
 Principal axes and moments of inertia in atomic units:
                           1         2         3
     Eigenvalues --  2878.255363355.715094766.42499
           X            0.99937   0.03480   0.00656
           Y           -0.03478   0.99939  -0.00357
           Z           -0.00668   0.00334   0.99997
 This molecule is an asymmetric top.
 Rotational symmetry number  1.
 Warning -- assumption of classical behavior for rotation
           may cause significant error
 Rotational temperatures (Kelvin)      0.03009     0.02581     0.01817
 Rotational constants (GHZ):           0.62703     0.53781     0.37864
 Zero-point vibrational energy     818707.4 (Joules/Mol)
                                  195.67577 (Kcal/Mol)
 Warning -- explicit consideration of  25 degrees of freedom as
           vibrations may cause significant error
 Vibrational temperatures:     70.33    72.22    91.33   107.69   136.37
          (Kelvin)            159.25   225.84   286.93   324.90   355.47
                              360.40   362.27   423.80   438.80   477.51
                              483.66   558.92   583.55   605.85   640.53
                              674.12   721.76   808.63   844.73   889.13
                              991.00  1032.88  1087.48  1133.69  1165.93
                             1187.45  1194.83  1249.82  1329.39  1342.91
                             1358.16  1385.85  1409.28  1448.28  1525.07
                             1548.64  1554.91  1584.26  1621.58  1633.04
                             1636.74  1669.39  1705.70  1715.04  1749.94
                             1786.98  1816.98  1865.95  1897.59  1913.80
                             1933.97  1942.19  1965.53  1984.18  2021.85
                             2034.30  2056.77  2078.50  2110.93  2123.07
                             2142.28  2164.13  2181.41  2185.22  2195.38
                             2197.60  2200.92  2210.69  2220.49  2229.98
                             2232.68  2330.45  2375.87  2418.17  4167.75
                             4198.18  4208.29  4220.11  4262.53  4383.46
                             4432.04  4443.49  4449.38  4458.71  4481.08
                             4499.69  4502.60  4506.78  4542.33  4547.98
                             4583.61  4995.33  5011.05  5258.28

 Zero-point correction=                           0.311829 (Hartree/Particle)
 Thermal correction to Energy=                    0.327679
 Thermal correction to Enthalpy=                  0.328623
 Thermal correction to Gibbs Free Energy=         0.268712
 Sum of electronic and zero-point Energies=           -649.953743
 Sum of electronic and thermal Energies=              -649.937893
 Sum of electronic and thermal Enthalpies=            -649.936949
 Sum of electronic and thermal Free Energies=         -649.996860

                     E (Thermal)             CV                S
                      KCal/Mol        Cal/Mol-Kelvin    Cal/Mol-Kelvin
 Total                  205.622             60.110            126.093
 Electronic               0.000              0.000              0.000
 Translational            0.889              2.981             41.903
 Rotational               0.889              2.981             32.199
 Vibrational            203.844             54.148             51.991
 Vibration     1          0.595              1.978              4.862
 Vibration     2          0.595              1.978              4.810
 Vibration     3          0.597              1.972              4.346
 Vibration     4          0.599              1.966              4.022
 Vibration     5          0.603              1.953              3.559
 Vibration     6          0.607              1.941              3.257
 Vibration     7          0.621              1.895              2.586
 Vibration     8          0.638              1.841              2.138
 Vibration     9          0.650              1.802              1.912
 Vibration    10          0.661              1.768              1.751
 Vibration    11          0.663              1.762              1.727
 Vibration    12          0.664              1.760              1.718
 Vibration    13          0.689              1.684              1.448
 Vibration    14          0.696              1.664              1.389
 Vibration    15          0.714              1.612              1.251
 Vibration    16          0.717              1.603              1.230
 Vibration    17          0.757              1.495              1.006
 Vibration    18          0.771              1.458              0.942
 Vibration    19          0.784              1.424              0.888
 Vibration    20          0.805              1.371              0.810
 Vibration    21          0.826              1.320              0.742
 Vibration    22          0.857              1.246              0.654
 Vibration    23          0.918              1.113              0.520
 Vibration    24          0.944              1.059              0.472
 Vibration    25          0.978              0.994              0.420

                           ! Non-Optimized Parameters !
 Normal termination of Gaussian 16 at Thu Dec 10 16:44:38 2020.

 ----------------------------------------------------------------------
 # B3LYP/6-311++G(d,p) empiricaldispersion=gd3bj scf=xqc pop=npa geom=c
 heck
 ----------------------------------------------------------------------

 --------------------------------------
 CID_79092538_JID_5722_Energie_neutraal
 --------------------------------------
 Structure from the checkpoint file:  "JID_5722.chk"
 Charge =  0 Multiplicity = 1

 SCF Done:  E(RB3LYP) =  -650.451489962     A.U. after   14 cycles
 Normal termination of Gaussian 16 at Thu Dec 10 16:51:38 2020.

 ----------------------------------------------------------------------
 # B3LYP/6-311++G(d,p) empiricaldispersion=gd3bj scf=xqc pop=npa geom=c
 heck
 ----------------------------------------------------------------------

 ------------------------------------
 CID_79092538_JID_5722_Energie_kation
 ------------------------------------
 Structure from the checkpoint file:  "JID_5722.chk"
 Charge =  1 Multiplicity = 2

 SCF Done:  E(UB3LYP) =  -650.176871508     A.U. after   25 cycles
 Normal termination of Gaussian 16 at Thu Dec 10 17:08:35 2020.
 Gaussian 16:  ES64L-G16RevA.03 25-Dec-2016

 ----------------------------------------------------------------------
 # B3LYP/6-311++G(d,p) empiricaldispersion=gd3bj scf=xqc pop=npa geom=c
 heck
 ----------------------------------------------------------------------

 -----------------------------------
 CID_79092538_JID_5722_Energie_anion
 -----------------------------------
 Structure from the checkpoint file:  "JID_5722.chk"
 Charge = -1 Multiplicity = 2

                         Standard orientation:
 ---------------------------------------------------------------------
 Center     Atomic      Atomic             Coordinates (Angstroms)
 Number     Number       Type             X           Y           Z
 ---------------------------------------------------------------------
      1          6           0       -2.211434   -3.355215    0.200543
      2          6           0       -1.180515   -2.489019   -0.513928
      3          7           0       -1.488501   -1.065950   -0.341195
      4          6           0       -0.554963   -0.177027   -1.055042
      5          6           0       -1.097790    1.265880   -1.140402
      6          7           0       -1.105289    1.996954    0.116523
      7          6           0       -0.797891    3.408299   -0.050233
      8          6           0       -2.323455    1.808542    0.886977
      9          6           0        0.844378   -0.208129   -0.466043
     10          6           0        1.130468   -0.298736    0.919874
     11          6           0        2.488338   -0.269237    1.293207
     12          6           0        3.469274   -0.145278    0.321794
     13          7           0        3.221197   -0.064296   -0.993929
     14          6           0        1.928488   -0.106224   -1.337155
     15          7           0        0.144064   -0.403386    1.868742
     16          1           0       -2.241628   -3.117939    1.269460
     17          1           0       -1.971739   -4.417616    0.088374
     18          1           0       -3.217038   -3.195583   -0.208677
     19          1           0       -0.184582   -2.665746   -0.094005
     20          1           0       -1.122262   -2.765685   -1.582320
     21          1           0       -2.427510   -0.889753   -0.697714
     22          1           0       -0.462842   -0.510666   -2.106655
     23          1           0       -0.436772    1.790858   -1.836537
     24          1           0       -2.100029    1.246761   -1.618715
     25          1           0       -1.556868    3.960582   -0.640164
     26          1           0       -0.730504    3.882263    0.934886
     27          1           0        0.171766    3.519882   -0.545137
     28          1           0       -3.216070    2.243325    0.391849
     29          1           0       -2.503791    0.744095    1.045476
     30          1           0       -2.213222    2.283413    1.867341
     31          1           0        2.760197   -0.335446    2.343871
     32          1           0        4.518017   -0.115612    0.614462
     33          1           0        1.726275   -0.057680   -2.408736
     34          1           0        0.410370   -0.784874    2.765120
     35          1           0       -0.771453   -0.660972    1.509288
 ---------------------------------------------------------------------

 SCF Done:  E(UB3LYP) =  -650.440314994     A.U. after   29 cycles

 The electronic state is 2-A.
 Alpha  occ. eigenvalues --  -14.21364 -14.20933 -14.20923 -14.19890 -10.12880
 Alpha  occ. eigenvalues --  -10.11432 -10.10449 -10.10273 -10.10261 -10.09589
 Alpha  occ. eigenvalues --  -10.09560 -10.08485 -10.08066 -10.07396 -10.06008
 Alpha  occ. eigenvalues --   -0.84846  -0.83431  -0.81843  -0.80808  -0.69721
 Alpha  occ. eigenvalues --   -0.66892  -0.64937  -0.62142  -0.61116  -0.55792
 Alpha  occ. eigenvalues --   -0.53228  -0.52101  -0.50359  -0.47874  -0.43755
 Alpha  occ. eigenvalues --   -0.42883  -0.39678  -0.38827  -0.38287  -0.36584
 Alpha  occ. eigenvalues --   -0.35946  -0.35632  -0.34699  -0.33494  -0.33058
 Alpha  occ. eigenvalues --   -0.32158  -0.30514  -0.30258  -0.29331  -0.28638
 Alpha  occ. eigenvalues --   -0.27560  -0.27307  -0.26643  -0.25207  -0.25181
 Alpha  occ. eigenvalues --   -0.24635  -0.23760  -0.16323  -0.15928  -0.14570
 Alpha  occ. eigenvalues --   -0.12599  -0.11838   0.04174
 Alpha virt. eigenvalues --    0.06298   0.06666   0.07380   0.07962   0.08285
 Alpha virt. eigenvalues --    0.08703   0.08765   0.09412   0.09572   0.09917
 Alpha virt. eigenvalues --    0.11073   0.11278   0.11514   0.12147   0.12586

  Beta  occ. eigenvalues --  -14.21334 -14.20910 -14.20902 -14.19891 -10.12879
  Beta  occ. eigenvalues --  -10.11422 -10.10444 -10.10256 -10.10254 -10.09577
  Beta  occ. eigenvalues --  -10.09545 -10.08463 -10.08065 -10.07387 -10.05960
  Beta  occ. eigenvalues --   -0.84826  -0.83410  -0.81815  -0.80769  -0.69696
  Beta  occ. eigenvalues --   -0.66868  -0.64903  -0.62093  -0.61085  -0.55758
  Beta  occ. eigenvalues --   -0.53195  -0.52032  -0.50293  -0.47826  -0.43727
  Beta  occ. eigenvalues --   -0.42846  -0.39645  -0.38799  -0.38241  -0.36549
  Beta  occ. eigenvalues --   -0.35919  -0.35604  -0.34664  -0.33462  -0.33018
  Beta  occ. eigenvalues --   -0.32127  -0.30497  -0.30228  -0.29300  -0.28607
  Beta  occ. eigenvalues --   -0.27517  -0.27281  -0.26593  -0.25175  -0.25146
  Beta  occ. eigenvalues --   -0.24608  -0.23737  -0.16309  -0.15910  -0.14517
  Beta  occ. eigenvalues --   -0.12558  -0.11784
  Beta virt. eigenvalues --    0.06402   0.07066   0.07301   0.07725   0.08030
  Beta virt. eigenvalues --    0.08582   0.08947   0.09180   0.09678   0.09941
  Beta virt. eigenvalues --    0.10294   0.11388   0.11610   0.11782   0.12286

 Mulliken charges and spin densities:
               1          2
     1  C    1.931815  -2.503597
     2  C   -1.065992   0.864964
     3  N   -0.330533  -0.038146
     4  C    1.029919  -0.574621
     5  C   -0.711979  -0.184587
     6  N    0.079210   0.116785
     7  C    0.015642  -0.329314
     8  C    0.327221  -0.741278
     9  C   -0.000578  -0.208213
    10  C   -0.119361   0.086874
    11  C   -0.309625   0.187430
    12  C    0.146201  -0.485248
    13  N   -0.091382   0.014286
    14  C   -0.083509   0.076757
    15  N   -0.464084   0.106676
    16  H   -0.541599   0.686617
    17  H   -0.168092   0.301732
    18  H   -0.606756   0.753135
    19  H    0.140513   0.024560
    20  H   -0.216161   0.345976
    21  H    0.449817  -0.188722
    22  H   -0.096134   0.280067
    23  H    0.161843  -0.011263
    24  H   -0.465237   0.603591
    25  H   -0.019499   0.124826
    26  H    0.037668   0.089268
    27  H    0.075940   0.056011
    28  H   -0.229894   0.330676
    29  H   -0.310167   0.449539
    30  H   -0.010331   0.163241
    31  H   -0.258237   0.408834
    32  H    0.149337   0.000451
    33  H    0.062502   0.105194
    34  H   -0.304011   0.594007
    35  H    0.795534  -0.506509
 Sum of Mulliken charges =  -1.00000   1.00000

 Dipole moment (field-independent basis, Debye):
    X=              4.2877    Y=              3.6443    Z=             -1.0787  Tot=              5.7296
 Quadrupole moment (field-independent basis, Debye-Ang):
   XX=           -160.3222   YY=           -145.2524   ZZ=           -135.7023
   XY=             -9.2394   XZ=              2.2085   YZ=              2.4393

 Summary of Natural Population Analysis:

                                       Natural Population
                Natural  -----------------------------------------------
    Atom  No    Charge         Core      Valence    Rydberg      Total
 -----------------------------------------------------------------------
      C    1   -0.28708      0.99967     2.28236    0.00505     3.28708
      C    2   -0.08551      0.99963     2.07577    0.01011     3.08551
      N    3   -0.35387      0.99973     2.84165    0.01249     3.85387
      C    4   -0.01422      0.99956     1.99962    0.01504     3.01422
      C    5   -0.07767      0.99958     2.06617    0.01192     3.07767
      N    6   -0.28185      0.99972     2.77049    0.01164     3.78185
      C    7   -0.17113      0.99965     2.16491    0.00657     3.17113
      C    8   -0.17683      0.99964     2.16827    0.00892     3.17683
      C    9   -0.06284      0.99943     2.05192    0.01148     3.06284
      C   10    0.11022      0.99946     1.87672    0.01360     2.88978
      C   11   -0.14765      0.99952     2.13855    0.00959     3.14765
      C   12    0.02628      0.99959     1.96026    0.01387     2.97372
      N   13   -0.25933      0.99972     2.74740    0.01221     3.75933
      C   14    0.03491      0.99953     1.95192    0.01365     2.96509
      N   15   -0.38877      0.99969     2.87888    0.01020     3.88877
      H   16    0.10074      0.00000     0.39737    0.00188     0.39926
      H   17    0.10029      0.00000     0.39867    0.00103     0.39971
      H   18    0.09898      0.00000     0.39891    0.00211     0.40102
      H   19    0.09416      0.00000     0.40392    0.00192     0.40584
      H   20    0.08019      0.00000     0.41833    0.00149     0.41981
      H   21    0.17969      0.00000     0.31567    0.00464     0.32031
      H   22    0.08688      0.00000     0.41076    0.00235     0.41312
      H   23    0.09854      0.00000     0.40020    0.00126     0.40146
      H   24    0.08572      0.00000     0.41228    0.00200     0.41428
      H   25    0.07703      0.00000     0.42121    0.00175     0.42297
      H   26    0.09456      0.00000     0.40448    0.00096     0.40544
      H   27    0.09481      0.00000     0.40432    0.00087     0.40519
      H   28    0.07876      0.00000     0.41975    0.00149     0.42124
      H   29    0.10200      0.00000     0.39591    0.00209     0.39800
      H   30    0.09501      0.00000     0.40389    0.00109     0.40499
      H   31    0.10174      0.00000     0.39717    0.00109     0.39826
      H   32    0.08617      0.00000     0.41264    0.00119     0.41383
      H   33    0.08599      0.00000     0.41217    0.00184     0.41401
      H   34    0.18713      0.00000     0.31005    0.00282     0.31287
      H   35    0.20692      0.00000     0.28959    0.00348     0.29308
 =======================================================================
   * Total *    0.00000     14.99410    41.80219    0.20370    57.00000

 Normal termination of Gaussian 16 at Thu Dec 10 17:27:49 2020.
