 Gaussian 16, Revision A.03,

 -----------------------------------------------------------
 # opt freq B3LYP/6-31G(d) empiricaldispersion=gd3bj scf=xqc
 -----------------------------------------------------------

 ------------------------------
 CID_62328630_JID_5752_neutraal
 ------------------------------
 Symbolic Z-matrix:
 Charge =  0 Multiplicity = 1

 SCF Done:  E(RB3LYP) =  -616.969452337     A.U. after   14 cycles
 SCF Done:  E(RB3LYP) =  -616.974974317     A.U. after   12 cycles
 SCF Done:  E(RB3LYP) =  -616.975674750     A.U. after   12 cycles
 SCF Done:  E(RB3LYP) =  -616.976430764     A.U. after   12 cycles
 SCF Done:  E(RB3LYP) =  -616.976410567     A.U. after   14 cycles
 SCF Done:  E(RB3LYP) =  -616.978371370     A.U. after   12 cycles
 SCF Done:  E(RB3LYP) =  -616.979066815     A.U. after   12 cycles
 SCF Done:  E(RB3LYP) =  -616.979048106     A.U. after   12 cycles
 SCF Done:  E(RB3LYP) =  -616.979545416     A.U. after   11 cycles
 SCF Done:  E(RB3LYP) =  -616.979676293     A.U. after   11 cycles
 SCF Done:  E(RB3LYP) =  -616.979905051     A.U. after   10 cycles
 SCF Done:  E(RB3LYP) =  -616.979942544     A.U. after   10 cycles
 SCF Done:  E(RB3LYP) =  -616.979946164     A.U. after    8 cycles
 SCF Done:  E(RB3LYP) =  -616.979947398     A.U. after    9 cycles
 SCF Done:  E(RB3LYP) =  -616.979948132     A.U. after    8 cycles
 SCF Done:  E(RB3LYP) =  -616.979948222     A.U. after    7 cycles
 Optimization completed.
    -- Stationary point found.
 Normal termination of Gaussian 16 at Thu Dec 10 17:11:39 2020.

 --------------------------------------------------------------------
 #N Geom=AllCheck Guess=TCheck SCRF=Check GenChk RB3LYP/6-31G(d) Freq
 --------------------------------------------------------------------

 Structure from the checkpoint file:  "JID_5752.chk"
 ------------------------------
 CID_62328630_JID_5752_neutraal
 ------------------------------
 Charge =  0 Multiplicity = 1

 SCF Done:  E(RB3LYP) =  -616.979948222     A.U. after    1 cycles

  Exact polarizability: 192.340   5.085 159.359   1.712   4.332  94.798
 Approx polarizability: 265.754   6.497 238.754   1.469  11.907 144.037

                      1                      2                      3
                      A                      A                      A
 Frequencies --     43.5252                45.2636                51.5350
 Red. masses --      1.1418                 2.0669                 3.0839
 Frc consts  --      0.0013                 0.0025                 0.0048
 IR Inten    --      0.1230                 0.3508                 0.5357

                      4                      5                      6
                      A                      A                      A
 Frequencies --     60.9034               101.3716               126.8065
 Red. masses --      3.4622                 2.8066                 3.2058
 Frc consts  --      0.0076                 0.0170                 0.0304
 IR Inten    --      0.1999                 1.9118                 0.2344

                      7                      8                      9
                      A                      A                      A
 Frequencies --    141.8694               200.1858               213.9658
 Red. masses --      2.8218                 1.2314                 3.0525
 Frc consts  --      0.0335                 0.0291                 0.0823
 IR Inten    --      0.0274                 0.6033                 2.9332

                     10                     11                     12
                      A                      A                      A
 Frequencies --    224.1032               254.2126               305.7021
 Red. masses --      2.1872                 2.5759                 4.4081
 Frc consts  --      0.0647                 0.0981                 0.2427
 IR Inten    --      0.5574                 6.1579                 0.2837

                     13                     14                     15
                      A                      A                      A
 Frequencies --    310.4640               332.8114               383.0544
 Red. masses --      2.8288                 3.2130                 2.3156
 Frc consts  --      0.1606                 0.2097                 0.2002
 IR Inten    --      0.4653                 2.3221                 0.0963

                     16                     17                     18
                      A                      A                      A
 Frequencies --    418.7329               456.8007               506.0171
 Red. masses --      3.1433                 3.0922                 2.7485
 Frc consts  --      0.3247                 0.3802                 0.4146
 IR Inten    --      5.4900                 1.7489                 5.0788

                     19                     20                     21
                      A                      A                      A
 Frequencies --    534.5422               570.9665               584.9346
 Red. masses --      4.9869                 2.7201                 3.7552
 Frc consts  --      0.8395                 0.5225                 0.7570
 IR Inten    --      1.4024                 2.6701                 1.8976

                     22                     23                     24
                      A                      A                      A
 Frequencies --    645.9029               663.1691               707.9473
 Red. masses --      3.9623                 3.0807                 2.2167
 Frc consts  --      0.9740                 0.7983                 0.6546
 IR Inten    --      0.8755                 1.2335                 6.0428

                     25                     26                     27
                      A                      A                      A
 Frequencies --    744.9592               782.0648               797.1996
 Red. masses --      3.2368                 1.4328                 1.3816
 Frc consts  --      1.0583                 0.5163                 0.5173
 IR Inten    --      1.8469                33.2656                11.1238

                     28                     29                     30
                      A                      A                      A
 Frequencies --    825.3022               838.7228               850.5885
 Red. masses --      1.3543                 2.1494                 1.3832
 Frc consts  --      0.5435                 0.8909                 0.5896
 IR Inten    --      2.6935                55.6616                 7.8991

                     31                     32                     33
                      A                      A                      A
 Frequencies --    862.5883               866.5873               896.8551
 Red. masses --      1.8970                 1.4612                 2.7598
 Frc consts  --      0.8316                 0.6465                 1.3079
 IR Inten    --     90.0481                 3.1782                 3.5071

                     34                     35                     36
                      A                      A                      A
 Frequencies --    935.8519               959.2091               961.1305
 Red. masses --      2.4490                 1.2521                 2.5745
 Frc consts  --      1.2637                 0.6788                 1.4012
 IR Inten    --      6.5067                 0.6254                32.2099

                     37                     38                     39
                      A                      A                      A
 Frequencies --    966.2449              1012.4738              1020.6599
 Red. masses --      2.3181                 5.4602                 1.5409
 Frc consts  --      1.2751                 3.2978                 0.9457
 IR Inten    --      0.9846                 2.1400                31.1800

                     40                     41                     42
                      A                      A                      A
 Frequencies --   1031.8877              1056.6057              1065.2666
 Red. masses --      1.4886                 1.6034                 2.1411
 Frc consts  --      0.9339                 1.0547                 1.4315
 IR Inten    --      0.9343                13.4527                39.3282

                     43                     44                     45
                      A                      A                      A
 Frequencies --   1073.4893              1088.5547              1112.0783
 Red. masses --      1.5161                 3.4958                 4.1842
 Frc consts  --      1.0293                 2.4406                 3.0488
 IR Inten    --      7.7051                 0.1223                19.8526

                     46                     47                     48
                      A                      A                      A
 Frequencies --   1113.5919              1136.4453              1155.5393
 Red. masses --      1.8388                 1.6239                 1.7565
 Frc consts  --      1.3435                 1.2357                 1.3819
 IR Inten    --      3.6785                 1.4611                19.6846

                     49                     50                     51
                      A                      A                      A
 Frequencies --   1211.8108              1217.2356              1237.0654
 Red. masses --      1.7894                 1.1301                 1.5014
 Frc consts  --      1.5482                 0.9865                 1.3537
 IR Inten    --     29.6885                10.7155                 6.9784

                     52                     53                     54
                      A                      A                      A
 Frequencies --   1246.6047              1257.4952              1299.6337
 Red. masses --      2.1018                 1.7269                 1.4297
 Frc consts  --      1.9244                 1.6089                 1.4228
 IR Inten    --     14.9451                30.5308                 9.6044

                     55                     56                     57
                      A                      A                      A
 Frequencies --   1319.9887              1330.7617              1337.0329
 Red. masses --      1.4883                 1.4733                 1.2824
 Frc consts  --      1.5279                 1.5373                 1.3506
 IR Inten    --     64.6836                16.0084                 1.7498

                     58                     59                     60
                      A                      A                      A
 Frequencies --   1347.0714              1368.0727              1371.9483
 Red. masses --      1.9218                 1.9241                 1.2783
 Frc consts  --      2.0547                 2.1218                 1.4176
 IR Inten    --      9.8762                 5.9183                 0.1741

                     61                     62                     63
                      A                      A                      A
 Frequencies --   1383.9846              1399.1148              1421.3711
 Red. masses --      1.3989                 1.4191                 1.3815
 Frc consts  --      1.5787                 1.6367                 1.6445
 IR Inten    --      2.9783                66.9750                 7.4026

                     64                     65                     66
                      A                      A                      A
 Frequencies --   1440.6788              1441.4589              1452.5656
 Red. masses --      1.2524                 1.2749                 1.5765
 Frc consts  --      1.5316                 1.5608                 1.9598
 IR Inten    --      5.7931                14.4573                56.2236

                     67                     68                     69
                      A                      A                      A
 Frequencies --   1486.6555              1490.1757              1517.7868
 Red. masses --      1.2326                 2.0146                 1.0629
 Frc consts  --      1.6051                 2.6359                 1.4426
 IR Inten    --      6.9654                28.5121                 0.6764

                     70                     71                     72
                      A                      A                      A
 Frequencies --   1519.0135              1520.3403              1523.1463
 Red. masses --      1.0542                 1.0816                 1.0681
 Frc consts  --      1.4332                 1.4730                 1.4599
 IR Inten    --      5.1821                 1.9263                 1.1249

                     73                     74                     75
                      A                      A                      A
 Frequencies --   1527.3039              1530.9934              1538.1364
 Red. masses --      1.3193                 1.0565                 1.1015
 Frc consts  --      1.8132                 1.4590                 1.5354
 IR Inten    --      7.8495                 4.3970                 8.6877

                     76                     77                     78
                      A                      A                      A
 Frequencies --   1545.0209              1555.4720              1639.5468
 Red. masses --      1.2184                 1.8222                 5.3005
 Frc consts  --      1.7136                 2.5975                 8.3948
 IR Inten    --     27.4066                96.5711                27.1642

                     79                     80                     81
                      A                      A                      A
 Frequencies --   1666.6026              3039.6925              3048.1833
 Red. masses --      5.5924                 1.0402                 1.0627
 Frc consts  --      9.1520                 5.6630                 5.8174
 IR Inten    --    190.1216                37.2310                50.9511

                     82                     83                     84
                      A                      A                      A
 Frequencies --   3051.8046              3054.5577              3065.5280
 Red. masses --      1.0674                 1.0378                 1.0641
 Frc consts  --      5.8573                 5.7048                 5.8916
 IR Inten    --     34.2591                22.7312                39.5094

                     85                     86                     87
                      A                      A                      A
 Frequencies --   3073.2749              3078.4748              3086.6786
 Red. masses --      1.0625                 1.0831                 1.1025
 Frc consts  --      5.9128                 6.0476                 6.1886
 IR Inten    --     23.0875                16.4152                13.3954

                     88                     89                     90
                      A                      A                      A
 Frequencies --   3096.3636              3104.8069              3122.2401
 Red. masses --      1.0957                 1.1006                 1.1031
 Frc consts  --      6.1894                 6.2509                 6.3355
 IR Inten    --     23.6028                10.9957                20.7114

                     91                     92                     93
                      A                      A                      A
 Frequencies --   3122.4660              3124.0559              3126.7864
 Red. masses --      1.1030                 1.0994                 1.1035
 Frc consts  --      6.3361                 6.3216                 6.3567
 IR Inten    --     33.4791                38.6176                42.1998

                     94                     95                     96
                      A                      A                      A
 Frequencies --   3137.7702              3177.9193              3195.9467
 Red. masses --      1.1032                 1.0862                 1.0937
 Frc consts  --      6.3994                 6.4631                 6.5819
 IR Inten    --     34.6777                 8.8004                36.9433

                     97                     98                     99
                      A                      A                      A
 Frequencies --   3213.5096              3228.1691              3467.3784
 Red. masses --      1.0880                 1.0910                 1.0744
 Frc consts  --      6.6199                 6.6988                 7.6105
 IR Inten    --     16.3864                14.8250                 2.2550

 - Thermochemistry -
 -------------------
 Temperature   298.150 Kelvin.  Pressure   1.00000 Atm.
 Atom     1 has atomic number  6 and mass  12.00000

 Molecular mass:   204.16265 amu.
 Principal axes and moments of inertia in atomic units:
                           1         2         3
     Eigenvalues --  1931.437824687.490876166.21712
           X            0.99982   0.01877   0.00326
           Y           -0.01876   0.99982  -0.00181
           Z           -0.00330   0.00174   0.99999
 This molecule is an asymmetric top.
 Rotational symmetry number  1.
 Warning -- assumption of classical behavior for rotation
           may cause significant error
 Rotational temperatures (Kelvin)      0.04484     0.01848     0.01405
 Rotational constants (GHZ):           0.93440     0.38501     0.29268
 Zero-point vibrational energy     824217.3 (Joules/Mol)
                                  196.99267 (Kcal/Mol)
 Warning -- explicit consideration of  21 degrees of freedom as
           vibrations may cause significant error
 Vibrational temperatures:     62.62    65.12    74.15    87.63   145.85
          (Kelvin)            182.45   204.12   288.02   307.85   322.43
                              365.76   439.84   446.69   478.84   551.13
                              602.46   657.23   728.05   769.09   821.49
                              841.59   929.31   954.15  1018.58  1071.83
                             1125.22  1146.99  1187.43  1206.74  1223.81
                             1241.07  1246.83  1290.37  1346.48  1380.09
                             1382.85  1390.21  1456.72  1468.50  1484.66
                             1520.22  1532.68  1544.51  1566.19  1600.03
                             1602.21  1635.09  1662.56  1743.53  1751.33
                             1779.86  1793.59  1809.26  1869.88  1899.17
                             1914.67  1923.69  1938.14  1968.35  1973.93
                             1991.25  2013.01  2045.04  2072.82  2073.94
                             2089.92  2138.97  2144.03  2183.76  2185.52
                             2187.43  2191.47  2197.45  2202.76  2213.04
                             2222.94  2237.98  2358.94  2397.87  4373.44
                             4385.66  4390.87  4394.83  4410.61  4421.76
                             4429.24  4441.04  4454.98  4467.12  4492.21
                             4492.53  4494.82  4498.75  4514.55  4572.32
                             4598.25  4623.52  4644.62  4988.78

 Zero-point correction=                           0.313928 (Hartree/Particle)
 Thermal correction to Energy=                    0.328846
 Thermal correction to Enthalpy=                  0.329790
 Thermal correction to Gibbs Free Energy=         0.270932
 Sum of electronic and zero-point Energies=           -616.666020
 Sum of electronic and thermal Energies=              -616.651102
 Sum of electronic and thermal Enthalpies=            -616.650158
 Sum of electronic and thermal Free Energies=         -616.709017

                     E (Thermal)             CV                S
                      KCal/Mol        Cal/Mol-Kelvin    Cal/Mol-Kelvin
 Total                  206.354             57.057            123.878
 Electronic               0.000              0.000              0.000
 Translational            0.889              2.981             41.846
 Rotational               0.889              2.981             32.390
 Vibrational            204.576             51.095             49.643
 Vibration     1          0.595              1.980              5.092
 Vibration     2          0.595              1.979              5.014
 Vibration     3          0.596              1.977              4.758
 Vibration     4          0.597              1.973              4.428
 Vibration     5          0.604              1.948              3.428
 Vibration     6          0.611              1.926              2.994
 Vibration     7          0.615              1.911              2.779
 Vibration     8          0.638              1.840              2.131
 Vibration     9          0.644              1.820              2.010
 Vibration    10          0.649              1.804              1.926
 Vibration    11          0.665              1.756              1.701
 Vibration    12          0.696              1.663              1.385
 Vibration    13          0.699              1.654              1.360
 Vibration    14          0.715              1.610              1.246
 Vibration    15          0.752              1.506              1.027
 Vibration    16          0.782              1.430              0.896
 Vibration    17          0.815              1.346              0.775
 Vibration    18          0.861              1.237              0.643
 Vibration    19          0.890              1.174              0.577
 Vibration    20          0.927              1.094              0.502
 Vibration    21          0.942              1.064              0.476

                           ! Non-Optimized Parameters !
 Normal termination of Gaussian 16 at Thu Dec 10 17:23:58 2020.

 ----------------------------------------------------------------------
 # B3LYP/6-311++G(d,p) empiricaldispersion=gd3bj scf=xqc pop=npa geom=c
 heck
 ----------------------------------------------------------------------

 --------------------------------------
 CID_62328630_JID_5752_Energie_neutraal
 --------------------------------------
 Structure from the checkpoint file:  "JID_5752.chk"
 Charge =  0 Multiplicity = 1

 SCF Done:  E(RB3LYP) =  -617.146424301     A.U. after   15 cycles
 Normal termination of Gaussian 16 at Thu Dec 10 17:33:43 2020.

 ----------------------------------------------------------------------
 # B3LYP/6-311++G(d,p) empiricaldispersion=gd3bj scf=xqc pop=npa geom=c
 heck
 ----------------------------------------------------------------------

 ------------------------------------
 CID_62328630_JID_5752_Energie_kation
 ------------------------------------
 Structure from the checkpoint file:  "JID_5752.chk"
 Charge =  1 Multiplicity = 2

 SCF Done:  E(UB3LYP) =  -616.894407934     A.U. after   21 cycles
 Normal termination of Gaussian 16 at Thu Dec 10 17:43:00 2020.
 Gaussian 16:  ES64L-G16RevA.03 25-Dec-2016

 ----------------------------------------------------------------------
 # B3LYP/6-311++G(d,p) empiricaldispersion=gd3bj scf=xqc pop=npa geom=c
 heck
 ----------------------------------------------------------------------

 -----------------------------------
 CID_62328630_JID_5752_Energie_anion
 -----------------------------------
 Structure from the checkpoint file:  "JID_5752.chk"
 Charge = -1 Multiplicity = 2

                         Standard orientation:
 ---------------------------------------------------------------------
 Center     Atomic      Atomic             Coordinates (Angstroms)
 Number     Number       Type             X           Y           Z
 ---------------------------------------------------------------------
      1          6           0        1.309851    3.030030   -0.317844
      2          6           0        1.016726    1.879271    0.650543
      3          7           0        0.477266    0.684397    0.006858
      4          6           0        1.387298   -0.418947   -0.254469
      5          6           0        1.815843   -1.270027    0.979010
      6          6           0        3.300499   -1.633082    0.697609
      7          7           0        3.616132   -1.197649   -0.679940
      8          6           0        2.745057   -0.040520   -0.898048
      9          6           0       -0.902071    0.468213    0.013069
     10          6           0       -1.800501    1.552075    0.120342
     11          6           0       -3.174328    1.335690    0.116674
     12          6           0       -3.704167    0.052169   -0.001595
     13          6           0       -2.836780   -1.039291   -0.109447
     14          6           0       -1.456725   -0.824822   -0.089490
     15          6           0       -3.379016   -2.441594   -0.254519
     16          1           0        2.052018    2.735671   -1.066230
     17          1           0        1.697083    3.900499    0.225347
     18          1           0        0.404577    3.332441   -0.853008
     19          1           0        1.935501    1.603620    1.181717
     20          1           0        0.314474    2.210159    1.423307
     21          1           0        0.888496   -1.069891   -0.977940
     22          1           0        1.182364   -2.155290    1.090468
     23          1           0        1.708094   -0.683460    1.897416
     24          1           0        3.959519   -1.090912    1.386604
     25          1           0        3.519566   -2.698332    0.812030
     26          1           0        3.329162   -1.935731   -1.322736
     27          1           0        2.658852    0.197925   -1.961827
     28          1           0        3.195349    0.823537   -0.396486
     29          1           0       -1.428739    2.567306    0.185638
     30          1           0       -3.840976    2.190286    0.200678
     31          1           0       -4.779527   -0.103163   -0.005749
     32          1           0       -0.809128   -1.693160   -0.123056
     33          1           0       -3.570931   -2.685380   -1.307961
     34          1           0       -2.674178   -3.187003    0.129027
     35          1           0       -4.325473   -2.561348    0.283322
 ---------------------------------------------------------------------

 SCF Done:  E(UB3LYP) =  -617.133649850     A.U. after   32 cycles

 The electronic state is 2-A.
 Alpha  occ. eigenvalues --  -14.22868 -14.19707 -10.11627 -10.10862 -10.10492
 Alpha  occ. eigenvalues --  -10.09168 -10.08932 -10.08386 -10.07643 -10.07117
 Alpha  occ. eigenvalues --  -10.06957 -10.06747 -10.06405 -10.06356 -10.06345
 Alpha  occ. eigenvalues --   -0.85451  -0.81553  -0.75176  -0.67713  -0.67415
 Alpha  occ. eigenvalues --   -0.65455  -0.62927  -0.60962  -0.58743  -0.54175
 Alpha  occ. eigenvalues --   -0.51757  -0.50057  -0.48403  -0.45694  -0.43068
 Alpha  occ. eigenvalues --   -0.40919  -0.39861  -0.38361  -0.35587  -0.35253
 Alpha  occ. eigenvalues --   -0.34306  -0.33414  -0.32608  -0.32159  -0.31587
 Alpha  occ. eigenvalues --   -0.30675  -0.30434  -0.29213  -0.28060  -0.27364
 Alpha  occ. eigenvalues --   -0.26650  -0.26067  -0.25590  -0.25060  -0.24936
 Alpha  occ. eigenvalues --   -0.23859  -0.22507  -0.18532  -0.14795  -0.13798
 Alpha  occ. eigenvalues --   -0.09641   0.04279
 Alpha virt. eigenvalues --    0.06149   0.06566   0.07558   0.07849   0.08285
 Alpha virt. eigenvalues --    0.08542   0.09356   0.09474   0.09683   0.10309
 Alpha virt. eigenvalues --    0.10484   0.10656   0.11844   0.12382   0.12657

  Beta  occ. eigenvalues --  -14.22866 -14.19681 -10.11625 -10.10843 -10.10480
  Beta  occ. eigenvalues --  -10.09149 -10.08908 -10.08386 -10.07638 -10.07093
  Beta  occ. eigenvalues --  -10.06936 -10.06740 -10.06393 -10.06338 -10.06336
  Beta  occ. eigenvalues --   -0.85434  -0.81512  -0.75164  -0.67687  -0.67388
  Beta  occ. eigenvalues --   -0.65427  -0.62881  -0.60925  -0.58706  -0.54120
  Beta  occ. eigenvalues --   -0.51720  -0.49981  -0.48373  -0.45658  -0.43038
  Beta  occ. eigenvalues --   -0.40843  -0.39837  -0.38337  -0.35563  -0.35230
  Beta  occ. eigenvalues --   -0.34269  -0.33379  -0.32578  -0.32126  -0.31552
  Beta  occ. eigenvalues --   -0.30649  -0.30398  -0.29184  -0.28026  -0.27316
  Beta  occ. eigenvalues --   -0.26617  -0.26043  -0.25560  -0.25035  -0.24898
  Beta  occ. eigenvalues --   -0.23836  -0.22471  -0.18510  -0.14782  -0.13764
  Beta  occ. eigenvalues --   -0.09624
  Beta virt. eigenvalues --    0.06238   0.06897   0.07234   0.08077   0.08144
  Beta virt. eigenvalues --    0.08412   0.08922   0.09508   0.09816   0.10067
  Beta virt. eigenvalues --    0.10510   0.10801   0.10931   0.12144   0.12655

 Mulliken charges and spin densities:
               1          2
     1  C    0.808967  -1.234762
     2  C   -0.912989   0.555719
     3  N    0.606204  -0.029524
     4  C   -1.435665   0.925389
     5  C    0.107133  -0.013948
     6  C    0.760526  -1.342558
     7  N   -0.318223   0.298664
     8  C    1.295464  -1.960232
     9  C   -0.696056   0.652158
    10  C    0.024141   0.007249
    11  C    0.202391  -0.508764
    12  C   -0.813310   0.084611
    13  C   -0.005903   0.379132
    14  C   -0.057510  -0.020860
    15  C    1.329390  -1.722145
    16  H    0.089703   0.051319
    17  H   -0.247293   0.374278
    18  H   -0.086764   0.216098
    19  H   -0.168247   0.310407
    20  H   -0.131338   0.286248
    21  H   -0.482505   0.664892
    22  H   -0.138978   0.253666
    23  H    0.001728   0.166846
    24  H    0.032715   0.114516
    25  H   -0.438693   0.628621
    26  H   -0.146048   0.389835
    27  H   -0.042130   0.250608
    28  H   -0.041763   0.219206
    29  H    0.110606   0.002829
    30  H   -0.146234   0.302770
    31  H   -0.015110   0.133296
    32  H    0.356078  -0.284376
    33  H    0.022066   0.143160
    34  H   -0.333513   0.487077
    35  H   -0.088840   0.218573
 Sum of Mulliken charges =  -1.00000   1.00000

 Dipole moment (field-independent basis, Debye):
    X=             -2.9456    Y=              3.5296    Z=              0.8646  Tot=              4.6779
 Quadrupole moment (field-independent basis, Debye-Ang):
   XX=           -162.9483   YY=           -152.2645   ZZ=           -125.5779
   XY=              4.3783   XZ=              3.5064   YZ=             -2.6730

 Summary of Natural Population Analysis:

                                       Natural Population
                Natural  -----------------------------------------------
    Atom  No    Charge         Core      Valence    Rydberg      Total
 -----------------------------------------------------------------------
      C    1   -0.28809      0.99965     2.28392    0.00452     3.28809
      C    2   -0.08827      0.99962     2.07731    0.01135     3.08827
      N    3   -0.25428      0.99963     2.74184    0.01281     3.75428
      C    4   -0.01206      0.99957     1.99785    0.01465     3.01206
      C    5   -0.20958      0.99962     2.20189    0.00807     3.20958
      C    6   -0.09166      0.99965     2.08117    0.01084     3.09166
      N    7   -0.33396      0.99977     2.82143    0.01276     3.83396
      C    8   -0.09075      0.99961     2.07907    0.01207     3.09075
      C    9    0.10654      0.99948     1.88276    0.01122     2.89346
      C   10   -0.13441      0.99953     2.12700    0.00788     3.13441
      C   11   -0.09025      0.99957     2.08107    0.00961     3.09025
      C   12   -0.12940      0.99951     2.12039    0.00951     3.12940
      C   13   -0.00784      0.99952     1.99766    0.01066     3.00784
      C   14   -0.13124      0.99948     2.12294    0.00882     3.13124
      C   15   -0.29015      0.99964     2.28550    0.00502     3.29015
      H   16    0.09911      0.00000     0.39957    0.00132     0.40089
      H   17    0.09699      0.00000     0.40171    0.00130     0.40301
      H   18    0.09821      0.00000     0.40037    0.00142     0.40179
      H   19    0.09594      0.00000     0.40253    0.00152     0.40406
      H   20    0.09734      0.00000     0.40113    0.00153     0.40266
      H   21    0.10229      0.00000     0.39480    0.00291     0.39771
      H   22    0.10391      0.00000     0.39433    0.00176     0.39609
      H   23    0.09859      0.00000     0.40012    0.00129     0.40141
      H   24    0.08708      0.00000     0.41152    0.00139     0.41292
      H   25    0.09839      0.00000     0.40001    0.00160     0.40161
      H   26    0.17273      0.00000     0.32311    0.00416     0.32727
      H   27    0.09957      0.00000     0.39933    0.00110     0.40043
      H   28    0.08901      0.00000     0.40932    0.00167     0.41099
      H   29    0.10094      0.00000     0.39754    0.00152     0.39906
      H   30    0.09694      0.00000     0.40224    0.00082     0.40306
      H   31    0.09674      0.00000     0.40241    0.00086     0.40326
      H   32    0.10373      0.00000     0.39395    0.00232     0.39627
      H   33    0.10335      0.00000     0.39532    0.00132     0.39665
      H   34    0.10479      0.00000     0.39392    0.00129     0.39521
      H   35    0.09974      0.00000     0.39920    0.00107     0.40026
 =======================================================================
   * Total *    0.00000     14.99384    40.82423    0.18193    56.00000

 Normal termination of Gaussian 16 at Thu Dec 10 17:56:31 2020.
