 Gaussian 16, Revision A.03,

 -----------------------------------------------------------
 # opt freq B3LYP/6-31G(d) empiricaldispersion=gd3bj scf=xqc
 -----------------------------------------------------------

 ------------------------------
 CID_89038780_JID_1906_neutraal
 ------------------------------
 Symbolic Z-matrix:
 Charge =  0 Multiplicity = 1

 SCF Done:  E(RB3LYP) =  -504.246630734     A.U. after   13 cycles
 SCF Done:  E(RB3LYP) =  -504.249574699     A.U. after   11 cycles
 SCF Done:  E(RB3LYP) =  -504.249995195     A.U. after   11 cycles
 SCF Done:  E(RB3LYP) =  -504.250123755     A.U. after   11 cycles
 SCF Done:  E(RB3LYP) =  -504.250160926     A.U. after    9 cycles
 SCF Done:  E(RB3LYP) =  -504.250176230     A.U. after    9 cycles
 SCF Done:  E(RB3LYP) =  -504.250181057     A.U. after    9 cycles
 SCF Done:  E(RB3LYP) =  -504.250182837     A.U. after    8 cycles
 SCF Done:  E(RB3LYP) =  -504.250183257     A.U. after    8 cycles
 SCF Done:  E(RB3LYP) =  -504.250183323     A.U. after    7 cycles
 Optimization completed.
    -- Stationary point found.

 1\1\GINC-NODE122\FOpt\RB3LYP\6-31G(d)\C9H18O2\VSC10255\08-Dec-2020\0\\
 # opt freq B3LYP/6-31G(d) empiricaldispersion=gd3bj scf=xqc\\CID_89038
 780_JID_1906_neutraal\\0,1\C,0.8121281309,-0.0820389734,0.1093627622\C
 ,0.7352471108,0.7488367023,1.4015944984\C,1.11010508,2.1970876179,1.17
 42558135\C,0.2234531144,3.1767422828,0.9452141237\C,-1.2728225074,3.01
 47196782,0.9116263267\C,-1.9459129419,3.2434978436,2.283875036\C,-1.74
 18132167,4.6746583305,2.7900882068\C,-3.4408170235,2.9055723259,2.2282
 994698\O,-3.7043345998,1.5480894233,1.8889958996\C,2.5874063279,2.5042

 Normal termination of Gaussian 16 at Tue Dec  8 21:35:05 2020.

 --------------------------------------------------------------------
 #N Geom=AllCheck Guess=TCheck SCRF=Check GenChk RB3LYP/6-31G(d) Freq
 --------------------------------------------------------------------

 Structure from the checkpoint file:  "JID_1906.chk"
 ------------------------------
 CID_89038780_JID_1906_neutraal
 ------------------------------
 Charge =  0 Multiplicity = 1

 SCF Done:  E(RB3LYP) =  -504.250183323     A.U. after    1 cycles

  Exact polarizability: 122.687   6.806 101.878  -4.594  -3.191  86.298
 Approx polarizability: 157.503   9.587 136.662 -13.011  -7.519 133.328

                      1                      2                      3
                      A                      A                      A
 Frequencies --     25.3971                40.8874                54.7089
 Red. masses --      4.5354                 3.0691                 4.6337
 Frc consts  --      0.0017                 0.0030                 0.0082
 IR Inten    --      0.5749                 0.4219                 1.6541

                      4                      5                      6
                      A                      A                      A
 Frequencies --     63.2339               113.8995               133.2717
 Red. masses --      2.6289                 3.4435                 2.2259
 Frc consts  --      0.0062                 0.0263                 0.0233
 IR Inten    --      0.3860                 2.7744                 6.9953

                      7                      8                      9
                      A                      A                      A
 Frequencies --    196.3566               215.5750               223.1920
 Red. masses --      1.9226                 1.4928                 1.5226
 Frc consts  --      0.0437                 0.0409                 0.0447
 IR Inten    --      0.3146                 2.1764                 0.7732

                     10                     11                     12
                      A                      A                      A
 Frequencies --    240.3302               262.3790               294.3221
 Red. masses --      1.7467                 2.1528                 1.6342
 Frc consts  --      0.0594                 0.0873                 0.0834
 IR Inten    --      5.9452                 8.3636                72.9603

                     13                     14                     15
                      A                      A                      A
 Frequencies --    315.2760               346.1756               359.1740
 Red. masses --      1.4105                 2.4299                 1.5737
 Frc consts  --      0.0826                 0.1716                 0.1196
 IR Inten    --     97.1102                 0.7889                71.5557

                     16                     17                     18
                      A                      A                      A
 Frequencies --    398.6913               424.1260               471.7518
 Red. masses --      1.7280                 2.5087                 2.2667
 Frc consts  --      0.1618                 0.2659                 0.2972
 IR Inten    --     37.4047                 1.0100                32.0020

                     19                     20                     21
                      A                      A                      A
 Frequencies --    493.9784               598.8362               662.9129
 Red. masses --      2.8704                 2.9580                 3.0186
 Frc consts  --      0.4127                 0.6250                 0.7816
 IR Inten    --      2.9880                 4.7683                 5.0059

                     22                     23                     24
                      A                      A                      A
 Frequencies --    768.8204               813.8455               817.1199
 Red. masses --      2.9279                 1.3061                 1.8961
 Frc consts  --      1.0197                 0.5097                 0.7459
 IR Inten    --      8.5047                 3.2788                 7.3051

                     25                     26                     27
                      A                      A                      A
 Frequencies --    893.3696               906.9859               922.8060
 Red. masses --      1.5032                 1.4809                 1.3985
 Frc consts  --      0.7068                 0.7178                 0.7017
 IR Inten    --      5.2907                18.3562                 6.6910

                     28                     29                     30
                      A                      A                      A
 Frequencies --    953.0755               966.6544              1006.1450
 Red. masses --      1.6539                 1.5403                 2.1420
 Frc consts  --      0.8851                 0.8480                 1.2776
 IR Inten    --      7.6173                 9.7944                 7.7620

                     31                     32                     33
                      A                      A                      A
 Frequencies --   1030.5088              1063.3095              1078.0107
 Red. masses --      3.2612                 2.6286                 4.7319
 Frc consts  --      2.0405                 1.7510                 3.2399
 IR Inten    --     38.5452                71.4067                78.1415

                     34                     35                     36
                      A                      A                      A
 Frequencies --   1088.1331              1099.8787              1118.6782
 Red. masses --      1.9008                 1.9210                 1.6569
 Frc consts  --      1.3260                 1.3692                 1.2217
 IR Inten    --     14.1686                13.0534                 4.0028

                     37                     38                     39
                      A                      A                      A
 Frequencies --   1148.9838              1173.6132              1199.4309
 Red. masses --      2.2502                 1.8616                 1.3356
 Frc consts  --      1.7502                 1.5107                 1.1320
 IR Inten    --      3.6813                 1.2219                 9.5927

                     40                     41                     42
                      A                      A                      A
 Frequencies --   1216.2961              1237.2876              1290.0730
 Red. masses --      1.1498                 1.8480                 1.2838
 Frc consts  --      1.0022                 1.6668                 1.2588
 IR Inten    --     18.9544                 9.0303                 2.6449

                     43                     44                     45
                      A                      A                      A
 Frequencies --   1324.0567              1325.7396              1350.0511
 Red. masses --      1.2516                 1.3106                 1.3332
 Frc consts  --      1.2928                 1.3572                 1.4317
 IR Inten    --      1.2076                 7.3276                 3.0780

                     46                     47                     48
                      A                      A                      A
 Frequencies --   1367.7241              1370.1060              1393.1989
 Red. masses --      1.2985                 1.3703                 1.4021
 Frc consts  --      1.4312                 1.5155                 1.6035
 IR Inten    --      3.3544                 1.6283                 4.5667

                     49                     50                     51
                      A                      A                      A
 Frequencies --   1408.4564              1418.1660              1432.1774
 Red. masses --      1.2106                 1.4433                 1.2744
 Frc consts  --      1.4150                 1.7103                 1.5401
 IR Inten    --      5.4005                10.6216                46.8165

                     52                     53                     54
                      A                      A                      A
 Frequencies --   1434.6785              1439.3819              1441.1677
 Red. masses --      1.3218                 1.2250                 1.2294
 Frc consts  --      1.6030                 1.4953                 1.5044
 IR Inten    --      5.3745                29.1814                25.3262

                     55                     56                     57
                      A                      A                      A
 Frequencies --   1513.1940              1523.7922              1525.3210
 Red. masses --      1.0921                 1.0629                 1.0656
 Frc consts  --      1.4733                 1.4541                 1.4607
 IR Inten    --      1.3426                 1.5824                 0.9808

                     58                     59                     60
                      A                      A                      A
 Frequencies --   1530.7842              1533.0450              1533.8358
 Red. masses --      1.0628                 1.0568                 1.0766
 Frc consts  --      1.4673                 1.4634                 1.4923
 IR Inten    --      1.9579                 1.2269                 3.1994

                     61                     62                     63
                      A                      A                      A
 Frequencies --   1534.1680              1548.3990              1744.3909
 Red. masses --      1.0516                 1.0880                 7.0577
 Frc consts  --      1.4583                 1.5369                12.6532
 IR Inten    --      7.2725                 4.4753                 0.9357

                     64                     65                     66
                      A                      A                      A
 Frequencies --   2985.8110              3009.1335              3023.5748
 Red. masses --      1.0707                 1.0681                 1.0666
 Frc consts  --      5.6240                 5.6985                 5.7451
 IR Inten    --     51.7890                60.0510                22.1055

                     67                     68                     69
                      A                      A                      A
 Frequencies --   3039.6036              3045.8250              3048.1011
 Red. masses --      1.0531                 1.0634                 1.0364
 Frc consts  --      5.7324                 5.8123                 5.6731
 IR Inten    --     11.6315                53.6600                21.5800

                     70                     71                     72
                      A                      A                      A
 Frequencies --   3063.1457              3080.0938              3080.8769
 Red. masses --      1.0618                 1.0956                 1.0950
 Frc consts  --      5.8699                 6.1242                 6.1239
 IR Inten    --     14.1666                 6.5561                56.9758

                     73                     74                     75
                      A                      A                      A
 Frequencies --   3092.3433              3096.7237              3105.0328
 Red. masses --      1.0945                 1.1017                 1.0997
 Frc consts  --      6.1666                 6.2248                 6.2469
 IR Inten    --     20.6768                 1.4867                54.7822

                     76                     77                     78
                      A                      A                      A
 Frequencies --   3118.7269              3121.4469              3122.3987
 Red. masses --      1.1025                 1.1032                 1.1008
 Frc consts  --      6.3180                 6.3333                 6.3231
 IR Inten    --     40.0259                54.1240                22.1493

                     79                     80                     81
                      A                      A                      A
 Frequencies --   3143.8920              3728.8402              3763.9650
 Red. masses --      1.0886                 1.0660                 1.0662
 Frc consts  --      6.3396                 8.7332                 8.8998
 IR Inten    --     32.5504                 7.3377                10.4196

 - Thermochemistry -
 -------------------
 Temperature   298.150 Kelvin.  Pressure   1.00000 Atm.
 Atom     1 has atomic number  6 and mass  12.00000

 Molecular mass:   158.13068 amu.
 Principal axes and moments of inertia in atomic units:
                           1         2         3
     Eigenvalues --  1219.518163260.872704004.34957
           X            0.99942   0.03388   0.00145
           Y           -0.03389   0.99942   0.00426
           Z           -0.00130  -0.00430   0.99999
 This molecule is an asymmetric top.
 Rotational symmetry number  1.
 Warning -- assumption of classical behavior for rotation
           may cause significant error
 Rotational temperatures (Kelvin)      0.07102     0.02656     0.02163
 Rotational constants (GHZ):           1.47988     0.55345     0.45070
 Zero-point vibrational energy     688384.3 (Joules/Mol)
                                  164.52780 (Kcal/Mol)
 Warning -- explicit consideration of  20 degrees of freedom as
           vibrations may cause significant error
 Vibrational temperatures:     36.54    58.83    78.71    90.98   163.88
          (Kelvin)            191.75   282.51   310.16   321.12   345.78
                              377.50   423.46   453.61   498.07   516.77
                              573.63   610.22   678.75   710.72   861.59
                              953.78  1106.16  1170.94  1175.65  1285.36
                             1304.95  1327.71  1371.26  1390.80  1447.62
                             1482.67  1529.87  1551.02  1565.58  1582.48
                             1609.53  1653.13  1688.57  1725.71  1749.98
                             1780.18  1856.13  1905.02  1907.44  1942.42
                             1967.85  1971.28  2004.50  2026.45  2040.42
                             2060.58  2064.18  2070.95  2073.52  2177.15
                             2192.40  2194.60  2202.46  2205.71  2206.85
                             2207.33  2227.80  2509.79  4295.92  4329.47
                             4350.25  4373.31  4382.26  4385.54  4407.18
                             4431.57  4432.69  4449.19  4455.49  4467.45
                             4487.15  4491.07  4492.44  4523.36  5364.97
                             5415.51

 Zero-point correction=                           0.262192 (Hartree/Particle)
 Thermal correction to Energy=                    0.276190
 Thermal correction to Enthalpy=                  0.277134
 Thermal correction to Gibbs Free Energy=         0.220264
 Sum of electronic and zero-point Energies=           -503.987992
 Sum of electronic and thermal Energies=              -503.973993
 Sum of electronic and thermal Enthalpies=            -503.973049
 Sum of electronic and thermal Free Energies=         -504.029919

                     E (Thermal)             CV                S
                      KCal/Mol        Cal/Mol-Kelvin    Cal/Mol-Kelvin
 Total                  173.312             50.113            119.693
 Electronic               0.000              0.000              0.000
 Translational            0.889              2.981             41.084
 Rotational               0.889              2.981             31.144
 Vibrational            171.534             44.151             47.465
 Vibration     1          0.593              1.985              6.160
 Vibration     2          0.594              1.981              5.216
 Vibration     3          0.596              1.976              4.639
 Vibration     4          0.597              1.972              4.354
 Vibration     5          0.607              1.938              3.201
 Vibration     6          0.613              1.920              2.898
 Vibration     7          0.636              1.845              2.167
 Vibration     8          0.645              1.817              1.996
 Vibration     9          0.649              1.806              1.933
 Vibration    10          0.657              1.779              1.800
 Vibration    11          0.670              1.742              1.646
 Vibration    12          0.689              1.684              1.449
 Vibration    13          0.703              1.644              1.334
 Vibration    14          0.724              1.583              1.184
 Vibration    15          0.734              1.556              1.126
 Vibration    16          0.765              1.473              0.967
 Vibration    17          0.786              1.418              0.878
 Vibration    18          0.829              1.313              0.733
 Vibration    19          0.850              1.263              0.673
 Vibration    20          0.957              1.034              0.452

                           ! Non-Optimized Parameters !

 1\1\GINC-NODE122\Freq\RB3LYP\6-31G(d)\C9H18O2\VSC10255\08-Dec-2020\0\\
 #N Geom=AllCheck Guess=TCheck SCRF=Check GenChk RB3LYP/6-31G(d) Freq\\
 CID_89038780_JID_1906_neutraal\\0,1\C,0.8121281309,-0.0820389734,0.109
 3627622\C,0.7352471108,0.7488367023,1.4015944984\C,1.11010508,2.197087
 6179,1.1742558135\C,0.2234531144,3.1767422828,0.9452141237\C,-1.272822
 5074,3.0147196782,0.9116263267\C,-1.9459129419,3.2434978436,2.28387503
 6\C,-1.7418132167,4.6746583305,2.7900882068\C,-3.4408170235,2.90557232
 59,2.2282994698\O,-3.7043345998,1.5480894233,1.8889958996\C,2.58740632

 Normal termination of Gaussian 16 at Tue Dec  8 21:41:54 2020.

 ----------------------------------------------------------------------
 # B3LYP/6-311++G(d,p) empiricaldispersion=gd3bj scf=xqc pop=npa geom=c
 heck
 ----------------------------------------------------------------------

 --------------------------------------
 CID_89038780_JID_1906_Energie_neutraal
 --------------------------------------
 Structure from the checkpoint file:  "JID_1906.chk"
 Charge =  0 Multiplicity = 1

 SCF Done:  E(RB3LYP) =  -504.417214840     A.U. after   14 cycles
 Normal termination of Gaussian 16 at Tue Dec  8 21:46:16 2020.

 ----------------------------------------------------------------------
 # B3LYP/6-311++G(d,p) empiricaldispersion=gd3bj scf=xqc pop=npa geom=c
 heck
 ----------------------------------------------------------------------

 ------------------------------------
 CID_89038780_JID_1906_Energie_kation
 ------------------------------------
 Structure from the checkpoint file:  "JID_1906.chk"
 Charge =  1 Multiplicity = 2

 SCF Done:  E(UB3LYP) =  -504.096117499     A.U. after   23 cycles
 Normal termination of Gaussian 16 at Tue Dec  8 21:53:41 2020.
 Gaussian 16:  ES64L-G16RevA.03 25-Dec-2016

 -----------------------------------
 CID_89038780_JID_1906_Energie_anion
 -----------------------------------
 Structure from the checkpoint file:  "JID_1906.chk"
 Charge = -1 Multiplicity = 2

                         Standard orientation:
 ---------------------------------------------------------------------
 Center     Atomic      Atomic             Coordinates (Angstroms)
 Number     Number       Type             X           Y           Z
 ---------------------------------------------------------------------
      1          6           0        1.938117    2.389532    0.270286
      2          6           0        1.466743    1.172266   -0.543469
      3          6           0        1.495470   -0.104714    0.267783
      4          6           0        0.434891   -0.608597    0.915554
      5          6           0       -0.951284   -0.021457    0.917631
      6          6           0       -1.853849   -0.574654   -0.208338
      7          6           0       -2.091738   -2.080816   -0.063375
      8          6           0       -3.191365    0.173862   -0.261194
      9          8           0       -3.053276    1.566368   -0.524226
     10          6           0        2.826093   -0.815292    0.321856
     11          8           0        3.266578   -1.238044   -0.971361
     12          1           0        1.275397    2.568764    1.124516
     13          1           0        1.950856    3.293363   -0.348737
     14          1           0        2.950178    2.238935    0.662400
     15          1           0        0.461836    1.363713   -0.933999
     16          1           0        2.122188    1.038995   -1.411831
     17          1           0        0.567084   -1.537024    1.471740
     18          1           0       -1.434208   -0.220450    1.885485
     19          1           0       -0.887748    1.067256    0.812180
     20          1           0       -1.342208   -0.387353   -1.162196
     21          1           0       -2.588411   -2.311596    0.888134
     22          1           0       -2.726085   -2.461552   -0.872245
     23          1           0       -1.148080   -2.634728   -0.089699
     24          1           0       -3.798128   -0.221880   -1.082745
     25          1           0       -3.752924   -0.000560    0.672311
     26          1           0       -2.741459    1.990819    0.288250
     27          1           0        3.615339   -0.141944    0.676247
     28          1           0        2.775314   -1.663281    1.021997
     29          1           0        2.556169   -1.788851   -1.337520
 ---------------------------------------------------------------------

 SCF Done:  E(UB3LYP) =  -504.403814556     A.U. after   32 cycles

 The electronic state is 2-A.
 Alpha  occ. eigenvalues --  -19.02670 -19.02083 -10.11850 -10.11159 -10.07321
 Alpha  occ. eigenvalues --  -10.07299 -10.06825 -10.06788 -10.06674 -10.06238
 Alpha  occ. eigenvalues --  -10.05773  -0.92583  -0.92146  -0.72708  -0.69573
 Alpha  occ. eigenvalues --   -0.64257  -0.60925  -0.57448  -0.55080  -0.52664
 Alpha  occ. eigenvalues --   -0.47186  -0.42981  -0.41092  -0.40386  -0.38628
 Alpha  occ. eigenvalues --   -0.35557  -0.34638  -0.34023  -0.33324  -0.31824
 Alpha  occ. eigenvalues --   -0.31446  -0.29342  -0.28778  -0.27643  -0.26963
 Alpha  occ. eigenvalues --   -0.25231  -0.24722  -0.24351  -0.23282  -0.22713
 Alpha  occ. eigenvalues --   -0.22079  -0.18414  -0.17505  -0.14559   0.04483
 Alpha virt. eigenvalues --    0.06438   0.07131   0.07876   0.08575   0.09047
 Alpha virt. eigenvalues --    0.09871   0.10103   0.10532   0.10917   0.11379
 Alpha virt. eigenvalues --    0.12309   0.12818   0.12911   0.13558   0.14211

  Beta  occ. eigenvalues --  -19.02653 -19.02054 -10.11835 -10.11136 -10.07316
  Beta  occ. eigenvalues --  -10.07292 -10.06811 -10.06777 -10.06643 -10.06205
  Beta  occ. eigenvalues --  -10.05736  -0.92547  -0.92088  -0.72675  -0.69538
  Beta  occ. eigenvalues --   -0.64218  -0.60872  -0.57367  -0.55017  -0.52597
  Beta  occ. eigenvalues --   -0.47118  -0.42928  -0.41021  -0.40343  -0.38594
  Beta  occ. eigenvalues --   -0.35513  -0.34590  -0.33969  -0.33285  -0.31789
  Beta  occ. eigenvalues --   -0.31420  -0.29292  -0.28731  -0.27590  -0.26925
  Beta  occ. eigenvalues --   -0.25202  -0.24688  -0.24310  -0.23247  -0.22674
  Beta  occ. eigenvalues --   -0.22043  -0.18389  -0.17468  -0.14523
  Beta virt. eigenvalues --    0.06780   0.07407   0.07761   0.08419   0.09056
  Beta virt. eigenvalues --    0.09332   0.10368   0.10520   0.10950   0.11219
  Beta virt. eigenvalues --    0.11613   0.12731   0.13019   0.13350   0.13796

 Mulliken charges and spin densities:
               1          2
     1  C    0.835045  -1.487924
     2  C   -2.388983   2.132083
     3  C   -1.282284   1.866051
     4  C   -0.183032  -0.174387
     5  C    2.704939  -3.116125
     6  C   -1.964599   2.338927
     7  C    1.349968  -2.105748
     8  C    0.973582  -1.470141
     9  O   -0.248247   0.016625
    10  C    1.361967  -1.867003
    11  O   -0.240654   0.030020
    12  H   -0.389566   0.544838
    13  H   -0.177207   0.303480
    14  H   -0.063128   0.192101
    15  H    0.079444   0.123799
    16  H    0.065762   0.082561
    17  H   -0.256929   0.431180
    18  H   -0.566583   0.747763
    19  H    0.636371  -0.547369
    20  H   -0.040111   0.209006
    21  H   -0.142668   0.285737
    22  H   -0.257302   0.383236
    23  H   -0.229160   0.392267
    24  H    0.103649   0.056089
    25  H   -0.288250   0.440454
    26  H   -0.187632   0.430876
    27  H    0.084085   0.066917
    28  H   -0.356363   0.531375
    29  H    0.067885   0.163311
 Sum of Mulliken charges =  -1.00000   1.00000

 Dipole moment (field-independent basis, Debye):
    X=              1.7061    Y=              0.1807    Z=             -1.7739  Tot=              2.4678
 Quadrupole moment (field-independent basis, Debye-Ang):
   XX=           -132.8154   YY=           -122.2812   ZZ=           -103.8303
   XY=              3.7058   XZ=              4.8484   YZ=              0.0157

 Summary of Natural Population Analysis:

                                       Natural Population
                Natural  -----------------------------------------------
    Atom  No    Charge         Core      Valence    Rydberg      Total
 -----------------------------------------------------------------------
      C    1   -0.28058      0.99966     2.27589    0.00503     3.28058
      C    2   -0.21066      0.99959     2.20315    0.00793     3.21066
      C    3   -0.02455      0.99946     2.01398    0.01110     3.02455
      C    4   -0.08209      0.99945     2.07093    0.01170     3.08209
      C    5   -0.21291      0.99959     2.20154    0.01178     3.21291
      C    6   -0.11943      0.99959     2.11004    0.00980     3.11943
      C    7   -0.28768      0.99964     2.28199    0.00605     3.28768
      C    8   -0.00552      0.99956     1.99260    0.01336     3.00552
      O    9   -0.36999      0.99990     3.36352    0.00657     4.36999
      C   10   -0.01816      0.99953     2.00635    0.01228     3.01816
      O   11   -0.36966      0.99990     3.36332    0.00643     4.36966
      H   12    0.09929      0.00000     0.39928    0.00143     0.40071
      H   13    0.09753      0.00000     0.40152    0.00095     0.40247
      H   14    0.09384      0.00000     0.40499    0.00118     0.40616
      H   15    0.10286      0.00000     0.39550    0.00164     0.39714
      H   16    0.10483      0.00000     0.39368    0.00150     0.39517
      H   17    0.09572      0.00000     0.40277    0.00150     0.40428
      H   18    0.10352      0.00000     0.39450    0.00197     0.39648
      H   19    0.10158      0.00000     0.39628    0.00214     0.39842
      H   20    0.09479      0.00000     0.40299    0.00222     0.40521
      H   21    0.09819      0.00000     0.40032    0.00149     0.40181
      H   22    0.09855      0.00000     0.40036    0.00108     0.40145
      H   23    0.10458      0.00000     0.39404    0.00138     0.39542
      H   24    0.08465      0.00000     0.41417    0.00118     0.41535
      H   25    0.07711      0.00000     0.42130    0.00159     0.42289
      H   26    0.23019      0.00000     0.26547    0.00433     0.26981
      H   27    0.08606      0.00000     0.41235    0.00159     0.41394
      H   28    0.08048      0.00000     0.41776    0.00176     0.41952
      H   29    0.22745      0.00000     0.26911    0.00344     0.27255
 =======================================================================
   * Total *   -0.00000     10.99588    32.86970    0.13442    44.00000

 Normal termination of Gaussian 16 at Tue Dec  8 22:03:30 2020.
