 Gaussian 16, Revision A.03,

 -----------------------------------------------------------
 # opt freq B3LYP/6-31G(d) empiricaldispersion=gd3bj scf=xqc
 -----------------------------------------------------------

 ------------------------------
 CID_152633752_JID_181_neutraal
 ------------------------------
 Symbolic Z-matrix:
 Charge =  0 Multiplicity = 1

 SCF Done:  E(RB3LYP) =  -834.750826532     A.U. after   15 cycles
 SCF Done:  E(RB3LYP) =  -834.758291345     A.U. after   15 cycles
 SCF Done:  E(RB3LYP) =  -834.759649471     A.U. after   15 cycles
 SCF Done:  E(RB3LYP) =  -834.760438909     A.U. after   13 cycles
 SCF Done:  E(RB3LYP) =  -834.760516310     A.U. after   12 cycles
 SCF Done:  E(RB3LYP) =  -834.760539857     A.U. after   11 cycles
 SCF Done:  E(RB3LYP) =  -834.760556098     A.U. after   11 cycles
 SCF Done:  E(RB3LYP) =  -834.760557211     A.U. after   10 cycles
 SCF Done:  E(RB3LYP) =  -834.760559857     A.U. after    9 cycles
 SCF Done:  E(RB3LYP) =  -834.760560410     A.U. after    8 cycles
 SCF Done:  E(RB3LYP) =  -834.760561208     A.U. after   10 cycles
 SCF Done:  E(RB3LYP) =  -834.760561485     A.U. after    9 cycles
 SCF Done:  E(RB3LYP) =  -834.760561595     A.U. after    8 cycles
 Optimization completed.
    -- Stationary point found.
 Normal termination of Gaussian 16 at Tue Dec  8 10:19:54 2020.

 --------------------------------------------------------------------
 #N Geom=AllCheck Guess=TCheck SCRF=Check GenChk RB3LYP/6-31G(d) Freq
 --------------------------------------------------------------------

 Structure from the checkpoint file:  "JID_181.chk"
 ------------------------------
 CID_152633752_JID_181_neutraal
 ------------------------------
 Charge =  0 Multiplicity = 1

 SCF Done:  E(RB3LYP) =  -834.760561595     A.U. after    1 cycles

  Exact polarizability: 107.123 -12.664 100.827   1.399  -0.342  71.451
 Approx polarizability: 162.871 -38.890 155.004  12.850  -9.044 112.552

                      1                      2                      3
                      A                      A                      A
 Frequencies --     26.9093                57.3677                86.9217
 Red. masses --      7.8805                 2.7858                 5.0984
 Frc consts  --      0.0034                 0.0054                 0.0227
 IR Inten    --      0.3508                 0.8186                 0.7366

                      4                      5                      6
                      A                      A                      A
 Frequencies --    114.1207               166.9337               205.3653
 Red. masses --      2.9228                 3.9369                 2.8481
 Frc consts  --      0.0224                 0.0646                 0.0708
 IR Inten    --      0.1900                 5.5427                 0.3696

                      7                      8                      9
                      A                      A                      A
 Frequencies --    224.9753               236.0192               266.0710
 Red. masses --      2.0559                 1.0904                 1.1837
 Frc consts  --      0.0613                 0.0358                 0.0494
 IR Inten    --      2.3631                 7.8527                 2.5655

                     10                     11                     12
                      A                      A                      A
 Frequencies --    293.9850               300.4156               354.0717
 Red. masses --      1.9505                 2.7408                 2.3629
 Frc consts  --      0.0993                 0.1457                 0.1745
 IR Inten    --      1.8687                 0.1844                 1.3857

                     13                     14                     15
                      A                      A                      A
 Frequencies --    401.2430               457.0399               462.6547
 Red. masses --      3.1310                 4.4181                 3.0244
 Frc consts  --      0.2970                 0.5437                 0.3814
 IR Inten    --      0.4834                 3.8728                 0.4292

                     16                     17                     18
                      A                      A                      A
 Frequencies --    546.7628               574.3730               633.8285
 Red. masses --      3.7248                13.4680                 5.3253
 Frc consts  --      0.6561                 2.6178                 1.2605
 IR Inten    --      1.8537                 9.0604                12.2330

                     19                     20                     21
                      A                      A                      A
 Frequencies --    727.7626               749.2375               824.5800
 Red. masses --      4.3106                 2.4073                 1.8281
 Frc consts  --      1.3451                 0.7962                 0.7323
 IR Inten    --     11.3592                 4.5731                19.6821

                     22                     23                     24
                      A                      A                      A
 Frequencies --    856.2729               902.3085               910.7407
 Red. masses --      2.7274                 2.2164                 1.8923
 Frc consts  --      1.1782                 1.0632                 0.9248
 IR Inten    --     18.6723                47.9372                40.7160

                     25                     26                     27
                      A                      A                      A
 Frequencies --    942.9788              1001.2671              1051.4714
 Red. masses --      1.8089                 1.2135                 1.7862
 Frc consts  --      0.9477                 0.7168                 1.1635
 IR Inten    --     13.2814                12.5403                10.9361

                     28                     29                     30
                      A                      A                      A
 Frequencies --   1084.6480              1091.1552              1159.5654
 Red. masses --      1.4408                 2.3202                 2.0830
 Frc consts  --      0.9987                 1.6276                 1.6502
 IR Inten    --     18.2363                13.7937                96.7587

                     31                     32                     33
                      A                      A                      A
 Frequencies --   1203.1128              1238.8566              1307.7055
 Red. masses --      2.2655                 3.0795                 1.3735
 Frc consts  --      1.9321                 2.7847                 1.3839
 IR Inten    --     49.6530                18.7689                21.6839

                     34                     35                     36
                      A                      A                      A
 Frequencies --   1328.0265              1343.1734              1401.1718
 Red. masses --      1.4417                 5.3888                 1.4124
 Frc consts  --      1.4980                 5.7281                 1.6338
 IR Inten    --     80.5909                77.1275                 3.6333

                     37                     38                     39
                      A                      A                      A
 Frequencies --   1406.0890              1433.7671              1449.5748
 Red. masses --      1.3687                 1.2746                 1.2560
 Frc consts  --      1.5944                 1.5437                 1.5549
 IR Inten    --      5.3763                23.6850                 3.7033

                     40                     41                     42
                      A                      A                      A
 Frequencies --   1499.3389              1514.5396              1519.5113
 Red. masses --      1.0840                 1.0553                 1.0512
 Frc consts  --      1.4357                 1.4262                 1.4300
 IR Inten    --      1.8320                 3.4392                 1.8311

                     43                     44                     45
                      A                      A                      A
 Frequencies --   1527.1169              1532.2193              1540.5220
 Red. masses --      1.0409                 1.0477                 1.0747
 Frc consts  --      1.4302                 1.4492                 1.5026
 IR Inten    --      4.9640                 5.3403                 2.9021

                     46                     47                     48
                      A                      A                      A
 Frequencies --   2257.4993              2607.5422              3040.5316
 Red. masses --     13.9204                 1.0399                 1.0618
 Frc consts  --     41.7980                 4.1659                 5.7836
 IR Inten    --    543.7697                43.6159                19.7714

                     49                     50                     51
                      A                      A                      A
 Frequencies --   3052.3110              3056.8275              3070.0766
 Red. masses --      1.0628                 1.0398                 1.0939
 Frc consts  --      5.8341                 5.7243                 6.0749
 IR Inten    --     25.9428                19.7885                20.5941

                     52                     53                     54
                      A                      A                      A
 Frequencies --   3074.4711              3105.8644              3119.4546
 Red. masses --      1.0415                 1.0999                 1.1023
 Frc consts  --      5.8004                 6.2512                 6.3197
 IR Inten    --      8.1349                15.3932                42.2933

                     55                     56                     57
                      A                      A                      A
 Frequencies --   3140.8912              3145.0380              3159.2552
 Red. masses --      1.1004                 1.1016                 1.1035
 Frc consts  --      6.3961                 6.4196                 6.4891
 IR Inten    --     39.3069                12.7175                 9.6403

 - Thermochemistry -
 -------------------
 Temperature   298.150 Kelvin.  Pressure   1.00000 Atm.
 Atom     1 has atomic number  6 and mass  12.00000

 Molecular mass:   161.06228 amu.
 Principal axes and moments of inertia in atomic units:
                           1         2         3
     Eigenvalues --  1463.835801888.678222921.48837
           X            0.99326   0.11586   0.00433
           Y           -0.11591   0.99318   0.01240
           Z           -0.00287  -0.01282   0.99991
 This molecule is an asymmetric top.
 Rotational symmetry number  1.
 Warning -- assumption of classical behavior for rotation
           may cause significant error
 Rotational temperatures (Kelvin)      0.05917     0.04586     0.02965
 Rotational constants (GHZ):           1.23289     0.95556     0.61775
 Zero-point vibrational energy     441335.5 (Joules/Mol)
                                  105.48172 (Kcal/Mol)
 Warning -- explicit consideration of  17 degrees of freedom as
           vibrations may cause significant error
 Vibrational temperatures:     38.72    82.54   125.06   164.19   240.18
          (Kelvin)            295.47   323.69   339.58   382.82   422.98
                              432.23   509.43   577.30   657.58   665.66
                              786.67   826.39   911.94  1047.09  1077.99
                             1186.39  1231.99  1298.22  1310.35  1356.74
                             1440.60  1512.83  1560.57  1569.93  1668.36
                             1731.01  1782.44  1881.50  1910.73  1932.53
                             2015.97  2023.05  2062.87  2085.61  2157.21
                             2179.08  2186.24  2197.18  2204.52  2216.47
                             3248.04  3751.67  4374.65  4391.59  4398.09
                             4417.16  4423.48  4468.65  4488.20  4519.04
                             4525.01  4545.46

 Zero-point correction=                           0.168096 (Hartree/Particle)
 Thermal correction to Energy=                    0.180029
 Thermal correction to Enthalpy=                  0.180974
 Thermal correction to Gibbs Free Energy=         0.129232
 Sum of electronic and zero-point Energies=           -834.592466
 Sum of electronic and thermal Energies=              -834.580532
 Sum of electronic and thermal Enthalpies=            -834.579588
 Sum of electronic and thermal Free Energies=         -834.631330

                     E (Thermal)             CV                S
                      KCal/Mol        Cal/Mol-Kelvin    Cal/Mol-Kelvin
 Total                  112.970             42.356            108.899
 Electronic               0.000              0.000              0.000
 Translational            0.889              2.981             41.139
 Rotational               0.889              2.981             30.469
 Vibrational            111.193             36.395             37.291
 Vibration     1          0.593              1.984              6.045
 Vibration     2          0.596              1.975              4.546
 Vibration     3          0.601              1.958              3.728
 Vibration     4          0.607              1.938              3.198
 Vibration     5          0.624              1.883              2.470
 Vibration     6          0.640              1.832              2.084
 Vibration     7          0.650              1.803              1.919
 Vibration     8          0.655              1.786              1.833
 Vibration     9          0.672              1.735              1.622
 Vibration    10          0.689              1.685              1.451
 Vibration    11          0.693              1.673              1.415
 Vibration    12          0.730              1.567              1.148
 Vibration    13          0.767              1.467              0.958
 Vibration    14          0.815              1.345              0.775
 Vibration    15          0.820              1.333              0.758
 Vibration    16          0.902              1.147              0.551
 Vibration    17          0.931              1.087              0.496

 Optimization completed.
    -- Stationary point found.
 Normal termination of Gaussian 16 at Tue Dec  8 10:23:27 2020.

 ----------------------------------------------------------------------
 # B3LYP/6-311++G(d,p) empiricaldispersion=gd3bj scf=xqc pop=npa geom=c
 heck
 ----------------------------------------------------------------------

 --------------------------------------
 CID_152633752_JID_181_Energie_neutraal
 --------------------------------------
 Structure from the checkpoint file:  "JID_181.chk"
 Charge =  0 Multiplicity = 1

 SCF Done:  E(RB3LYP) =  -834.916162132     A.U. after   15 cycles
 Normal termination of Gaussian 16 at Tue Dec  8 10:25:04 2020.

 ----------------------------------------------------------------------
 # B3LYP/6-311++G(d,p) empiricaldispersion=gd3bj scf=xqc pop=npa geom=c
 heck
 ----------------------------------------------------------------------

 ------------------------------------
 CID_152633752_JID_181_Energie_kation
 ------------------------------------
 Structure from the checkpoint file:  "JID_181.chk"
 Charge =  1 Multiplicity = 2

 SCF Done:  E(UB3LYP) =  -834.586774628     A.U. after   24 cycles
 Normal termination of Gaussian 16 at Tue Dec  8 10:28:35 2020.
 Gaussian 16:  ES64L-G16RevA.03 25-Dec-2016

 ----------------------------------------------------------------------
 # B3LYP/6-311++G(d,p) empiricaldispersion=gd3bj scf=xqc pop=npa geom=c
 heck
 ----------------------------------------------------------------------

 -----------------------------------
 CID_152633752_JID_181_Energie_anion
 -----------------------------------
 Structure from the checkpoint file:  "JID_181.chk"
 Charge = -1 Multiplicity = 2

                         Standard orientation:
 ---------------------------------------------------------------------
 Center     Atomic      Atomic             Coordinates (Angstroms)
 Number     Number       Type             X           Y           Z
 ---------------------------------------------------------------------
      1          6           0       -3.044273   -0.708971   -0.083334
      2          6           0       -1.928698   -1.745389    0.079500
      3          6           0       -0.581633   -1.373989   -0.558790
      4          6           0        0.148731   -0.146766    0.014074
      5          6           0        0.287581   -0.165345    1.533720
      6          7           0        1.486697   -0.034960   -0.653065
      7          7           0        2.360197   -0.798674   -0.240666
      8          7           0        3.238277   -1.466090    0.061240
      9          8           0       -0.595356    0.976088   -0.452527
     10         16           0        0.018468    2.518745   -0.092816
     11          1           0       -2.816187    0.221062    0.443747
     12          1           0       -3.990911   -1.101128    0.304949
     13          1           0       -3.189279   -0.452496   -1.138552
     14          1           0       -1.783499   -1.973496    1.143311
     15          1           0       -2.248063   -2.688310   -0.382756
     16          1           0        0.102631   -2.225800   -0.454721
     17          1           0       -0.705985   -1.193212   -1.631971
     18          1           0        0.772548   -1.088657    1.865542
     19          1           0        0.887107    0.683228    1.871763
     20          1           0       -0.699971   -0.110590    1.998683
     21          1           0       -0.747463    2.761594    1.001697
 ---------------------------------------------------------------------

 SCF Done:  E(UB3LYP) =  -834.911037907     A.U. after   32 cycles

 The electronic state is 2-A.
 Alpha  occ. eigenvalues --  -88.73826 -19.01164 -14.32732 -14.22732 -14.21678
 Alpha  occ. eigenvalues --  -10.14753 -10.05436 -10.05356 -10.05253 -10.03989
 Alpha  occ. eigenvalues --   -7.82081  -5.78682  -5.78114  -5.77336  -0.99695
 Alpha  occ. eigenvalues --   -0.91833  -0.83442  -0.69006  -0.64053  -0.59353
 Alpha  occ. eigenvalues --   -0.56805  -0.51747  -0.46853  -0.41083  -0.38476
 Alpha  occ. eigenvalues --   -0.37184  -0.35351  -0.33728  -0.32010  -0.31382
 Alpha  occ. eigenvalues --   -0.31272  -0.28972  -0.28365  -0.27855  -0.25658
 Alpha  occ. eigenvalues --   -0.23768  -0.22971  -0.22106  -0.20545  -0.17843
 Alpha  occ. eigenvalues --   -0.15541  -0.12272  -0.10599   0.05164
 Alpha virt. eigenvalues --    0.07261   0.08500   0.09085   0.09494   0.10370
 Alpha virt. eigenvalues --    0.11799   0.12357   0.12509   0.13308   0.14001
 Alpha virt. eigenvalues --    0.14847   0.15427   0.15992   0.16662   0.16861

  Beta  occ. eigenvalues --  -88.73734 -19.00905 -14.32497 -14.22338 -14.21763
  Beta  occ. eigenvalues --  -10.14669 -10.05412 -10.05349 -10.05245 -10.03961
  Beta  occ. eigenvalues --   -7.81992  -5.78407  -5.78057  -5.77281  -0.99206
  Beta  occ. eigenvalues --   -0.91340  -0.83144  -0.68834  -0.63915  -0.59123
  Beta  occ. eigenvalues --   -0.56554  -0.51459  -0.46738  -0.40588  -0.37940
  Beta  occ. eigenvalues --   -0.36999  -0.34695  -0.33503  -0.31685  -0.31167
  Beta  occ. eigenvalues --   -0.30693  -0.28845  -0.28262  -0.27411  -0.25567
  Beta  occ. eigenvalues --   -0.23564  -0.22882  -0.22021  -0.20290  -0.17411
  Beta  occ. eigenvalues --   -0.15101  -0.12141  -0.10296
  Beta virt. eigenvalues --    0.07752   0.08754   0.09580   0.10131   0.10193
  Beta virt. eigenvalues --    0.11204   0.12175   0.12492   0.12690   0.13374
  Beta virt. eigenvalues --    0.14270   0.15110   0.15465   0.16065   0.16557

 Mulliken charges and spin densities:
               1          2
     1  C    0.423348  -1.020624
     2  C    0.064517  -0.165104
     3  C   -0.492358   0.186264
     4  C    0.119226  -0.377680
     5  C   -0.126481  -0.399720
     6  N   -0.650432   0.261876
     7  N    0.635001  -0.088213
     8  N   -0.091014   0.052725
     9  O    0.007122   0.041831
    10  S   -0.361136   0.432153
    11  H   -0.024616   0.180950
    12  H   -0.376621   0.501461
    13  H    0.116139   0.009913
    14  H    0.006272   0.110228
    15  H   -0.649153   0.811234
    16  H    0.021012   0.132012
    17  H   -0.044888   0.252889
    18  H    0.063922   0.096888
    19  H    0.215021  -0.063197
    20  H    0.122132   0.041113
    21  H    0.022988   0.003000
 Sum of Mulliken charges =  -1.00000   1.00000

 Dipole moment (field-independent basis, Debye):
    X=              0.5020    Y=              1.2394    Z=              2.3366  Tot=              2.6921
 Quadrupole moment (field-independent basis, Debye-Ang):
   XX=           -118.4634   YY=           -107.6246   ZZ=            -81.8059
   XY=             -5.8339   XZ=             -0.5143   YZ=              2.2414

 Summary of Natural Population Analysis:

                                       Natural Population
                Natural  -----------------------------------------------
    Atom  No    Charge         Core      Valence    Rydberg      Total
 -----------------------------------------------------------------------
      C    1   -0.28648      0.99966     2.28028    0.00654     3.28648
      C    2   -0.19112      0.99964     2.18260    0.00889     3.19112
      C    3   -0.20011      0.99955     2.18781    0.01275     3.20011
      C    4    0.23598      0.99953     1.74540    0.01910     2.76402
      C    5   -0.31462      0.99960     2.30953    0.00549     3.31462
      N    6   -0.21110      0.99967     2.69661    0.01482     3.71110
      N    7    0.13006      0.99970     2.35410    0.01614     3.36994
      N    8   -0.02232      0.99982     2.50842    0.01408     3.52232
      O    9   -0.33701      0.99987     3.32575    0.01139     4.33701
      S   10    0.15435      4.99964     2.82558    0.02043     7.84565
      H   11    0.10217      0.00000     0.39672    0.00112     0.39783
      H   12    0.09354      0.00000     0.40526    0.00120     0.40646
      H   13    0.09760      0.00000     0.40138    0.00103     0.40240
      H   14    0.09085      0.00000     0.40795    0.00120     0.40915
      H   15    0.09738      0.00000     0.40070    0.00192     0.40262
      H   16    0.10194      0.00000     0.39683    0.00123     0.39806
      H   17    0.10670      0.00000     0.39173    0.00157     0.39330
      H   18    0.10427      0.00000     0.39489    0.00084     0.39573
      H   19    0.11087      0.00000     0.38815    0.00098     0.38913
      H   20    0.10503      0.00000     0.39410    0.00087     0.39497
      H   21    0.03203      0.00000     0.46493    0.00304     0.46797
 =======================================================================
   * Total *    0.00000     13.99668    28.85870    0.14462    43.00000

 Normal termination of Gaussian 16 at Tue Dec  8 10:35:21 2020.
