 Gaussian 16, Revision A.03,

 -----------------------------------------------------------
 # opt freq B3LYP/6-31G(d) empiricaldispersion=gd3bj scf=xqc
 -----------------------------------------------------------

 -------------------------------
 CID_20924677_JID_10555_neutraal
 -------------------------------
 Symbolic Z-matrix:
 Charge =  0 Multiplicity = 1

 SCF Done:  E(RB3LYP) =  -911.389772360     A.U. after   15 cycles
 SCF Done:  E(RB3LYP) =  -911.395569708     A.U. after   13 cycles
 SCF Done:  E(RB3LYP) =  -911.395391217     A.U. after   13 cycles
 SCF Done:  E(RB3LYP) =  -911.397882143     A.U. after   12 cycles
 SCF Done:  E(RB3LYP) =  -911.399335286     A.U. after   12 cycles
 SCF Done:  E(RB3LYP) =  -911.400469109     A.U. after   13 cycles
 SCF Done:  E(RB3LYP) =  -911.401003191     A.U. after   12 cycles
 SCF Done:  E(RB3LYP) =  -911.401395118     A.U. after   12 cycles
 SCF Done:  E(RB3LYP) =  -911.401685689     A.U. after   12 cycles
 SCF Done:  E(RB3LYP) =  -911.401894838     A.U. after   12 cycles
 SCF Done:  E(RB3LYP) =  -911.406746575     A.U. after   10 cycles
 SCF Done:  E(RB3LYP) =  -911.406747996     A.U. after    8 cycles
 SCF Done:  E(RB3LYP) =  -911.406748299     A.U. after    8 cycles
 SCF Done:  E(RB3LYP) =  -911.406748341     A.U. after    8 cycles
 SCF Done:  E(RB3LYP) =  -911.406748359     A.U. after    6 cycles
 Optimization completed.
    -- Stationary point found.
 Normal termination of Gaussian 16 at Sat Dec 12 16:19:55 2020.

 --------------------------------------------------------------------
 #N Geom=AllCheck Guess=TCheck SCRF=Check GenChk RB3LYP/6-31G(d) Freq
 --------------------------------------------------------------------

 Structure from the checkpoint file:  "JID_10555.chk"
 -------------------------------
 CID_20924677_JID_10555_neutraal
 -------------------------------
 Charge =  0 Multiplicity = 1

 SCF Done:  E(RB3LYP) =  -911.406748359     A.U. after    1 cycles

  Exact polarizability: 209.359 -21.595 153.994 -17.889   1.322 145.192
 Approx polarizability: 320.241 -56.918 260.175 -47.214  12.147 253.461

                      1                      2                      3
                      A                      A                      A
 Frequencies --     15.2494                36.2936                54.6172
 Red. masses --      5.8101                 4.3279                 7.1206
 Frc consts  --      0.0008                 0.0034                 0.0125
 IR Inten    --      1.0840                 1.0294                 1.3074

                      4                      5                      6
                      A                      A                      A
 Frequencies --     86.5469                98.7435               130.7496
 Red. masses --      3.6864                 3.7468                 4.8681
 Frc consts  --      0.0163                 0.0215                 0.0490
 IR Inten    --      2.1676                 1.5672                 0.5100

                      7                      8                      9
                      A                      A                      A
 Frequencies --    133.3054               202.0646               227.1461
 Red. masses --      4.8291                 3.4758                 3.8169
 Frc consts  --      0.0506                 0.0836                 0.1160
 IR Inten    --      1.6455                 1.1191                 2.4621

                     10                     11                     12
                      A                      A                      A
 Frequencies --    233.0071               241.9890               260.9999
 Red. masses --      3.4737                 2.2280                 2.6706
 Frc consts  --      0.1111                 0.0769                 0.1072
 IR Inten    --      0.5228                 2.0687                 0.3158

                     13                     14                     15
                      A                      A                      A
 Frequencies --    276.8627               295.3314               330.4986
 Red. masses --      1.7687                 1.4198                 2.5579
 Frc consts  --      0.0799                 0.0730                 0.1646
 IR Inten    --      2.1030                 0.2064                 0.5286

                     16                     17                     18
                      A                      A                      A
 Frequencies --    349.4908               355.9636               436.7578
 Red. masses --      3.3765                 4.5677                 3.2922
 Frc consts  --      0.2430                 0.3410                 0.3700
 IR Inten    --      4.4147                 0.8375                 0.7983

                     19                     20                     21
                      A                      A                      A
 Frequencies --    479.3505               488.5111               513.1620
 Red. masses --      4.0352                 3.6383                 5.2035
 Frc consts  --      0.5463                 0.5116                 0.8073
 IR Inten    --      4.4538                 2.3272                 5.1174

                     22                     23                     24
                      A                      A                      A
 Frequencies --    531.3854               539.8887               563.4106
 Red. masses --      4.0127                 4.2080                 6.6508
 Frc consts  --      0.6676                 0.7227                 1.2439
 IR Inten    --      4.8929                10.5654                 3.7135

                     25                     26                     27
                      A                      A                      A
 Frequencies --    575.8565               599.4809               615.3024
 Red. masses --      4.9193                 4.6960                 5.5725
 Frc consts  --      0.9611                 0.9943                 1.2430
 IR Inten    --      2.1308                 2.7761                 1.8100

                     28                     29                     30
                      A                      A                      A
 Frequencies --    642.0857               646.5556               691.8219
 Red. masses --      4.5725                 5.6712                 4.3223
 Frc consts  --      1.1107                 1.3968                 1.2189
 IR Inten    --      8.9624                 6.6109                14.4556

                     31                     32                     33
                      A                      A                      A
 Frequencies --    745.7394               753.1799               767.5831
 Red. masses --      1.8472                 3.5224                 1.4168
 Frc consts  --      0.6053                 1.1773                 0.4918
 IR Inten    --     85.2481                 0.4687                53.6291

                     34                     35                     36
                      A                      A                      A
 Frequencies --    770.5947               782.0673               815.1849
 Red. masses --      6.6126                 3.7599                 9.4668
 Frc consts  --      2.3135                 1.3549                 3.7065
 IR Inten    --      5.2557                21.3808                30.4665

                     37                     38                     39
                      A                      A                      A
 Frequencies --    849.2246               868.3414               884.8724
 Red. masses --      3.1714                 1.8102                 5.2906
 Frc consts  --      1.3476                 0.8042                 2.4407
 IR Inten    --     14.8747                 8.2336                14.4406

                     40                     41                     42
                      A                      A                      A
 Frequencies --    936.1406               937.6365               965.6238
 Red. masses --      6.2553                 1.4355                 2.4024
 Frc consts  --      3.2298                 0.7436                 1.3198
 IR Inten    --     38.1105                 1.0309                21.1184

                     43                     44                     45
                      A                      A                      A
 Frequencies --    975.8277               985.1141              1045.8875
 Red. masses --      1.2514                 1.4493                 1.5950
 Frc consts  --      0.7021                 0.8287                 1.0279
 IR Inten    --      0.0459                 2.1845                 2.4136

                     46                     47                     48
                      A                      A                      A
 Frequencies --   1067.0693              1078.9704              1079.8442
 Red. masses --      5.2922                 4.9113                 1.5810
 Frc consts  --      3.5504                 3.3687                 1.0862
 IR Inten    --     29.5544                 4.9063                 4.6407

                     49                     50                     51
                      A                      A                      A
 Frequencies --   1083.2744              1103.1717              1149.0833
 Red. masses --      2.4095                 4.8365                 2.3777
 Frc consts  --      1.6659                 3.4679                 1.8497
 IR Inten    --     19.7121                21.3791                66.4365

                     52                     53                     54
                      A                      A                      A
 Frequencies --   1164.1049              1187.5118              1198.7114
 Red. masses --      2.8114                 1.2656                 1.1018
 Frc consts  --      2.2447                 1.0515                 0.9328
 IR Inten    --     16.0822                 0.9493                 2.0568

                     55                     56                     57
                      A                      A                      A
 Frequencies --   1213.0627              1229.5576              1244.8633
 Red. masses --      2.1793                 1.5437                 2.8174
 Frc consts  --      1.8894                 1.3750                 2.5724
 IR Inten    --      0.3948                 3.2018                44.6064

                     58                     59                     60
                      A                      A                      A
 Frequencies --   1293.7460              1300.5872              1332.8321
 Red. masses --      1.7594                 3.5766                 1.5891
 Frc consts  --      1.7350                 3.5645                 1.6632
 IR Inten    --     36.3823                89.0271                20.6513

                     61                     62                     63
                      A                      A                      A
 Frequencies --   1344.3200              1369.9789              1378.8455
 Red. masses --      3.8906                 3.4414                 3.4736
 Frc consts  --      4.1426                 3.8055                 3.8909
 IR Inten    --     36.4254                15.8036                11.9732

                     64                     65                     66
                      A                      A                      A
 Frequencies --   1388.4901              1396.6024              1429.0522
 Red. masses --      2.2178                 2.0325                 1.4839
 Frc consts  --      2.5192                 2.3358                 1.7855
 IR Inten    --     42.3286                15.2975                 1.9470

                     67                     68                     69
                      A                      A                      A
 Frequencies --   1455.5729              1473.7642              1493.7232
 Red. masses --      2.7534                 1.9349                 1.4396
 Frc consts  --      3.4371                 2.4761                 1.8925
 IR Inten    --     43.8489                27.5180                23.9902

                     70                     71                     72
                      A                      A                      A
 Frequencies --   1507.0329              1509.6991              1512.0590
 Red. masses --      1.1111                 1.2837                 1.6852
 Frc consts  --      1.4868                 1.7238                 2.2701
 IR Inten    --     29.9972                 1.9824                 5.6316

                     73                     74                     75
                      A                      A                      A
 Frequencies --   1522.5971              1525.0721              1533.5666
 Red. masses --      1.0606                 1.1591                 1.1138
 Frc consts  --      1.4487                 1.5884                 1.5434
 IR Inten    --      8.4107                34.4825                38.0551

                     76                     77                     78
                      A                      A                      A
 Frequencies --   1550.3483              1578.3612              1581.3356
 Red. masses --      2.0686                 2.8945                 2.7395
 Frc consts  --      2.9294                 4.2485                 4.0362
 IR Inten    --      9.8452               171.8450                93.8650

                     79                     80                     81
                      A                      A                      A
 Frequencies --   1626.6742              1644.0309              1649.9828
 Red. masses --      5.4370                 6.9270                 6.3557
 Frc consts  --      8.4764                11.0310                10.1947
 IR Inten    --    284.2720               419.1493                14.9243

                     82                     83                     84
                      A                      A                      A
 Frequencies --   1664.3448              3038.1595              3065.4229
 Red. masses --      5.9202                 1.0339                 1.0360
 Frc consts  --      9.6622                 5.6230                 5.7355
 IR Inten    --     54.9664                41.4524                10.9063

                     85                     86                     87
                      A                      A                      A
 Frequencies --   3083.3939              3103.1255              3132.3041
 Red. masses --      1.0759                 1.1070                 1.1021
 Frc consts  --      6.0266                 6.2806                 6.3708
 IR Inten    --     34.7390                28.5691                 6.5862

                     88                     89                     90
                      A                      A                      A
 Frequencies --   3151.9058              3171.0081              3176.1006
 Red. masses --      1.1018                 1.1013                 1.0883
 Frc consts  --      6.4492                 6.5248                 6.4684
 IR Inten    --      8.5718                 8.9273                11.2363

                     91                     92                     93
                      A                      A                      A
 Frequencies --   3192.0397              3194.6972              3214.0133
 Red. masses --      1.0910                 1.0881                 1.0948
 Frc consts  --      6.5493                 6.5430                 6.6634
 IR Inten    --     32.4207                 8.4193                26.1763

                     94                     95                     96
                      A                      A                      A
 Frequencies --   3230.3003              3243.0594              3554.5689
 Red. masses --      1.0925                 1.0864                 1.0744
 Frc consts  --      6.7165                 6.7320                 7.9982
 IR Inten    --      7.2731                 1.2907                29.3468

 - Thermochemistry -
 -------------------
 Temperature   298.150 Kelvin.  Pressure   1.00000 Atm.
 Atom     1 has atomic number  6 and mass  12.00000

 Molecular mass:   270.11168 amu.
 Principal axes and moments of inertia in atomic units:
                           1         2         3
     Eigenvalues --  2853.388737215.397427764.73438
           X            0.99997  -0.00469   0.00623
           Y            0.00462   0.99993   0.01073
           Z           -0.00628  -0.01070   0.99992
 This molecule is an asymmetric top.
 Rotational symmetry number  1.
 Warning -- assumption of classical behavior for rotation
           may cause significant error
 Rotational temperatures (Kelvin)      0.03035     0.01200     0.01115
 Rotational constants (GHZ):           0.63249     0.25012     0.23243
 Zero-point vibrational energy     712659.7 (Joules/Mol)
                                  170.32975 (Kcal/Mol)
 Warning -- explicit consideration of  27 degrees of freedom as
           vibrations may cause significant error
 Vibrational temperatures:     21.94    52.22    78.58   124.52   142.07
          (Kelvin)            188.12   191.80   290.73   326.81   335.25
                              348.17   375.52   398.34   424.92   475.51
                              502.84   512.15   628.40   689.68   702.86
                              738.33   764.55   776.78   810.62   828.53
                              862.52   885.28   923.82   930.25   995.38
                             1072.95  1083.66  1104.38  1108.71  1125.22
                             1172.87  1221.84  1249.35  1273.13  1346.90
                             1349.05  1389.32  1404.00  1417.36  1504.80
                             1535.27  1552.40  1553.66  1558.59  1587.22
                             1653.27  1674.89  1708.56  1724.68  1745.33
                             1769.06  1791.08  1861.41  1871.25  1917.65
                             1934.18  1971.09  1983.85  1997.73  2009.40
                             2056.09  2094.24  2120.42  2149.13  2168.28
                             2172.12  2175.52  2190.68  2194.24  2206.46
                             2230.61  2270.91  2275.19  2340.42  2365.39
                             2373.96  2394.62  4371.23  4410.46  4436.32
                             4464.71  4506.69  4534.89  4562.37  4569.70
                             4592.63  4596.46  4624.25  4647.68  4666.04
                             5114.23

 Zero-point correction=                           0.271438 (Hartree/Particle)
 Thermal correction to Energy=                    0.288018
 Thermal correction to Enthalpy=                  0.288962
 Thermal correction to Gibbs Free Energy=         0.225885
 Sum of electronic and zero-point Energies=           -911.135311
 Sum of electronic and thermal Energies=              -911.118730
 Sum of electronic and thermal Enthalpies=            -911.117786
 Sum of electronic and thermal Free Energies=         -911.180863

                     E (Thermal)             CV                S
                      KCal/Mol        Cal/Mol-Kelvin    Cal/Mol-Kelvin
 Total                  180.734             64.559            132.756
 Electronic               0.000              0.000              0.000
 Translational            0.889              2.981             42.680
 Rotational               0.889              2.981             33.435
 Vibrational            178.957             58.597             56.641
 Vibration     1          0.593              1.986              7.173
 Vibration     2          0.594              1.982              5.452
 Vibration     3          0.596              1.976              4.643
 Vibration     4          0.601              1.959              3.737
 Vibration     5          0.604              1.950              3.479
 Vibration     6          0.612              1.923              2.935
 Vibration     7          0.613              1.920              2.898
 Vibration     8          0.639              1.837              2.114
 Vibration     9          0.651              1.800              1.901
 Vibration    10          0.654              1.790              1.856
 Vibration    11          0.658              1.776              1.788
 Vibration    12          0.669              1.744              1.655
 Vibration    13          0.678              1.716              1.553
 Vibration    14          0.690              1.682              1.443
 Vibration    15          0.713              1.615              1.258
 Vibration    16          0.727              1.576              1.168
 Vibration    17          0.731              1.563              1.140
 Vibration    18          0.797              1.390              0.837
 Vibration    19          0.836              1.296              0.712
 Vibration    20          0.844              1.276              0.687
 Vibration    21          0.868              1.221              0.626
 Vibration    22          0.886              1.181              0.584
 Vibration    23          0.895              1.162              0.566
 Vibration    24          0.919              1.110              0.517
 Vibration    25          0.932              1.083              0.493
 Vibration    26          0.958              1.033              0.451
 Vibration    27          0.975              1.000              0.424

 Optimization completed.
    -- Stationary point found.
 Normal termination of Gaussian 16 at Sat Dec 12 16:40:23 2020.

 ----------------------------------------------------------------------
 # B3LYP/6-311++G(d,p) empiricaldispersion=gd3bj scf=xqc pop=npa geom=c
 heck
 ----------------------------------------------------------------------

 ---------------------------------------
 CID_20924677_JID_10555_Energie_neutraal
 ---------------------------------------
 Structure from the checkpoint file:  "JID_10555.chk"
 Charge =  0 Multiplicity = 1

 SCF Done:  E(RB3LYP) =  -911.645770089     A.U. after   16 cycles
 Normal termination of Gaussian 16 at Sat Dec 12 16:49:05 2020.

 ----------------------------------------------------------------------
 # B3LYP/6-311++G(d,p) empiricaldispersion=gd3bj scf=xqc pop=npa geom=c
 heck
 ----------------------------------------------------------------------

 -------------------------------------
 CID_20924677_JID_10555_Energie_kation
 -------------------------------------
 Structure from the checkpoint file:  "JID_10555.chk"
 Charge =  1 Multiplicity = 2

 SCF Done:  E(UB3LYP) =  -911.353155398     A.U. after   24 cycles
 Normal termination of Gaussian 16 at Sat Dec 12 17:07:37 2020.
 Gaussian 16:  ES64L-G16RevA.03 25-Dec-2016

 ----------------------------------------------------------------------
 # B3LYP/6-311++G(d,p) empiricaldispersion=gd3bj scf=xqc pop=npa geom=c
 heck
 ----------------------------------------------------------------------

 ------------------------------------
 CID_20924677_JID_10555_Energie_anion
 ------------------------------------
 Structure from the checkpoint file:  "JID_10555.chk"
 Charge = -1 Multiplicity = 2

                         Standard orientation:
 ---------------------------------------------------------------------
 Center     Atomic      Atomic             Coordinates (Angstroms)
 Number     Number       Type             X           Y           Z
 ---------------------------------------------------------------------
      1          6           0       -1.347279    2.010189   -1.917387
      2          6           0       -2.030377    1.181329   -0.875362
      3          7           0       -3.058166    1.725212   -0.269254
      4          8           0       -3.563801    0.780274    0.652266
      5          6           0       -2.818012   -0.335523    0.558393
      6          7           0       -3.087270   -1.414320    1.284823
      7          6           0       -2.235849   -2.407196    1.010388
      8          7           0       -1.196293   -2.395359    0.174166
      9          6           0       -0.926322   -1.273135   -0.530196
     10          6           0       -1.795478   -0.156733   -0.387030
     11          7           0        0.155923   -1.395787   -1.351754
     12          6           0        1.102160   -0.355739   -1.759573
     13          6           0        2.219648   -0.148735   -0.759144
     14          6           0        3.472994   -0.726834   -0.947721
     15          6           0        4.489953   -0.584897    0.000229
     16          6           0        4.242845    0.149333    1.156239
     17          6           0        2.997005    0.746737    1.368973
     18          6           0        1.990720    0.599171    0.412889
     19          8           0        0.746687    1.149652    0.516598
     20          6           0        0.369333    1.783778    1.731169
     21          1           0       -0.359277    2.329374   -1.572499
     22          1           0       -1.950498    2.900217   -2.111931
     23          1           0       -1.229892    1.456067   -2.854170
     24          1           0       -2.398712   -3.340270    1.545526
     25          1           0        0.586455   -2.303037   -1.201446
     26          1           0        1.528213   -0.663844   -2.719848
     27          1           0        0.555908    0.564954   -1.930063
     28          1           0        3.653749   -1.300160   -1.854407
     29          1           0        5.459450   -1.044155   -0.164693
     30          1           0        5.020707    0.267790    1.905085
     31          1           0        2.822181    1.320980    2.271072
     32          1           0        0.975474    2.678586    1.918727
     33          1           0       -0.675007    2.070556    1.601422
     34          1           0        0.460755    1.094850    2.579234
 ---------------------------------------------------------------------

 SCF Done:  E(UB3LYP) =  -911.648847915     A.U. after   33 cycles
 SCF Done:  E(UB3LYP) =  -911.648847916     a.u. after    1 cycles

 The electronic state is 2-A.
 Alpha  occ. eigenvalues --  -19.06083 -19.05088 -14.21039 -14.20722 -14.16845
 Alpha  occ. eigenvalues --  -14.16283 -10.12834 -10.12809 -10.12414 -10.10984
 Alpha  occ. eigenvalues --  -10.09877 -10.08866 -10.08131 -10.06764 -10.06728
 Alpha  occ. eigenvalues --  -10.06626 -10.06516 -10.06487 -10.06462 -10.05013
 Alpha  occ. eigenvalues --   -1.00106  -0.96770  -0.85588  -0.81480  -0.75782
 Alpha  occ. eigenvalues --   -0.74733  -0.72719  -0.66950  -0.65347  -0.64779
 Alpha  occ. eigenvalues --   -0.61198  -0.60349  -0.58058  -0.52370  -0.51509
 Alpha  occ. eigenvalues --   -0.49909  -0.48640  -0.45027  -0.43458  -0.41428
 Alpha  occ. eigenvalues --   -0.39816  -0.39183  -0.38136  -0.37549  -0.37109
 Alpha  occ. eigenvalues --   -0.35137  -0.34736  -0.34332  -0.32203  -0.31636
 Alpha  occ. eigenvalues --   -0.31140  -0.30556  -0.29576  -0.29315  -0.28011
 Alpha  occ. eigenvalues --   -0.27513  -0.27315  -0.26535  -0.25539  -0.24615
 Alpha  occ. eigenvalues --   -0.23233  -0.22552  -0.20928  -0.18394  -0.16243
 Alpha  occ. eigenvalues --   -0.16081  -0.15385  -0.14514  -0.13093  -0.12485
 Alpha  occ. eigenvalues --   -0.09945   0.04634
 Alpha virt. eigenvalues --    0.06559   0.07592   0.07939   0.08397   0.09254
 Alpha virt. eigenvalues --    0.09670   0.09849   0.10264   0.11417   0.11634
 Alpha virt. eigenvalues --    0.12053   0.12377   0.12461   0.12753   0.14036

  Beta  occ. eigenvalues --  -19.06023 -19.05083 -14.20662 -14.20645 -14.16977
  Beta  occ. eigenvalues --  -14.16123 -10.12839 -10.12824 -10.12412 -10.10577
  Beta  occ. eigenvalues --  -10.09865 -10.08603 -10.08030 -10.06739 -10.06658
  Beta  occ. eigenvalues --  -10.06554 -10.06496 -10.06460 -10.06339 -10.05015
  Beta  occ. eigenvalues --   -0.99896  -0.96753  -0.85289  -0.81207  -0.75521
  Beta  occ. eigenvalues --   -0.74498  -0.72530  -0.66701  -0.65111  -0.64604
  Beta  occ. eigenvalues --   -0.61082  -0.60276  -0.57866  -0.51925  -0.51287
  Beta  occ. eigenvalues --   -0.49770  -0.48503  -0.44868  -0.43377  -0.41240
  Beta  occ. eigenvalues --   -0.39620  -0.39034  -0.38037  -0.37410  -0.37044
  Beta  occ. eigenvalues --   -0.34853  -0.34395  -0.34178  -0.32020  -0.31555
  Beta  occ. eigenvalues --   -0.31018  -0.30379  -0.29479  -0.29185  -0.27870
  Beta  occ. eigenvalues --   -0.27317  -0.26528  -0.26419  -0.25462  -0.24541
  Beta  occ. eigenvalues --   -0.23048  -0.22189  -0.20019  -0.18018  -0.15839
  Beta  occ. eigenvalues --   -0.15397  -0.14733  -0.13874  -0.13024  -0.12067
  Beta  occ. eigenvalues --   -0.09051
  Beta virt. eigenvalues --    0.06628   0.07605   0.08016   0.08923   0.09232
  Beta virt. eigenvalues --    0.09667   0.09840   0.10198   0.10507   0.11359
  Beta virt. eigenvalues --    0.11600   0.12081   0.12406   0.12619   0.13024

 Mulliken charges and spin densities:
               1          2
     1  C   -0.495634  -0.000406
     2  C   -0.199665   0.023269
     3  N   -0.357594   0.193751
     4  O    0.064789   0.005489
     5  C   -0.734766  -0.003886
     6  N   -0.142370   0.063543
     7  C    0.031846   0.196715
     8  N   -0.094782  -0.071204
     9  C   -0.930780   0.218453
    10  C    1.071016   0.009747
    11  N    0.079647   0.013416
    12  C   -0.307266  -0.062625
    13  C    0.857845   0.111966
    14  C   -0.437579   0.009083
    15  C   -0.241988  -0.216468
    16  C   -0.275203   0.030725
    17  C   -0.392554   0.038029
    18  C    0.159444   0.012709
    19  O   -0.044967   0.004035
    20  C   -0.316846  -0.013054
    21  H    0.159600   0.006406
    22  H    0.179091  -0.000061
    23  H    0.146376   0.003795
    24  H    0.163090  -0.015143
    25  H    0.263610  -0.002761
    26  H    0.128005   0.060651
    27  H    0.100817  -0.005111
    28  H    0.010313   0.106367
    29  H   -0.050633   0.184560
    30  H    0.061677   0.063257
    31  H    0.109880   0.015455
    32  H    0.130507   0.003971
    33  H    0.154032   0.012382
    34  H    0.151043   0.002946
 Sum of Mulliken charges =  -1.00000   1.00000

 Dipole moment (field-independent basis, Debye):
    X=              5.0206    Y=              2.1872    Z=             -1.2366  Tot=              5.6142
 Quadrupole moment (field-independent basis, Debye-Ang):
   XX=           -187.4691   YY=           -139.3844   ZZ=           -126.8579
   XY=              2.6479   XZ=              7.9327   YZ=              5.2597

 Summary of Natural Population Analysis:

                                       Natural Population
                Natural  -----------------------------------------------
    Atom  No    Charge         Core      Valence    Rydberg      Total
 -----------------------------------------------------------------------
      C    1   -0.30221      0.99962     2.29827    0.00432     3.30221
      C    2    0.09924      0.99960     1.88795    0.01321     2.90076
      N    3   -0.04371      0.99965     2.52965    0.01441     3.54371
      O    4   -0.17661      0.99985     3.16634    0.01043     4.17661
      C    5    0.27146      0.99944     1.71203    0.01707     2.72854
      N    6   -0.26451      0.99966     2.75373    0.01112     3.76451
      C    7    0.18930      0.99969     1.79142    0.01959     2.81070
      N    8   -0.30928      0.99968     2.80055    0.00904     3.80928
      C    9    0.29197      0.99953     1.69517    0.01333     2.70803
      C   10   -0.13418      0.99939     2.12238    0.01241     3.13418
      N   11   -0.29748      0.99967     2.78583    0.01199     3.79748
      C   12   -0.09230      0.99958     2.08063    0.01209     3.09230
      C   13   -0.02711      0.99946     2.01750    0.01015     3.02711
      C   14   -0.08431      0.99953     2.07478    0.01001     3.08431
      C   15   -0.12796      0.99957     2.11756    0.01083     3.12796
      C   16   -0.07151      0.99958     2.06212    0.00981     3.07151
      C   17   -0.14286      0.99953     2.13581    0.00752     3.14286
      C   18    0.16984      0.99934     1.81758    0.01324     2.83016
      O   19   -0.27466      0.99985     3.26435    0.01045     4.27466
      C   20   -0.10183      0.99960     2.09465    0.00758     3.10183
      H   21    0.10721      0.00000     0.39169    0.00111     0.39279
      H   22    0.10799      0.00000     0.39099    0.00102     0.39201
      H   23    0.10131      0.00000     0.39784    0.00086     0.39869
      H   24    0.07075      0.00000     0.42803    0.00122     0.42925
      H   25    0.18876      0.00000     0.30948    0.00176     0.31124
      H   26    0.09276      0.00000     0.40629    0.00095     0.40724
      H   27    0.10767      0.00000     0.39105    0.00128     0.39233
      H   28    0.09528      0.00000     0.40366    0.00106     0.40472
      H   29    0.09697      0.00000     0.40212    0.00091     0.40303
      H   30    0.09390      0.00000     0.40520    0.00089     0.40610
      H   31    0.09973      0.00000     0.39902    0.00125     0.40027
      H   32    0.07826      0.00000     0.42055    0.00119     0.42174
      H   33    0.10288      0.00000     0.39616    0.00096     0.39712
      H   34    0.08526      0.00000     0.41355    0.00119     0.41474
 =======================================================================
   * Total *    0.00000     19.99182    50.76393    0.24425    71.00000

 Normal termination of Gaussian 16 at Sat Dec 12 17:33:29 2020.
