 Gaussian 16, Revision A.03,

 -----------------------------------------------------------
 # opt freq B3LYP/6-31G(d) empiricaldispersion=gd3bj scf=xqc
 -----------------------------------------------------------

 -----------------------------
 CID_150739533_JID_49_neutraal
 -----------------------------
 Symbolic Z-matrix:
 Charge =  0 Multiplicity = 1

 SCF Done:  E(RB3LYP) =  -457.139433722     A.U. after   13 cycles
 SCF Done:  E(RB3LYP) =  -457.146393444     A.U. after   11 cycles
 SCF Done:  E(RB3LYP) =  -457.147283364     A.U. after   12 cycles
 SCF Done:  E(RB3LYP) =  -457.148812635     A.U. after   12 cycles
 SCF Done:  E(RB3LYP) =  -457.149792681     A.U. after   12 cycles
 SCF Done:  E(RB3LYP) =  -457.150019128     A.U. after   12 cycles
 SCF Done:  E(RB3LYP) =  -457.150273377     A.U. after   11 cycles
 SCF Done:  E(RB3LYP) =  -457.150521657     A.U. after   11 cycles
 SCF Done:  E(RB3LYP) =  -457.150585148     A.U. after   10 cycles
 SCF Done:  E(RB3LYP) =  -457.150596006     A.U. after    9 cycles
 SCF Done:  E(RB3LYP) =  -457.150597823     A.U. after    8 cycles
 SCF Done:  E(RB3LYP) =  -457.150598483     A.U. after    7 cycles
 SCF Done:  E(RB3LYP) =  -457.150598628     A.U. after    7 cycles
 SCF Done:  E(RB3LYP) =  -457.150598661     A.U. after    6 cycles
 Optimization completed.
    -- Stationary point found.

 1\1\GINC-NODE318\FOpt\RB3LYP\6-31G(d)\C6H16N4\VSC10255\08-Dec-2020\0\\
 # opt freq B3LYP/6-31G(d) empiricaldispersion=gd3bj scf=xqc\\CID_15073
 9533_JID_49_neutraal\\0,1\C,0.8457150924,-0.0896455205,0.0391095493\C,
 0.3201062544,-1.3386967498,-0.6731683945\C,0.9508420551,-2.6593275819,
 -0.2291157248\N,0.5119857833,-3.1291495076,1.0855029586\N,1.004420041,
 -4.5062197619,1.3295632116\N,1.3906761301,-4.0996377286,2.6817015848\N
 ,1.400036515,-2.6960105575,2.2149869257\C,0.7998737797,-1.759836943,3.
 180895887\C,-0.7303631535,-1.633935281,3.2382474419\C,-1.5051427467,-2

 Normal termination of Gaussian 16 at Tue Dec  8 10:17:30 2020.

 --------------------------------------------------------------------
 #N Geom=AllCheck Guess=TCheck SCRF=Check GenChk RB3LYP/6-31G(d) Freq
 --------------------------------------------------------------------

 Structure from the checkpoint file:  "JID_49.chk"
 -----------------------------
 CID_150739533_JID_49_neutraal
 -----------------------------
 Charge =  0 Multiplicity = 1

 SCF Done:  E(RB3LYP) =  -457.150598661     A.U. after    1 cycles

  Exact polarizability: 102.271  -1.956  93.753   1.901  -1.700  78.214
 Approx polarizability: 132.983  -1.192 130.268   4.973  -2.713 118.488

                      1                      2                      3
                      A                      A                      A
 Frequencies --     53.0567                71.1132               100.6866
 Red. masses --      2.3656                 3.0499                 2.1522
 Frc consts  --      0.0039                 0.0091                 0.0129
 IR Inten    --      0.2990                 0.3586                 0.6012

                      4                      5                      6
                      A                      A                      A
 Frequencies --    112.8240               180.6797               198.2151
 Red. masses --      2.7116                 2.6050                 2.1554
 Frc consts  --      0.0203                 0.0501                 0.0499
 IR Inten    --      0.7106                 1.2469                 2.7804

                      7                      8                      9
                      A                      A                      A
 Frequencies --    224.7248               273.7374               300.8672
 Red. masses --      1.4437                 3.3505                 2.3351
 Frc consts  --      0.0430                 0.1479                 0.1245
 IR Inten    --      0.8486                 1.8852                 1.5834

                     10                     11                     12
                      A                      A                      A
 Frequencies --    310.4070               330.1622               403.5083
 Red. masses --      1.2213                 2.0351                 2.5090
 Frc consts  --      0.0693                 0.1307                 0.2407
 IR Inten    --      0.3859                 3.8320                 0.2443

                     13                     14                     15
                      A                      A                      A
 Frequencies --    433.5369               477.3363               593.5413
 Red. masses --      2.2878                 2.9158                 2.1191
 Frc consts  --      0.2534                 0.3914                 0.4399
 IR Inten    --      3.2929                 1.4375                 2.8497

                     16                     17                     18
                      A                      A                      A
 Frequencies --    688.9566               750.3519               788.7143
 Red. masses --      2.7684                 2.3724                 1.3971
 Frc consts  --      0.7742                 0.7870                 0.5121
 IR Inten    --      2.5552                 5.2880                 0.7129

                     19                     20                     21
                      A                      A                      A
 Frequencies --    813.3362               861.3690               873.5036
 Red. masses --      1.8198                 2.5895                 2.8812
 Frc consts  --      0.7093                 1.1320                 1.2953
 IR Inten    --     11.0069                 1.4150                 1.9034

                     22                     23                     24
                      A                      A                      A
 Frequencies --    905.1229               925.2751               940.1510
 Red. masses --      2.2922                 1.8668                 4.1843
 Frc consts  --      1.1064                 0.9417                 2.1790
 IR Inten    --      2.1308                 2.0223                12.1321

                     25                     26                     27
                      A                      A                      A
 Frequencies --    955.8701               975.5283              1043.7824
 Red. masses --      2.0242                 2.7918                 1.9697
 Frc consts  --      1.0897                 1.5654                 1.2644
 IR Inten    --      0.2051                 0.7512                 6.2434

                     28                     29                     30
                      A                      A                      A
 Frequencies --   1058.0814              1110.5778              1123.9144
 Red. masses --      2.2460                 2.5400                 2.2964
 Frc consts  --      1.4815                 1.8458                 1.7091
 IR Inten    --      1.9348                10.0599                13.3964

                     31                     32                     33
                      A                      A                      A
 Frequencies --   1145.1348              1149.0198              1170.2721
 Red. masses --      2.0306                 2.7440                 1.7195
 Frc consts  --      1.5689                 2.1345                 1.3874
 IR Inten    --     13.2079                 5.1533                12.7562

                     34                     35                     36
                      A                      A                      A
 Frequencies --   1184.5567              1192.9545              1292.7497
 Red. masses --      2.0848                 1.6884                 1.2115
 Frc consts  --      1.7236                 1.4157                 1.1929
 IR Inten    --      4.2867                22.9138                 1.6946

                     37                     38                     39
                      A                      A                      A
 Frequencies --   1301.9974              1328.7892              1334.5058
 Red. masses --      1.2301                 1.1869                 1.1458
 Frc consts  --      1.2286                 1.2348                 1.2023
 IR Inten    --      0.7895                12.4572                 1.0951

                     40                     41                     42
                      A                      A                      A
 Frequencies --   1350.3697              1396.3626              1400.6409
 Red. masses --      1.3355                 1.2950                 1.3733
 Frc consts  --      1.4348                 1.4877                 1.5873
 IR Inten    --     32.7370                 5.4348                 3.6618

                     43                     44                     45
                      A                      A                      A
 Frequencies --   1404.6888              1407.7041              1435.1872
 Red. masses --      1.2867                 1.2944                 1.3512
 Frc consts  --      1.4958                 1.5113                 1.6397
 IR Inten    --      6.7999                 2.9640                10.0002

                     46                     47                     48
                      A                      A                      A
 Frequencies --   1442.7758              1447.3475              1497.9079
 Red. masses --      1.2788                 1.2608                 1.0817
 Frc consts  --      1.5684                 1.5561                 1.4299
 IR Inten    --     10.7122                 8.1952                 2.1433

                     49                     50                     51
                      A                      A                      A
 Frequencies --   1504.2217              1509.5643              1510.3825
 Red. masses --      1.0796                 1.0887                 1.0782
 Frc consts  --      1.4392                 1.4617                 1.4492
 IR Inten    --      2.4192                 4.1268                 2.3389

                     52                     53                     54
                      A                      A                      A
 Frequencies --   1519.9959              1528.8954              1534.2059
 Red. masses --      1.0766                 1.0501                 1.0585
 Frc consts  --      1.4654                 1.4463                 1.4679
 IR Inten    --     10.0188                 3.7213                 8.9679

                     55                     56                     57
                      A                      A                      A
 Frequencies --   1543.1447              1553.7711              2979.0014
 Red. masses --      1.0549                 1.0470                 1.0675
 Frc consts  --      1.4800                 1.4893                 5.5819
 IR Inten    --      4.7669                 7.3700                44.6229

                     58                     59                     60
                      A                      A                      A
 Frequencies --   3040.0221              3041.5598              3043.9239
 Red. masses --      1.0666                 1.0399                 1.0633
 Frc consts  --      5.8080                 5.6682                 5.8045
 IR Inten    --     20.0462                23.0438                22.6136

                     61                     62                     63
                      A                      A                      A
 Frequencies --   3051.0746              3057.7282              3072.2841
 Red. masses --      1.0635                 1.0411                 1.0919
 Frc consts  --      5.8332                 5.7353                 6.0721
 IR Inten    --     22.2849                25.1987                20.1711

                     64                     65                     66
                      A                      A                      A
 Frequencies --   3084.0708              3088.2640              3094.7516
 Red. masses --      1.1004                 1.0968                 1.0994
 Frc consts  --      6.1667                 6.1630                 6.2038
 IR Inten    --     22.8039                20.2952                33.1646

                     67                     68                     69
                      A                      A                      A
 Frequencies --   3106.6122              3116.9988              3130.7105
 Red. masses --      1.0987                 1.1021                 1.1014
 Frc consts  --      6.2474                 6.3090                 6.3602
 IR Inten    --     45.8917                36.9255                35.4151

                     70                     71                     72
                      A                      A                      A
 Frequencies --   3151.8388              3267.0717              3372.3576
 Red. masses --      1.0970                 1.0745                 1.0737
 Frc consts  --      6.4206                 6.7573                 7.1943
 IR Inten    --     32.6024                23.8357                 5.9206

 - Thermochemistry -
 -------------------
 Temperature   298.150 Kelvin.  Pressure   1.00000 Atm.
 Atom     1 has atomic number  6 and mass  12.00000

 Molecular mass:   144.13750 amu.
 Principal axes and moments of inertia in atomic units:
                           1         2         3
     Eigenvalues --  1127.264101700.916822256.50439
           X            0.99957  -0.02589  -0.01373
           Y            0.02581   0.99965  -0.00553
           Z            0.01387   0.00517   0.99989
 This molecule is an asymmetric top.
 Rotational symmetry number  1.
 Warning -- assumption of classical behavior for rotation
           may cause significant error
 Rotational temperatures (Kelvin)      0.07684     0.05092     0.03838
 Rotational constants (GHZ):           1.60099     1.06104     0.79980
 Zero-point vibrational energy     620050.5 (Joules/Mol)
                                  148.19563 (Kcal/Mol)
 Warning -- explicit consideration of  15 degrees of freedom as
           vibrations may cause significant error
 Vibrational temperatures:     76.34   102.32   144.87   162.33   259.96
          (Kelvin)            285.19   323.33   393.85   432.88   446.61
                              475.03   580.56   623.76   686.78   853.97
                              991.25  1079.59  1134.78  1170.21  1239.32
                             1256.78  1302.27  1331.26  1352.67  1375.28
                             1403.57  1501.77  1522.34  1597.87  1617.06
                             1647.59  1653.18  1683.76  1704.31  1716.40
                             1859.98  1873.28  1911.83  1920.06  1942.88
                             2009.05  2015.21  2021.03  2025.37  2064.91
                             2075.83  2082.41  2155.16  2164.24  2171.93
                             2173.10  2186.94  2199.74  2207.38  2220.24
                             2235.53  4286.12  4373.91  4376.13  4379.53
                             4389.82  4399.39  4420.33  4437.29  4443.32
                             4452.66  4469.72  4484.67  4504.39  4534.79
                             4700.59  4852.07

 Zero-point correction=                           0.236165 (Hartree/Particle)
 Thermal correction to Energy=                    0.247457
 Thermal correction to Enthalpy=                  0.248401
 Thermal correction to Gibbs Free Energy=         0.199057
 Sum of electronic and zero-point Energies=           -456.914434
 Sum of electronic and thermal Energies=              -456.903142
 Sum of electronic and thermal Enthalpies=            -456.902198
 Sum of electronic and thermal Free Energies=         -456.951542

                     E (Thermal)             CV                S
                      KCal/Mol        Cal/Mol-Kelvin    Cal/Mol-Kelvin
 Total                  155.282             41.717            103.853
 Electronic               0.000              0.000              0.000
 Translational            0.889              2.981             40.808
 Rotational               0.889              2.981             29.849
 Vibrational            153.504             35.756             33.196
 Vibration     1          0.596              1.976              4.700
 Vibration     2          0.598              1.968              4.122
 Vibration     3          0.604              1.949              3.441
 Vibration     4          0.607              1.939              3.220
 Vibration     5          0.630              1.866              2.321
 Vibration     6          0.637              1.842              2.150
 Vibration     7          0.649              1.803              1.921
 Vibration     8          0.676              1.722              1.572
 Vibration     9          0.693              1.672              1.412
 Vibration    10          0.699              1.654              1.360
 Vibration    11          0.713              1.615              1.259
 Vibration    12          0.769              1.463              0.950
 Vibration    13          0.794              1.397              0.847
 Vibration    14          0.834              1.300              0.717
 Vibration    15          0.951              1.046              0.461

 Optimization completed.
    -- Stationary point found.

 1\1\GINC-NODE318\Freq\RB3LYP\6-31G(d)\C6H16N4\VSC10255\08-Dec-2020\0\\
 #N Geom=AllCheck Guess=TCheck SCRF=Check GenChk RB3LYP/6-31G(d) Freq\\
 CID_150739533_JID_49_neutraal\\0,1\C,0.8457150924,-0.0896455205,0.0391
 095493\C,0.3201062544,-1.3386967498,-0.6731683945\C,0.9508420551,-2.65
 93275819,-0.2291157248\N,0.5119857833,-3.1291495076,1.0855029586\N,1.0
 04420041,-4.5062197619,1.3295632116\N,1.3906761301,-4.0996377286,2.681
 7015848\N,1.400036515,-2.6960105575,2.2149869257\C,0.7998737797,-1.759
 836943,3.180895887\C,-0.7303631535,-1.633935281,3.2382474419\C,-1.5051

 Normal termination of Gaussian 16 at Tue Dec  8 10:22:16 2020.

 ----------------------------------------------------------------------
 # B3LYP/6-311++G(d,p) empiricaldispersion=gd3bj scf=xqc pop=npa geom=c
 heck
 ----------------------------------------------------------------------

 -------------------------------------
 CID_150739533_JID_49_Energie_neutraal
 -------------------------------------
 Structure from the checkpoint file:  "JID_49.chk"
 Charge =  0 Multiplicity = 1

 SCF Done:  E(RB3LYP) =  -457.283828075     A.U. after   13 cycles
 Normal termination of Gaussian 16 at Tue Dec  8 10:23:54 2020.

 ----------------------------------------------------------------------
 # B3LYP/6-311++G(d,p) empiricaldispersion=gd3bj scf=xqc pop=npa geom=c
 heck
 ----------------------------------------------------------------------

 -----------------------------------
 CID_150739533_JID_49_Energie_kation
 -----------------------------------
 Structure from the checkpoint file:  "JID_49.chk"
 Charge =  1 Multiplicity = 2

 SCF Done:  E(UB3LYP) =  -457.001713341     A.U. after   18 cycles
 Normal termination of Gaussian 16 at Tue Dec  8 10:26:52 2020.
 Gaussian 16:  ES64L-G16RevA.03 25-Dec-2016

 ----------------------------------
 CID_150739533_JID_49_Energie_anion
 ----------------------------------
 Structure from the checkpoint file:  "JID_49.chk"
 Charge = -1 Multiplicity = 2

                         Standard orientation:
 ---------------------------------------------------------------------
 Center     Atomic      Atomic             Coordinates (Angstroms)
 Number     Number       Type             X           Y           Z
 ---------------------------------------------------------------------
      1          6           0       -2.457525   -1.406907    0.478267
      2          6           0       -2.462545   -0.385661   -0.662244
      3          6           0       -1.696261    0.908573   -0.385037
      4          7           0       -0.239816    0.768699   -0.412465
      5          7           0        0.405547    2.102114   -0.350090
      6          7           0        1.346066    1.570935    0.637865
      7          7           0        0.371604    0.497312    0.930849
      8          6           0        0.998374   -0.825418    1.095596
      9          6           0        1.369621   -1.631061   -0.158948
     10          6           0        2.458500   -1.038866   -1.058859
     11          1           0       -1.468499   -1.846370    0.628024
     12          1           0       -3.150771   -2.227793    0.264583
     13          1           0       -2.763970   -0.944162    1.423611
     14          1           0       -2.064175   -0.836624   -1.579285
     15          1           0       -3.500876   -0.102620   -0.878698
     16          1           0       -1.913362    1.625522   -1.187337
     17          1           0       -2.014317    1.357856    0.571902
     18          1           0       -0.216723    2.680695    0.238648
     19          1           0        2.075413    1.155997    0.044897
     20          1           0        1.885076   -0.639105    1.716403
     21          1           0        0.316095   -1.422855    1.709701
     22          1           0        1.690722   -2.619689    0.196139
     23          1           0        0.464450   -1.792599   -0.754135
     24          1           0        3.355326   -0.770106   -0.485738
     25          1           0        2.764989   -1.765145   -1.820326
     26          1           0        2.095826   -0.150392   -1.584161
 ---------------------------------------------------------------------

 SCF Done:  E(UB3LYP) =  -457.265938996     A.U. after   27 cycles

 The electronic state is 2-A.
 Alpha  occ. eigenvalues --  -14.26915 -14.26761 -14.26640 -14.26565 -10.09889
 Alpha  occ. eigenvalues --  -10.09758 -10.06788 -10.06593 -10.05829 -10.05309
 Alpha  occ. eigenvalues --   -0.99233  -0.77791  -0.76599  -0.67409  -0.66961
 Alpha  occ. eigenvalues --   -0.60905  -0.58096  -0.53105  -0.49881  -0.47854
 Alpha  occ. eigenvalues --   -0.41843  -0.40215  -0.39924  -0.36600  -0.34592
 Alpha  occ. eigenvalues --   -0.33485  -0.33169  -0.32234  -0.30810  -0.28930
 Alpha  occ. eigenvalues --   -0.27064  -0.25760  -0.24782  -0.24361  -0.23956
 Alpha  occ. eigenvalues --   -0.23431  -0.20530  -0.20077  -0.19048  -0.10570
 Alpha  occ. eigenvalues --    0.04862
 Alpha virt. eigenvalues --    0.06565   0.07874   0.08273   0.09282   0.09430
 Alpha virt. eigenvalues --    0.10055   0.10793   0.11293   0.11900   0.12101
 Alpha virt. eigenvalues --    0.13383   0.13753   0.14044   0.14837   0.15360

  Beta  occ. eigenvalues --  -14.26907 -14.26747 -14.26637 -14.26560 -10.09874
  Beta  occ. eigenvalues --  -10.09741 -10.06760 -10.06565 -10.05798 -10.05269
  Beta  occ. eigenvalues --   -0.99220  -0.77774  -0.76579  -0.67364  -0.66915
  Beta  occ. eigenvalues --   -0.60865  -0.58040  -0.53046  -0.49800  -0.47792
  Beta  occ. eigenvalues --   -0.41817  -0.40183  -0.39882  -0.36571  -0.34544
  Beta  occ. eigenvalues --   -0.33440  -0.33128  -0.32201  -0.30772  -0.28892
  Beta  occ. eigenvalues --   -0.27010  -0.25706  -0.24739  -0.24310  -0.23909
  Beta  occ. eigenvalues --   -0.23384  -0.20481  -0.20062  -0.19022  -0.10544
  Beta virt. eigenvalues --    0.07349   0.07775   0.08485   0.08736   0.09839
  Beta virt. eigenvalues --    0.10125   0.10620   0.11348   0.11664   0.12505
  Beta virt. eigenvalues --    0.12617   0.13619   0.14023   0.14243   0.15162

 Mulliken charges and spin densities:
               1          2
     1  C    0.938500  -1.398100
     2  C   -0.478037   0.196175
     3  C    0.830227  -1.117655
     4  N   -0.182134   0.121862
     5  N   -0.220872  -0.034198
     6  N   -0.062164  -0.042122
     7  N   -0.124356   0.130928
     8  C    0.565429  -0.952357
     9  C   -0.773403   0.759546
    10  C    1.001859  -1.700131
    11  H   -0.404802   0.512804
    12  H   -0.622838   0.775838
    13  H   -0.098043   0.236183
    14  H   -0.055491   0.215909
    15  H   -0.458888   0.605856
    16  H   -0.151720   0.314257
    17  H   -0.056102   0.193224
    18  H    0.166643   0.047667
    19  H    0.257635  -0.043811
    20  H   -0.173488   0.355216
    21  H    0.026979   0.155868
    22  H   -0.718436   0.883365
    23  H    0.510535  -0.378570
    24  H   -0.127120   0.263992
    25  H   -0.635766   0.789691
    26  H    0.045854   0.108563
 Sum of Mulliken charges =  -1.00000   1.00000

 Dipole moment (field-independent basis, Debye):
    X=              1.3798    Y=              5.5871    Z=              0.6592  Tot=              5.7926
 Quadrupole moment (field-independent basis, Debye-Ang):
   XX=           -131.4401   YY=           -113.4909   ZZ=            -97.3760
   XY=              3.1027   XZ=              0.6828   YZ=              0.1591

 Summary of Natural Population Analysis:

                                       Natural Population
                Natural  -----------------------------------------------
    Atom  No    Charge         Core      Valence    Rydberg      Total
 -----------------------------------------------------------------------
      C    1   -0.28575      0.99966     2.28020    0.00589     3.28575
      C    2   -0.19552      0.99963     2.18635    0.00954     3.19552
      C    3   -0.09867      0.99961     2.08508    0.01398     3.09867
      N    4   -0.10957      0.99975     2.59611    0.01371     3.60957
      N    5   -0.15356      0.99980     2.64063    0.01313     3.65356
      N    6   -0.15877      0.99980     2.64541    0.01356     3.65877
      N    7   -0.10779      0.99977     2.59360    0.01442     3.60779
      C    8   -0.09967      0.99961     2.08688    0.01318     3.09967
      C    9   -0.20245      0.99963     2.19310    0.00972     3.20245
      C   10   -0.29374      0.99966     2.28751    0.00658     3.29374
      H   11    0.09574      0.00000     0.40253    0.00172     0.40426
      H   12    0.10249      0.00000     0.39566    0.00185     0.39751
      H   13    0.09646      0.00000     0.40213    0.00141     0.40354
      H   14    0.09914      0.00000     0.39920    0.00166     0.40086
      H   15    0.10031      0.00000     0.39740    0.00229     0.39969
      H   16    0.10148      0.00000     0.39714    0.00138     0.39852
      H   17    0.08711      0.00000     0.41036    0.00253     0.41289
      H   18    0.15600      0.00000     0.34087    0.00313     0.34400
      H   19    0.16367      0.00000     0.33261    0.00372     0.33633
      H   20    0.09987      0.00000     0.39888    0.00125     0.40013
      H   21    0.10174      0.00000     0.39668    0.00159     0.39826
      H   22    0.10250      0.00000     0.39463    0.00286     0.39750
      H   23    0.10230      0.00000     0.39581    0.00190     0.39770
      H   24    0.09338      0.00000     0.40541    0.00120     0.40662
      H   25    0.10415      0.00000     0.39441    0.00144     0.39585
      H   26    0.09915      0.00000     0.39902    0.00183     0.40085
 =======================================================================
   * Total *    0.00000      9.99691    29.85763    0.14546    40.00000

 Normal termination of Gaussian 16 at Tue Dec  8 10:31:16 2020.
