 Gaussian 16, Revision A.03,

 -----------------------------------------------------------
 # opt freq B3LYP/6-31G(d) empiricaldispersion=gd3bj scf=xqc
 -----------------------------------------------------------

 ------------------------------
 CID_18416662_JID_4671_neutraal
 ------------------------------
 Symbolic Z-matrix:
 Charge =  0 Multiplicity = 1

 SCF Done:  E(RB3LYP) =  -616.089835486     A.U. after   28 cycles
 SCF Done:  E(RB3LYP) =  -616.186179369     A.U. after   21 cycles
 SCF Done:  E(RB3LYP) =  -616.341622848     A.U. after   20 cycles
 SCF Done:  E(RB3LYP) =  -616.489169700     A.U. after   19 cycles
 SCF Done:  E(RB3LYP) =  -616.576966777     A.U. after   17 cycles
 SCF Done:  E(RB3LYP) =  -616.583959193     A.U. after   14 cycles
 SCF Done:  E(RB3LYP) =  -616.618219014     A.U. after   16 cycles
 SCF Done:  E(RB3LYP) =  -616.693380019     A.U. after   16 cycles
 SCF Done:  E(RB3LYP) =  -616.784056999     A.U. after   15 cycles
 SCF Done:  E(RB3LYP) =  -616.881181174     A.U. after   14 cycles
 SCF Done:  E(RB3LYP) =  -617.216853053     A.U. after    8 cycles
 SCF Done:  E(RB3LYP) =  -617.216854916     A.U. after    8 cycles
 SCF Done:  E(RB3LYP) =  -617.216855859     A.U. after    7 cycles
 SCF Done:  E(RB3LYP) =  -617.216856809     A.U. after    7 cycles
 SCF Done:  E(RB3LYP) =  -617.216857080     A.U. after    7 cycles
 Optimization completed.
    -- Stationary point found.
 Normal termination of Gaussian 16 at Thu Dec 17 20:49:11 2020.

 --------------------------------------------------------------------
 #N Geom=AllCheck Guess=TCheck SCRF=Check GenChk RB3LYP/6-31G(d) Freq
 --------------------------------------------------------------------

 Structure from the checkpoint file:  "JID_4671.chk"
 ------------------------------
 CID_18416662_JID_4671_neutraal
 ------------------------------
 Charge =  0 Multiplicity = 1

 SCF Done:  E(RB3LYP) =  -617.216857080     A.U. after    1 cycles

  Exact polarizability: 141.990   8.432 133.312   0.938  -1.598 112.135
 Approx polarizability: 178.382  12.125 191.561   3.237 -10.991 174.889

                      1                      2                      3
                      A                      A                      A
 Frequencies --     49.7060                69.9306                75.6687
 Red. masses --      2.1551                 2.9198                 2.8503
 Frc consts  --      0.0031                 0.0084                 0.0096
 IR Inten    --      1.4035                 1.2389                 0.5290

                      4                      5                      6
                      A                      A                      A
 Frequencies --     96.1361               150.0286               162.8557
 Red. masses --      1.8465                 3.0073                 2.5832
 Frc consts  --      0.0101                 0.0399                 0.0404
 IR Inten    --      0.3492                 1.6801                 1.6750

                      7                      8                      9
                      A                      A                      A
 Frequencies --    179.8114               204.0495               236.1764
 Red. masses --      2.9342                 2.9838                 1.2481
 Frc consts  --      0.0559                 0.0732                 0.0410
 IR Inten    --      1.1695                 0.9115                 0.7198

                     10                     11                     12
                      A                      A                      A
 Frequencies --    249.4115               273.2562               298.7916
 Red. masses --      1.9314                 2.4678                 2.6152
 Frc consts  --      0.0708                 0.1086                 0.1376
 IR Inten    --      0.3909                 3.2007                 0.2145

                     13                     14                     15
                      A                      A                      A
 Frequencies --    305.5305               330.7112               376.0164
 Red. masses --      2.0235                 2.5324                 2.8522
 Frc consts  --      0.1113                 0.1632                 0.2376
 IR Inten    --      2.6727                 1.1370                12.7625

                     16                     17                     18
                      A                      A                      A
 Frequencies --    387.8090               419.6093               441.5167
 Red. masses --      2.0394                 3.2281                 1.8945
 Frc consts  --      0.1807                 0.3349                 0.2176
 IR Inten    --      2.4539                 7.6426                 0.7389

                     19                     20                     21
                      A                      A                      A
 Frequencies --    464.2834               475.1722               512.5908
 Red. masses --      2.7088                 1.8830                 3.0352
 Frc consts  --      0.3440                 0.2505                 0.4699
 IR Inten    --      4.7724                 1.6682                 2.3560

                     22                     23                     24
                      A                      A                      A
 Frequencies --    546.6983               582.6658               625.8279
 Red. masses --      2.4578                 3.4603                 2.8555
 Frc consts  --      0.4328                 0.6921                 0.6589
 IR Inten    --      0.9015                 5.5975                 3.2048

                     25                     26                     27
                      A                      A                      A
 Frequencies --    719.9486               747.5896               807.6380
 Red. masses --      2.2568                 1.6040                 2.1339
 Frc consts  --      0.6892                 0.5282                 0.8201
 IR Inten    --      7.9855                 4.0519                17.3366

                     28                     29                     30
                      A                      A                      A
 Frequencies --    820.2362               854.5668               895.6959
 Red. masses --      2.3858                 2.0137                 2.6132
 Frc consts  --      0.9457                 0.8664                 1.2352
 IR Inten    --      1.2449                 0.9965                 0.8269

                     31                     32                     33
                      A                      A                      A
 Frequencies --    899.5977               921.6951               956.0305
 Red. masses --      2.0365                 1.9479                 1.7403
 Frc consts  --      0.9710                 0.9750                 0.9372
 IR Inten    --      2.9426                 4.8016                 6.7958

                     34                     35                     36
                      A                      A                      A
 Frequencies --    981.9755              1006.1888              1024.6011
 Red. masses --      2.3889                 1.8932                 2.1158
 Frc consts  --      1.3572                 1.1293                 1.3087
 IR Inten    --      8.3671                 6.2837                 5.8194

                     37                     38                     39
                      A                      A                      A
 Frequencies --   1054.1212              1074.9749              1078.2105
 Red. masses --      2.0600                 1.9344                 2.4105
 Frc consts  --      1.3486                 1.3171                 1.6510
 IR Inten    --      7.9911                 5.1793                33.8030

                     40                     41                     42
                      A                      A                      A
 Frequencies --   1098.1228              1104.8577              1107.6436
 Red. masses --      2.1347                 2.0357                 2.1038
 Frc consts  --      1.5167                 1.4641                 1.5208
 IR Inten    --     15.5486                19.9092                 2.1159

                     43                     44                     45
                      A                      A                      A
 Frequencies --   1138.7106              1163.3111              1163.8377
 Red. masses --      1.7200                 1.3520                 1.4537
 Frc consts  --      1.3141                 1.0780                 1.1601
 IR Inten    --     35.0044                16.8540                12.6304

                     46                     47                     48
                      A                      A                      A
 Frequencies --   1173.6935              1192.2561              1222.9213
 Red. masses --      1.6932                 1.3864                 1.1973
 Frc consts  --      1.3742                 1.1611                 1.0550
 IR Inten    --      9.0197                27.8121                 8.6440

                     49                     50                     51
                      A                      A                      A
 Frequencies --   1229.6955              1276.0462              1293.0298
 Red. masses --      1.5442                 2.1362                 1.5181
 Frc consts  --      1.3758                 2.0494                 1.4955
 IR Inten    --     25.5130                31.5852                30.6293

                     52                     53                     54
                      A                      A                      A
 Frequencies --   1298.9634              1306.6006              1324.8355
 Red. masses --      1.9419                 1.5289                 1.4438
 Frc consts  --      1.9305                 1.5378                 1.4931
 IR Inten    --      9.4943                13.0111                 5.2454

                     55                     56                     57
                      A                      A                      A
 Frequencies --   1337.5598              1350.2775              1363.1261
 Red. masses --      1.1693                 1.3407                 1.2935
 Frc consts  --      1.2326                 1.4402                 1.4160
 IR Inten    --      1.1663                 8.0216                18.4436

                     58                     59                     60
                      A                      A                      A
 Frequencies --   1378.2314              1398.2032              1400.7715
 Red. masses --      1.4112                 1.3971                 1.4705
 Frc consts  --      1.5794                 1.6092                 1.7000
 IR Inten    --      1.1652                 9.2755                10.5257

                     61                     62                     63
                      A                      A                      A
 Frequencies --   1415.4011              1421.2545              1423.5516
 Red. masses --      1.3447                 1.3908                 1.3847
 Frc consts  --      1.5872                 1.6552                 1.6533
 IR Inten    --     19.7825                 6.3528                12.2182

                     64                     65                     66
                      A                      A                      A
 Frequencies --   1427.8474              1447.6866              1472.7004
 Red. masses --      1.3830                 1.3583                 1.5486
 Frc consts  --      1.6613                 1.6773                 1.9789
 IR Inten    --      5.0052                56.4378                92.6129

                     67                     68                     69
                      A                      A                      A
 Frequencies --   1483.4838              1494.5690              1507.1516
 Red. masses --      1.1777                 1.1535                 1.1035
 Frc consts  --      1.5270                 1.5181                 1.4769
 IR Inten    --      1.1359                10.7526                12.3437

                     70                     71                     72
                      A                      A                      A
 Frequencies --   1511.8818              1520.8679              1523.5370
 Red. masses --      1.0935                 1.0631                 1.0740
 Frc consts  --      1.4727                 1.4488                 1.4688
 IR Inten    --      0.4050                 7.7088                10.3917

                     73                     74                     75
                      A                      A                      A
 Frequencies --   1527.0119              1528.6839              1531.9802
 Red. masses --      1.0879                 1.0907                 1.0938
 Frc consts  --      1.4946                 1.5018                 1.5124
 IR Inten    --      4.3555                 5.2957                11.1772

                     76                     77                     78
                      A                      A                      A
 Frequencies --   1536.2215              1537.1148              1545.1944
 Red. masses --      1.0738                 1.0680                 1.0925
 Frc consts  --      1.4931                 1.4868                 1.5368
 IR Inten    --      1.5181                 5.0154                 6.8199

                     79                     80                     81
                      A                      A                      A
 Frequencies --   1551.3227              1739.9824              2934.8881
 Red. masses --      1.1408                 9.4479                 1.0626
 Frc consts  --      1.6175                16.8529                 5.3927
 IR Inten    --     25.5788               252.0402                70.3872

                     82                     83                     84
                      A                      A                      A
 Frequencies --   2948.1606              2966.1249              3026.3610
 Red. masses --      1.0723                 1.0741                 1.0682
 Frc consts  --      5.4910                 5.5678                 5.7643
 IR Inten    --     88.1040               125.5393                 7.7806

                     85                     86                     87
                      A                      A                      A
 Frequencies --   3032.8921              3037.1869              3045.3705
 Red. masses --      1.0645                 1.0513                 1.0576
 Frc consts  --      5.7692                 5.7136                 5.7792
 IR Inten    --     26.0301                26.3988                85.2618

                     88                     89                     90
                      A                      A                      A
 Frequencies --   3047.3757              3049.2537              3059.4857
 Red. masses --      1.0699                 1.0708                 1.0824
 Frc consts  --      5.8537                 5.8660                 5.9694
 IR Inten    --     23.3406                43.1320                34.2219

                     91                     92                     93
                      A                      A                      A
 Frequencies --   3060.2371              3068.3597              3078.3617
 Red. masses --      1.0748                 1.1012                 1.0697
 Frc consts  --      5.9305                 6.1082                 5.9724
 IR Inten    --     18.2130                29.0844                42.5140

                     94                     95                     96
                      A                      A                      A
 Frequencies --   3082.4702              3087.8537              3111.8340
 Red. masses --      1.0958                 1.1033                 1.0901
 Frc consts  --      6.1345                 6.1980                 6.2195
 IR Inten    --     32.0011                46.9193                21.8487

                     97                     98                     99
                      A                      A                      A
 Frequencies --   3118.0318              3121.2398              3125.0291
 Red. masses --      1.0958                 1.1011                 1.0925
 Frc consts  --      6.2766                 6.3203                 6.2863
 IR Inten    --      1.3340                51.7060                31.4901

                    100                    101                    102
                      A                      A                      A
 Frequencies --   3138.1429              3167.3928              3194.9387
 Red. masses --      1.0917                 1.0876                 1.0958
 Frc consts  --      6.3342                 6.4289                 6.5901
 IR Inten    --     17.6137                19.3593                 1.2892

 - Thermochemistry -
 -------------------
 Temperature   298.150 Kelvin.  Pressure   1.00000 Atm.
 Atom     1 has atomic number  6 and mass  12.00000

 Molecular mass:   198.17321 amu.
 Principal axes and moments of inertia in atomic units:
                           1         2         3
     Eigenvalues --  1996.340103101.730864189.84676
           X            0.99943   0.03368   0.00254
           Y           -0.03371   0.99936   0.01180
           Z           -0.00214  -0.01188   0.99993
 This molecule is an asymmetric top.
 Rotational symmetry number  1.
 Warning -- assumption of classical behavior for rotation
           may cause significant error
 Rotational temperatures (Kelvin)      0.04339     0.02792     0.02067
 Rotational constants (GHZ):           0.90402     0.58185     0.43074
 Zero-point vibrational energy     869257.2 (Joules/Mol)
                                  207.75746 (Kcal/Mol)
 Warning -- explicit consideration of  23 degrees of freedom as
           vibrations may cause significant error
 Vibrational temperatures:     71.52   100.61   108.87   138.32   215.86
          (Kelvin)            234.31   258.71   293.58   339.81   358.85
                              393.15   429.89   439.59   475.82   541.00
                              557.97   603.72   635.24   668.00   683.67
                              737.50   786.58   838.33   900.43  1035.85
                             1075.61  1162.01  1180.14  1229.53  1288.71
                             1294.32  1326.11  1375.51  1412.84  1447.68
                             1474.17  1516.65  1546.65  1551.30  1579.95
                             1589.64  1593.65  1638.35  1673.75  1674.50
                             1688.68  1715.39  1759.51  1769.26  1835.95
                             1860.38  1868.92  1879.91  1906.14  1924.45
                             1942.75  1961.23  1982.97  2011.70  2015.40
                             2036.45  2044.87  2048.17  2054.35  2082.90
                             2118.89  2134.40  2150.35  2168.45  2175.26
                             2188.19  2192.03  2197.03  2199.44  2204.18
                             2210.28  2211.57  2223.19  2232.01  2503.45
                             4222.65  4241.75  4267.59  4354.26  4363.66
                             4369.83  4381.61  4384.49  4387.20  4401.92
                             4403.00  4414.69  4429.08  4434.99  4442.73
                             4477.24  4486.15  4490.77  4496.22  4515.09
                             4557.17  4596.80

 Zero-point correction=                           0.331083 (Hartree/Particle)
 Thermal correction to Energy=                    0.345796
 Thermal correction to Enthalpy=                  0.346740
 Thermal correction to Gibbs Free Energy=         0.290129
 Sum of electronic and zero-point Energies=           -616.885774
 Sum of electronic and thermal Energies=              -616.871061
 Sum of electronic and thermal Enthalpies=            -616.870117
 Sum of electronic and thermal Free Energies=         -616.926728

                     E (Thermal)             CV                S
                      KCal/Mol        Cal/Mol-Kelvin    Cal/Mol-Kelvin
 Total                  216.990             57.009            119.147
 Electronic               0.000              0.000              0.000
 Translational            0.889              2.981             41.757
 Rotational               0.889              2.981             31.629
 Vibrational            215.213             51.048             45.762
 Vibration     1          0.595              1.978              4.829
 Vibration     2          0.598              1.968              4.155
 Vibration     3          0.599              1.965              4.000
 Vibration     4          0.603              1.952              3.531
 Vibration     5          0.618              1.903              2.672
 Vibration     6          0.623              1.888              2.516
 Vibration     7          0.629              1.867              2.330
 Vibration     8          0.640              1.834              2.096
 Vibration     9          0.655              1.785              1.832
 Vibration    10          0.662              1.764              1.735
 Vibration    11          0.676              1.723              1.576
 Vibration    12          0.692              1.676              1.424
 Vibration    13          0.696              1.663              1.386
 Vibration    14          0.713              1.614              1.257
 Vibration    15          0.747              1.521              1.055
 Vibration    16          0.756              1.496              1.009
 Vibration    17          0.782              1.428              0.893
 Vibration    18          0.801              1.380              0.822
 Vibration    19          0.822              1.329              0.754
 Vibration    20          0.832              1.305              0.723
 Vibration    21          0.868              1.222              0.627
 Vibration    22          0.902              1.147              0.551
 Vibration    23          0.939              1.069              0.480

                           ! Non-Optimized Parameters !
 Normal termination of Gaussian 16 at Thu Dec 17 21:00:58 2020.

 ----------------------------------------------------------------------
 # B3LYP/6-311++G(d,p) empiricaldispersion=gd3bj scf=xqc pop=npa geom=c
 heck
 ----------------------------------------------------------------------

 --------------------------------------
 CID_18416662_JID_4671_Energie_neutraal
 --------------------------------------
 Structure from the checkpoint file:  "JID_4671.chk"
 Charge =  0 Multiplicity = 1

 SCF Done:  E(RB3LYP) =  -617.389555480     A.U. after   14 cycles
 Normal termination of Gaussian 16 at Thu Dec 17 21:05:57 2020.

 ----------------------------------------------------------------------
 # B3LYP/6-311++G(d,p) empiricaldispersion=gd3bj scf=xqc pop=npa geom=c
 heck
 ----------------------------------------------------------------------

 ------------------------------------
 CID_18416662_JID_4671_Energie_kation
 ------------------------------------
 Structure from the checkpoint file:  "JID_4671.chk"
 Charge =  1 Multiplicity = 2

 SCF Done:  E(UB3LYP) =  -617.106474128     A.U. after   23 cycles
 Normal termination of Gaussian 16 at Thu Dec 17 21:16:19 2020.
 Gaussian 16:  ES64L-G16RevA.03 25-Dec-2016

 ----------------------------------------------------------------------
 # B3LYP/6-311++G(d,p) empiricaldispersion=gd3bj scf=xqc pop=npa geom=c
 heck
 ----------------------------------------------------------------------

 -----------------------------------
 CID_18416662_JID_4671_Energie_anion
 -----------------------------------
 Structure from the checkpoint file:  "JID_4671.chk"
 Charge = -1 Multiplicity = 2

                         Standard orientation:
 ---------------------------------------------------------------------
 Center     Atomic      Atomic             Coordinates (Angstroms)
 Number     Number       Type             X           Y           Z
 ---------------------------------------------------------------------
      1          6           0        3.522822   -0.252251    0.501525
      2          7           0        2.168468   -0.208795   -0.023276
      3          6           0        1.826747    1.120769   -0.542190
      4          6           0        1.227560    2.035651    0.531871
      5          6           0       -0.063936    1.454163    1.119613
      6          6           0        0.382334   -1.626954   -0.991348
      7          6           0        1.879428   -1.293510   -0.961823
      8          6           0       -3.077662    0.279768   -0.949606
      9          7           0       -2.066597    0.347692    0.096779
     10          6           0       -2.111649   -0.724892    1.087422
     11          6           0       -1.613521   -2.100093    0.604488
     12          6           0       -0.101676   -2.199441    0.350699
     13          6           0       -1.158615    1.380438    0.053891
     14          8           0       -1.209734    2.238869   -0.826708
     15          1           0        4.299020   -0.115227   -0.277040
     16          1           0        3.656377    0.539705    1.245872
     17          1           0        3.701625   -1.211821    0.998323
     18          1           0        2.709912    1.602785   -0.998367
     19          1           0        1.090244    1.013628   -1.342710
     20          1           0        1.018470    3.012156    0.085787
     21          1           0        1.948675    2.187215    1.344611
     22          1           0       -0.432533    2.097578    1.929993
     23          1           0        0.164502    0.480613    1.551260
     24          1           0       -0.183808   -0.727321   -1.249054
     25          1           0        0.189864   -2.347354   -1.797490
     26          1           0        2.241523   -1.064475   -1.981683
     27          1           0        2.432216   -2.180645   -0.627634
     28          1           0       -2.899333   -0.571003   -1.619395
     29          1           0       -4.072636    0.165816   -0.502421
     30          1           0       -3.033196    1.201263   -1.527099
     31          1           0       -3.158584   -0.824415    1.405671
     32          1           0       -1.549302   -0.423193    1.972174
     33          1           0       -2.170379   -2.402267   -0.292544
     34          1           0       -1.893268   -2.818088    1.387019
     35          1           0        0.200189   -3.253925    0.408528
     36          1           0        0.434198   -1.686149    1.158084
 ---------------------------------------------------------------------

 SCF Done:  E(UB3LYP) =  -617.374721333     A.U. after   33 cycles
 SCF Done:  E(UB3LYP) =  -617.374721333     a.u. after    1 cycles

 The electronic state is 2-A.
 Alpha  occ. eigenvalues --  -18.98503 -14.24389 -14.20656 -10.17110 -10.10583
 Alpha  occ. eigenvalues --  -10.09531 -10.09473 -10.09388 -10.09125 -10.07678
 Alpha  occ. eigenvalues --  -10.07099 -10.06720 -10.06421 -10.06034  -0.93822
 Alpha  occ. eigenvalues --   -0.83570  -0.82793  -0.70217  -0.69286  -0.65420
 Alpha  occ. eigenvalues --   -0.62749  -0.60251  -0.58147  -0.55380  -0.51188
 Alpha  occ. eigenvalues --   -0.49327  -0.46447  -0.43700  -0.40985  -0.40007
 Alpha  occ. eigenvalues --   -0.38409  -0.37596  -0.36640  -0.35783  -0.34715
 Alpha  occ. eigenvalues --   -0.33594  -0.33004  -0.31840  -0.31545  -0.30457
 Alpha  occ. eigenvalues --   -0.29230  -0.28917  -0.28386  -0.27832  -0.26854
 Alpha  occ. eigenvalues --   -0.25734  -0.25043  -0.24339  -0.24192  -0.22970
 Alpha  occ. eigenvalues --   -0.22522  -0.22212  -0.15839  -0.14386  -0.12078
 Alpha  occ. eigenvalues --    0.04416
 Alpha virt. eigenvalues --    0.06156   0.06972   0.07492   0.08205   0.08743
 Alpha virt. eigenvalues --    0.08896   0.09869   0.09975   0.10627   0.11334
 Alpha virt. eigenvalues --    0.11566   0.11794   0.11828   0.12260   0.13141

  Beta  occ. eigenvalues --  -18.98500 -14.24389 -14.20647 -10.17109 -10.10557
  Beta  occ. eigenvalues --  -10.09503 -10.09460 -10.09384 -10.09099 -10.07669
  Beta  occ. eigenvalues --  -10.07092 -10.06692 -10.06411 -10.06018  -0.93817
  Beta  occ. eigenvalues --   -0.83559  -0.82775  -0.70188  -0.69261  -0.65383
  Beta  occ. eigenvalues --   -0.62722  -0.60209  -0.58114  -0.55336  -0.51147
  Beta  occ. eigenvalues --   -0.49281  -0.46399  -0.43663  -0.40963  -0.39977
  Beta  occ. eigenvalues --   -0.38368  -0.37575  -0.36618  -0.35751  -0.34682
  Beta  occ. eigenvalues --   -0.33565  -0.32978  -0.31814  -0.31507  -0.30428
  Beta  occ. eigenvalues --   -0.29199  -0.28896  -0.28357  -0.27804  -0.26832
  Beta  occ. eigenvalues --   -0.25703  -0.25023  -0.24316  -0.24167  -0.22940
  Beta  occ. eigenvalues --   -0.22486  -0.22177  -0.15833  -0.14364  -0.12030
  Beta virt. eigenvalues --    0.06524   0.07168   0.07543   0.08126   0.08653
  Beta virt. eigenvalues --    0.09168   0.09375   0.10245   0.10360   0.11038
  Beta virt. eigenvalues --    0.11632   0.11977   0.12013   0.12244   0.12590

 Mulliken charges and spin densities:
               1          2
     1  C    0.712680  -1.067665
     2  N    0.052307   0.146429
     3  C   -0.154675  -0.093835
     4  C   -0.427925  -0.186318
     5  C    0.234865   0.049334
     6  C   -0.552663   0.420477
     7  C    0.215637  -0.875492
     8  C    0.673105  -0.943956
     9  N    0.040132   0.082943
    10  C    0.268527  -0.731697
    11  C    0.368469  -0.668263
    12  C    0.320713  -0.408298
    13  C   -0.518179  -0.036109
    14  O   -0.291626  -0.000374
    15  H   -0.180080   0.292369
    16  H   -0.077361   0.205279
    17  H   -0.302567   0.446699
    18  H    0.087356   0.044194
    19  H    0.114357   0.059709
    20  H    0.142572   0.020847
    21  H   -0.026842   0.167421
    22  H   -0.039276   0.249388
    23  H    0.272379  -0.154452
    24  H    0.284144  -0.148633
    25  H   -0.322805   0.502692
    26  H    0.024527   0.093628
    27  H    0.000797   0.147898
    28  H   -0.034700   0.176470
    29  H   -0.438259   0.597338
    30  H    0.173479  -0.001178
    31  H   -0.307671   0.490455
    32  H   -0.340616   0.505861
    33  H   -0.007596   0.150412
    34  H   -0.795432   0.981933
    35  H   -0.112958   0.286414
    36  H   -0.054817   0.198076
 Sum of Mulliken charges =  -1.00000   1.00000

 Dipole moment (field-independent basis, Debye):
    X=              2.2828    Y=              3.9803    Z=             -2.3893  Tot=              5.1733
 Quadrupole moment (field-independent basis, Debye-Ang):
   XX=           -160.4093   YY=           -144.1200   ZZ=           -126.9203
   XY=             -1.8414   XZ=              1.9278   YZ=              8.5428

 Summary of Natural Population Analysis:

                                       Natural Population
                Natural  -----------------------------------------------
    Atom  No    Charge         Core      Valence    Rydberg      Total
 -----------------------------------------------------------------------
      C    1   -0.17245      0.99964     2.16445    0.00836     3.17245
      N    2   -0.29442      0.99971     2.78148    0.01323     3.79442
      C    3   -0.08479      0.99960     2.07533    0.00986     3.08479
      C    4   -0.19093      0.99962     2.18248    0.00883     3.19093
      C    5   -0.23531      0.99958     2.22776    0.00797     3.23531
      C    6   -0.19543      0.99961     2.18752    0.00829     3.19543
      C    7   -0.07656      0.99961     2.06661    0.01034     3.07656
      C    8   -0.18164      0.99963     2.17392    0.00810     3.18164
      N    9   -0.25722      0.99965     2.74551    0.01207     3.75722
      C   10   -0.08092      0.99959     2.06934    0.01199     3.08092
      C   11   -0.19282      0.99961     2.18420    0.00901     3.19282
      C   12   -0.19433      0.99962     2.18511    0.00960     3.19433
      C   13    0.34809      0.99964     1.62883    0.02344     2.65191
      O   14   -0.33840      0.99988     3.33366    0.00486     4.33840
      H   15    0.07801      0.00000     0.42053    0.00146     0.42199
      H   16    0.09438      0.00000     0.40437    0.00126     0.40562
      H   17    0.09730      0.00000     0.40150    0.00119     0.40270
      H   18    0.08483      0.00000     0.41399    0.00119     0.41517
      H   19    0.10068      0.00000     0.39780    0.00152     0.39932
      H   20    0.10593      0.00000     0.39306    0.00101     0.39407
      H   21    0.09544      0.00000     0.40356    0.00100     0.40456
      H   22    0.10963      0.00000     0.38943    0.00094     0.39037
      H   23    0.11023      0.00000     0.38738    0.00239     0.38977
      H   24    0.09755      0.00000     0.40042    0.00203     0.40245
      H   25    0.09623      0.00000     0.40274    0.00103     0.40377
      H   26    0.08175      0.00000     0.41714    0.00112     0.41825
      H   27    0.09518      0.00000     0.40339    0.00143     0.40482
      H   28    0.09351      0.00000     0.40545    0.00104     0.40649
      H   29    0.09542      0.00000     0.40344    0.00114     0.40458
      H   30    0.11507      0.00000     0.38393    0.00100     0.38493
      H   31    0.09888      0.00000     0.39878    0.00234     0.40112
      H   32    0.10052      0.00000     0.39768    0.00179     0.39948
      H   33    0.09533      0.00000     0.40311    0.00156     0.40467
      H   34    0.10401      0.00000     0.39380    0.00219     0.39599
      H   35    0.09837      0.00000     0.40016    0.00147     0.40163
      H   36    0.09889      0.00000     0.39869    0.00242     0.40111
 =======================================================================
   * Total *   -0.00000     13.99498    40.82655    0.17847    55.00000

 Normal termination of Gaussian 16 at Thu Dec 17 21:31:05 2020.
