 Gaussian 16, Revision A.03,

 -----------------------------------------------------------
 # opt freq B3LYP/6-31G(d) empiricaldispersion=gd3bj scf=xqc
 -----------------------------------------------------------

 -------------------------------
 CID_142892963_JID_1196_neutraal
 -------------------------------
 Symbolic Z-matrix:
 Charge =  0 Multiplicity = 1

 SCF Done:  E(RB3LYP) =  -855.830069998     A.U. after   31 cycles
 SCF Done:  E(RB3LYP) =  -855.898187915     A.U. after   23 cycles
 SCF Done:  E(RB3LYP) =  -855.918777594     A.U. after   22 cycles
 SCF Done:  E(RB3LYP) =  -856.045661927     A.U. after   19 cycles
 SCF Done:  E(RB3LYP) =  -856.254636484     A.U. after   19 cycles
 SCF Done:  E(RB3LYP) =  -856.371834077     A.U. after   18 cycles
 SCF Done:  E(RB3LYP) =  -856.465972066     A.U. after   17 cycles
 SCF Done:  E(RB3LYP) =  -856.556570862     A.U. after   16 cycles
 SCF Done:  E(RB3LYP) =  -856.652099707     A.U. after   16 cycles
 SCF Done:  E(RB3LYP) =  -856.744014545     A.U. after   15 cycles
 SCF Done:  E(RB3LYP) =  -856.855507637     A.U. after    8 cycles
 SCF Done:  E(RB3LYP) =  -856.855507838     A.U. after    8 cycles
 SCF Done:  E(RB3LYP) =  -856.855508102     A.U. after    8 cycles
 SCF Done:  E(RB3LYP) =  -856.855508246     A.U. after    7 cycles
 SCF Done:  E(RB3LYP) =  -856.855508329     A.U. after    7 cycles
 SCF Done:  E(RB3LYP) =  -856.855508392     A.U. after    7 cycles
 Optimization completed.
    -- Stationary point found.
 Normal termination of Gaussian 16 at Tue Dec  8 19:37:25 2020.

 --------------------------------------------------------------------
 #N Geom=AllCheck Guess=TCheck SCRF=Check GenChk RB3LYP/6-31G(d) Freq
 --------------------------------------------------------------------

 Structure from the checkpoint file:  "JID_1196.chk"
 -------------------------------
 CID_142892963_JID_1196_neutraal
 -------------------------------
 Charge =  0 Multiplicity = 1

 SCF Done:  E(RB3LYP) =  -856.855508392     A.U. after    1 cycles

  Exact polarizability: 151.244   1.237  96.988   6.411  -0.156  75.621
 Approx polarizability: 229.650  -0.047 140.842  17.428  -2.443 118.245

                      1                      2                      3
                      A                      A                      A
 Frequencies --     22.1574                73.0808                92.9367
 Red. masses --      4.3038                 5.8656                 5.5094
 Frc consts  --      0.0012                 0.0185                 0.0280
 IR Inten    --      0.5530                 3.6623                 1.2062

                      4                      5                      6
                      A                      A                      A
 Frequencies --    157.2016               220.5320               230.4466
 Red. masses --      4.0786                 1.6646                 2.9275
 Frc consts  --      0.0594                 0.0477                 0.0916
 IR Inten    --      0.9667                 4.0001                 6.0909

                      7                      8                      9
                      A                      A                      A
 Frequencies --    269.0116               292.5966               305.8911
 Red. masses --      1.8368                 1.5816                 2.6396
 Frc consts  --      0.0783                 0.0798                 0.1455
 IR Inten    --      4.8524                 0.4218                 0.4838

                     10                     11                     12
                      A                      A                      A
 Frequencies --    316.8967               351.5822               362.2978
 Red. masses --      2.5087                 1.4220                 2.4189
 Frc consts  --      0.1484                 0.1036                 0.1871
 IR Inten    --      3.1381                39.9728                25.1223

                     13                     14                     15
                      A                      A                      A
 Frequencies --    378.0872               434.6190               464.4549
 Red. masses --      2.2513                 1.1395                 2.6049
 Frc consts  --      0.1896                 0.1268                 0.3311
 IR Inten    --     23.6033               138.1725                 3.4339

                     16                     17                     18
                      A                      A                      A
 Frequencies --    501.0189               535.2259               572.6310
 Red. masses --      4.6044                 3.3321                 5.2170
 Frc consts  --      0.6810                 0.5624                 1.0079
 IR Inten    --      8.2538                14.5400                 3.2006

                     19                     20                     21
                      A                      A                      A
 Frequencies --    619.6127               681.9527               713.9159
 Red. masses --      1.9562                 3.9682                 1.9882
 Frc consts  --      0.4425                 1.0873                 0.5970
 IR Inten    --    194.4134                11.5096               139.8194

                     22                     23                     24
                      A                      A                      A
 Frequencies --    724.0340               735.9491               811.6573
 Red. masses --      3.0063                12.1879                 1.6569
 Frc consts  --      0.9285                 3.8893                 0.6431
 IR Inten    --     52.0910                75.3141                 6.7505

                     25                     26                     27
                      A                      A                      A
 Frequencies --    819.0751               851.4204               860.1166
 Red. masses --      2.6483                 1.6705                 2.0120
 Frc consts  --      1.0468                 0.7135                 0.8770
 IR Inten    --     36.2762               105.5959               100.8788

                     28                     29                     30
                      A                      A                      A
 Frequencies --    927.6383               961.8532               988.3128
 Red. masses --      2.7667                 2.0556                 1.5860
 Frc consts  --      1.4027                 1.1205                 0.9127
 IR Inten    --      1.8138                 3.4609                18.2324

                     31                     32                     33
                      A                      A                      A
 Frequencies --   1003.3503              1040.4567              1074.1111
 Red. masses --      1.2636                 1.8546                 1.6422
 Frc consts  --      0.7495                 1.1829                 1.1163
 IR Inten    --      0.9282                 8.4820                 7.2878

                     34                     35                     36
                      A                      A                      A
 Frequencies --   1165.7717              1170.9707              1188.1654
 Red. masses --      1.5718                 1.3258                 1.7887
 Frc consts  --      1.2586                 1.0711                 1.4878
 IR Inten    --     13.5738                 2.1469                17.8963

                     37                     38                     39
                      A                      A                      A
 Frequencies --   1200.5949              1213.5141              1244.8054
 Red. masses --      1.1626                 1.1440                 2.1298
 Frc consts  --      0.9873                 0.9926                 1.9444
 IR Inten    --     46.0085                35.3492                22.0338

                     40                     41                     42
                      A                      A                      A
 Frequencies --   1301.1716              1327.6223              1373.2626
 Red. masses --      1.9350                 1.6154                 1.7985
 Frc consts  --      1.9302                 1.6776                 1.9983
 IR Inten    --     32.0992                 4.3270                 3.0995

                     43                     44                     45
                      A                      A                      A
 Frequencies --   1417.4868              1427.9045              1446.0981
 Red. masses --      2.2168                 1.3953                 1.4732
 Frc consts  --      2.6243                 1.6762                 1.8152
 IR Inten    --      8.8112                 2.5575                 6.2218

                     46                     47                     48
                      A                      A                      A
 Frequencies --   1520.2074              1521.2064              1678.5754
 Red. masses --      1.0584                 1.0610                 1.1289
 Frc consts  --      1.4412                 1.4465                 1.8740
 IR Inten    --      4.3210                 1.5924                 2.0447

                     49                     50                     51
                      A                      A                      A
 Frequencies --   1686.4708              1718.1192              1757.1293
 Red. masses --      1.2636                 4.1094                 6.5390
 Frc consts  --      2.1175                 7.1472                11.8952
 IR Inten    --     58.4757               101.6755                46.2817

                     52                     53                     54
                      A                      A                      A
 Frequencies --   3053.2004              3063.2871              3131.2639
 Red. masses --      1.0848                 1.0350                 1.1018
 Frc consts  --      5.9581                 5.7220                 6.3648
 IR Inten    --     17.6164                22.6481                22.4213

                     55                     56                     57
                      A                      A                      A
 Frequencies --   3150.8930              3159.5580              3171.2587
 Red. masses --      1.1036                 1.0886                 1.0844
 Frc consts  --      6.4552                 6.4026                 6.4253
 IR Inten    --     15.4795                23.5445                 6.7123

                     58                     59                     60
                      A                      A                      A
 Frequencies --   3193.0103              3457.9458              3533.3035
 Red. masses --      1.0970                 1.0486                 1.0477
 Frc consts  --      6.5897                 7.3872                 7.7062
 IR Inten    --     23.8225                 4.7208                 3.3208

                     61                     62                     63
                      A                      A                      A
 Frequencies --   3555.9474              3628.1429              3710.3543
 Red. masses --      1.0936                 1.0969                 1.0680
 Frc consts  --      8.1476                 8.5076                 8.6628
 IR Inten    --      1.2567                 5.1981                35.7659

 - Thermochemistry -
 -------------------
 Temperature   298.150 Kelvin.  Pressure   1.00000 Atm.
 Atom     1 has atomic number  6 and mass  12.00000

 Molecular mass:   172.06703 amu.
 Principal axes and moments of inertia in atomic units:
                           1         2         3
     Eigenvalues --   970.100453042.024823425.77099
           X            0.99996   0.00679   0.00579
           Y           -0.00684   0.99993   0.00961
           Z           -0.00573  -0.00965   0.99994
 This molecule is an asymmetric top.
 Rotational symmetry number  1.
 Warning -- assumption of classical behavior for rotation
           may cause significant error
 Rotational temperatures (Kelvin)      0.08928     0.02847     0.02528
 Rotational constants (GHZ):           1.86037     0.59327     0.52681
 Zero-point vibrational energy     499808.0 (Joules/Mol)
                                  119.45697 (Kcal/Mol)
 Warning -- explicit consideration of  19 degrees of freedom as
           vibrations may cause significant error
 Vibrational temperatures:     31.88   105.15   133.72   226.18   317.30
          (Kelvin)            331.56   387.05   420.98   440.11   455.94
                              505.85   521.27   543.98   625.32   668.25
                              720.85   770.07   823.89   891.48   981.18
                             1027.17  1041.72  1058.87  1167.79  1178.47
                             1225.00  1237.52  1334.66  1383.89  1421.96
                             1443.60  1496.99  1545.41  1677.29  1684.77
                             1709.50  1727.39  1745.98  1791.00  1872.10
                             1910.15  1975.82  2039.45  2054.44  2080.61
                             2187.24  2188.68  2415.10  2426.46  2471.99
                             2528.12  4392.87  4407.39  4505.19  4533.43
                             4545.90  4562.73  4594.03  4975.21  5083.64
                             5116.22  5220.09  5338.37

 Zero-point correction=                           0.190367 (Hartree/Particle)
 Thermal correction to Energy=                    0.202421
 Thermal correction to Enthalpy=                  0.203365
 Thermal correction to Gibbs Free Energy=         0.151935
 Sum of electronic and zero-point Energies=           -856.665142
 Sum of electronic and thermal Energies=              -856.653087
 Sum of electronic and thermal Enthalpies=            -856.652143
 Sum of electronic and thermal Free Energies=         -856.703574

                     E (Thermal)             CV                S
                      KCal/Mol        Cal/Mol-Kelvin    Cal/Mol-Kelvin
 Total                  127.021             46.039            108.245
 Electronic               0.000              0.000              0.000
 Translational            0.889              2.981             41.336
 Rotational               0.889              2.981             30.692
 Vibrational            125.244             40.077             36.217
 Vibration     1          0.593              1.985              6.431
 Vibration     2          0.599              1.967              4.069
 Vibration     3          0.602              1.954              3.597
 Vibration     4          0.621              1.895              2.583
 Vibration     5          0.647              1.810              1.955
 Vibration     6          0.652              1.794              1.875
 Vibration     7          0.673              1.730              1.603
 Vibration     8          0.688              1.688              1.459
 Vibration     9          0.696              1.663              1.384
 Vibration    10          0.704              1.641              1.326
 Vibration    11          0.728              1.572              1.159
 Vibration    12          0.736              1.550              1.112
 Vibration    13          0.748              1.517              1.047
 Vibration    14          0.795              1.395              0.844
 Vibration    15          0.822              1.329              0.753
 Vibration    16          0.856              1.248              0.656
 Vibration    17          0.890              1.172              0.576
 Vibration    18          0.929              1.090              0.499
 Vibration    19          0.980              0.990              0.417

 Optimization completed.
    -- Stationary point found.
 Normal termination of Gaussian 16 at Tue Dec  8 19:42:32 2020.

 ----------------------------------------------------------------------
 # B3LYP/6-311++G(d,p) empiricaldispersion=gd3bj scf=xqc pop=npa geom=c
 heck
 ----------------------------------------------------------------------

 ---------------------------------------
 CID_142892963_JID_1196_Energie_neutraal
 ---------------------------------------
 Structure from the checkpoint file:  "JID_1196.chk"
 Charge =  0 Multiplicity = 1

 SCF Done:  E(RB3LYP) =  -857.036230910     A.U. after   15 cycles
 Normal termination of Gaussian 16 at Tue Dec  8 19:44:53 2020.

 ----------------------------------------------------------------------
 # B3LYP/6-311++G(d,p) empiricaldispersion=gd3bj scf=xqc pop=npa geom=c
 heck
 ----------------------------------------------------------------------

 -------------------------------------
 CID_142892963_JID_1196_Energie_kation
 -------------------------------------
 Structure from the checkpoint file:  "JID_1196.chk"
 Charge =  1 Multiplicity = 2

 SCF Done:  E(UB3LYP) =  -856.744485049     A.U. after   27 cycles
 Normal termination of Gaussian 16 at Tue Dec  8 19:51:18 2020.
 Gaussian 16:  ES64L-G16RevA.03 25-Dec-2016

 ----------------------------------------------------------------------
 # B3LYP/6-311++G(d,p) empiricaldispersion=gd3bj scf=xqc pop=npa geom=c
 heck
 ----------------------------------------------------------------------

 ------------------------------------
 CID_142892963_JID_1196_Energie_anion
 ------------------------------------
 Structure from the checkpoint file:  "JID_1196.chk"
 Charge = -1 Multiplicity = 2

                         Standard orientation:
 ---------------------------------------------------------------------
 Center     Atomic      Atomic             Coordinates (Angstroms)
 Number     Number       Type             X           Y           Z
 ---------------------------------------------------------------------
      1          6           0       -2.926214    0.850982    0.664554
      2         16           0        2.417634   -0.564691   -0.485044
      3          8           0        3.683384    0.490084   -0.051295
      4          6           0        0.643894    1.238054    0.630810
      5          6           0        1.128401   -0.162700    0.806297
      6          6           0        0.067978   -1.192652    0.606800
      7          6           0       -1.178628   -0.905839    0.184480
      8          6           0       -1.649379    0.514534   -0.129790
      9          6           0       -0.583918    1.531737    0.205206
     10          7           0       -1.958247    0.702703   -1.567526
     11          7           0       -2.165666   -1.889018    0.067952
     12          1           0       -3.748950    0.175189    0.408768
     13          1           0       -3.235327    1.875235    0.435681
     14          1           0       -2.739806    0.761381    1.737904
     15          1           0        3.537060    1.306915   -0.558086
     16          1           0        1.359618    2.030174    0.838658
     17          1           0        1.643667   -0.283441    1.766907
     18          1           0        0.344434   -2.226549    0.806488
     19          1           0       -0.885808    2.563890    0.044417
     20          1           0       -2.772706    0.156068   -1.844707
     21          1           0       -1.168278    0.382424   -2.125715
     22          1           0       -1.803142   -2.835199    0.032787
     23          1           0       -2.825395   -1.732202   -0.685160
 ---------------------------------------------------------------------

 SCF Done:  E(UB3LYP) =  -857.031456978     A.U. after   29 cycles

 The electronic state is 2-A.
 Alpha  occ. eigenvalues --  -88.74627 -19.02044 -14.20110 -14.18827 -10.11242
 Alpha  occ. eigenvalues --  -10.09646 -10.09255 -10.06348 -10.05989 -10.05950
 Alpha  occ. eigenvalues --  -10.04587  -7.82842  -5.79496  -5.78864  -5.78032
 Alpha  occ. eigenvalues --   -0.90356  -0.81777  -0.77438  -0.71834  -0.65101
 Alpha  occ. eigenvalues --   -0.62336  -0.59724  -0.53678  -0.49184  -0.48208
 Alpha  occ. eigenvalues --   -0.40785  -0.40184  -0.38810  -0.37693  -0.36332
 Alpha  occ. eigenvalues --   -0.33938  -0.33801  -0.31614  -0.29596  -0.28670
 Alpha  occ. eigenvalues --   -0.28334  -0.27065  -0.25660  -0.24723  -0.23474
 Alpha  occ. eigenvalues --   -0.21337  -0.18554  -0.14892  -0.14014  -0.10434
 Alpha  occ. eigenvalues --   -0.09824   0.04414
 Alpha virt. eigenvalues --    0.06321   0.08600   0.08926   0.09176   0.10278
 Alpha virt. eigenvalues --    0.10879   0.11184   0.11440   0.12168   0.12964
 Alpha virt. eigenvalues --    0.13586   0.14340   0.14411   0.15227   0.15804

  Beta  occ. eigenvalues --  -88.74575 -19.01853 -14.20030 -14.18783 -10.11245
  Beta  occ. eigenvalues --  -10.09592 -10.09261 -10.06332 -10.05944 -10.05937
  Beta  occ. eigenvalues --  -10.04585  -7.82793  -5.79341  -5.78834  -5.78000
  Beta  occ. eigenvalues --   -0.89872  -0.81684  -0.77344  -0.71764  -0.65013
  Beta  occ. eigenvalues --   -0.62257  -0.59590  -0.53485  -0.49108  -0.48090
  Beta  occ. eigenvalues --   -0.40688  -0.40111  -0.38743  -0.37445  -0.36230
  Beta  occ. eigenvalues --   -0.33883  -0.33727  -0.31550  -0.29412  -0.28624
  Beta  occ. eigenvalues --   -0.28247  -0.27017  -0.25364  -0.24603  -0.23409
  Beta  occ. eigenvalues --   -0.21229  -0.18360  -0.14755  -0.13908  -0.10233
  Beta  occ. eigenvalues --   -0.09716
  Beta virt. eigenvalues --    0.07480   0.07611   0.09017   0.09379   0.09539
  Beta virt. eigenvalues --    0.10458   0.11204   0.11453   0.11837   0.12360
  Beta virt. eigenvalues --    0.13272   0.13970   0.14597   0.14695   0.15521

 Mulliken charges and spin densities:
               1          2
     1  C   -0.428770  -0.198752
     2  S   -0.106250   0.053640
     3  O   -0.252242  -0.078373
     4  C   -0.426300  -0.172784
     5  C    0.601265  -0.263214
     6  C    0.123042  -0.271908
     7  C   -0.814729   0.286413
     8  C    1.065762  -0.827823
     9  C   -0.069561  -0.103145
    10  N   -0.321508   0.093044
    11  N   -0.189582  -0.086525
    12  H    0.052091   0.072520
    13  H    0.093010   0.049273
    14  H    0.096049   0.052620
    15  H   -0.097789   0.363811
    16  H    0.010337   0.143970
    17  H    0.261902   0.002349
    18  H   -0.012858   0.167032
    19  H    0.149966  -0.006312
    20  H   -0.218712   0.460185
    21  H    0.153539   0.083670
    22  H   -0.256764   0.510052
    23  H   -0.411898   0.670257
 Sum of Mulliken charges =  -1.00000   1.00000

 Dipole moment (field-independent basis, Debye):
    X=              0.2382    Y=              3.0727    Z=              3.3622  Tot=              4.5610
 Quadrupole moment (field-independent basis, Debye-Ang):
   XX=           -141.2698   YY=           -104.1477   ZZ=            -96.2774
   XY=            -12.6238   XZ=             -8.0850   YZ=             -2.6873

 Summary of Natural Population Analysis:

                                       Natural Population
                Natural  -----------------------------------------------
    Atom  No    Charge         Core      Valence    Rydberg      Total
 -----------------------------------------------------------------------
      C    1   -0.28025      0.99963     2.27374    0.00688     3.28025
      S    2    0.23966      4.99964     2.73780    0.02290     7.76034
      O    3   -0.41560      0.99992     3.40737    0.00830     4.41560
      C    4   -0.09591      0.99951     2.08451    0.01189     3.09591
      C    5   -0.18808      0.99954     2.17547    0.01307     3.18808
      C    6   -0.16224      0.99946     2.15007    0.01271     3.16224
      C    7    0.11055      0.99942     1.87478    0.01525     2.88945
      C    8    0.02224      0.99951     1.96481    0.01344     2.97776
      C    9   -0.07776      0.99950     2.06701    0.01125     3.07776
      N   10   -0.42166      0.99976     2.91108    0.01082     3.92166
      N   11   -0.40249      0.99971     2.89073    0.01205     3.90249
      H   12    0.10293      0.00000     0.39615    0.00092     0.39707
      H   13    0.09934      0.00000     0.39980    0.00086     0.40066
      H   14    0.10256      0.00000     0.39681    0.00063     0.39744
      H   15    0.23281      0.00000     0.26034    0.00686     0.26719
      H   16    0.09928      0.00000     0.39927    0.00145     0.40072
      H   17    0.10420      0.00000     0.39401    0.00179     0.39580
      H   18    0.10018      0.00000     0.39857    0.00125     0.39982
      H   19    0.09724      0.00000     0.40171    0.00106     0.40276
      H   20    0.17744      0.00000     0.31938    0.00318     0.32256
      H   21    0.18012      0.00000     0.31793    0.00194     0.31988
      H   22    0.18621      0.00000     0.31045    0.00334     0.31379
      H   23    0.18921      0.00000     0.29661    0.01417     0.31079
 =======================================================================
   * Total *    0.00000     14.99559    30.82841    0.17600    46.00000

 Normal termination of Gaussian 16 at Tue Dec  8 19:57:59 2020.
