 Gaussian 16, Revision A.03,

 -----------------------------------------------------------
 # opt freq B3LYP/6-31G(d) empiricaldispersion=gd3bj scf=xqc
 -----------------------------------------------------------

 -------------------------------
 CID_153676861_JID_1083_neutraal
 -------------------------------
 Symbolic Z-matrix:
 Charge =  0 Multiplicity = 1

 SCF Done:  E(RB3LYP) =  -589.663639044     A.U. after   15 cycles
 SCF Done:  E(RB3LYP) =  -589.667119877     A.U. after   14 cycles
 SCF Done:  E(RB3LYP) =  -589.666495071     A.U. after   13 cycles
 SCF Done:  E(RB3LYP) =  -589.669180111     A.U. after   13 cycles
 SCF Done:  E(RB3LYP) =  -589.670918573     A.U. after   14 cycles
 SCF Done:  E(RB3LYP) =  -589.672675762     A.U. after   16 cycles
 SCF Done:  E(RB3LYP) =  -589.673392553     A.U. after   15 cycles
 SCF Done:  E(RB3LYP) =  -589.673506492     A.U. after   14 cycles
 SCF Done:  E(RB3LYP) =  -589.673862423     A.U. after   12 cycles
 SCF Done:  E(RB3LYP) =  -589.673929846     A.U. after   13 cycles
 SCF Done:  E(RB3LYP) =  -589.673969065     A.U. after   11 cycles
 SCF Done:  E(RB3LYP) =  -589.673974237     A.U. after   10 cycles
 SCF Done:  E(RB3LYP) =  -589.673978622     A.U. after   10 cycles
 SCF Done:  E(RB3LYP) =  -589.673979741     A.U. after    9 cycles
 SCF Done:  E(RB3LYP) =  -589.673979953     A.U. after    8 cycles
 SCF Done:  E(RB3LYP) =  -589.673980011     A.U. after    7 cycles
 Optimization completed.
    -- Stationary point found.
 Normal termination of Gaussian 16 at Tue Dec  8 19:14:15 2020.

 --------------------------------------------------------------------
 #N Geom=AllCheck Guess=TCheck SCRF=Check GenChk RB3LYP/6-31G(d) Freq
 --------------------------------------------------------------------

 Structure from the checkpoint file:  "JID_1083.chk"
 -------------------------------
 CID_153676861_JID_1083_neutraal
 -------------------------------
 Charge =  0 Multiplicity = 1

 SCF Done:  E(RB3LYP) =  -589.673980011     A.U. after    1 cycles

  Exact polarizability: 107.180  -4.887  82.947  -4.390  -2.214  59.978
 Approx polarizability: 161.211  -2.081 120.362 -13.199  -8.906  86.268

                      1                      2                      3
                      A                      A                      A
 Frequencies --     37.1463                46.4728                48.9496
 Red. masses --      5.5555                 6.9518                 4.7952
 Frc consts  --      0.0045                 0.0088                 0.0068
 IR Inten    --      3.8006                 2.8837                 0.3608

                      4                      5                      6
                      A                      A                      A
 Frequencies --     86.3394               122.1575               152.7127
 Red. masses --      2.3670                 1.8594                 2.6519
 Frc consts  --      0.0104                 0.0163                 0.0364
 IR Inten    --      0.8566                 0.4815                 1.7929

                      7                      8                      9
                      A                      A                      A
 Frequencies --    181.5185               187.4835               281.0812
 Red. masses --      1.0287                 3.2070                 5.0178
 Frc consts  --      0.0200                 0.0664                 0.2336
 IR Inten    --      0.1045                 8.7276                 1.1642

                     10                     11                     12
                      A                      A                      A
 Frequencies --    296.2612               353.1115               408.4428
 Red. masses --      4.1774                 3.5192                 4.9784
 Frc consts  --      0.2160                 0.2585                 0.4893
 IR Inten    --      0.5297                 9.4035                 3.2118

                     13                     14                     15
                      A                      A                      A
 Frequencies --    409.7048               440.0685               482.1129
 Red. masses --      3.7865                 6.0611                 2.4797
 Frc consts  --      0.3745                 0.6916                 0.3396
 IR Inten    --      3.4733                 5.6218                 1.4978

                     16                     17                     18
                      A                      A                      A
 Frequencies --    546.1344               610.0651               645.0532
 Red. masses --      3.3930                 1.8243                 2.9173
 Frc consts  --      0.5963                 0.4000                 0.7152
 IR Inten    --     30.4955                44.7134                29.3841

                     19                     20                     21
                      A                      A                      A
 Frequencies --    669.9394               752.4826               800.7110
 Red. masses --      2.9770                 4.1853                 4.1858
 Frc consts  --      0.7872                 1.3963                 1.5812
 IR Inten    --     57.2428                38.5868                28.3831

                     22                     23                     24
                      A                      A                      A
 Frequencies --    821.7004               915.8106               960.9050
 Red. masses --      2.4185                 2.2276                 5.3910
 Frc consts  --      0.9621                 1.1008                 2.9328
 IR Inten    --     20.5055                 3.9190                69.2742

                     25                     26                     27
                      A                      A                      A
 Frequencies --   1021.7698              1053.8159              1092.6401
 Red. masses --      1.9020                 1.8947                 8.0978
 Frc consts  --      1.1699                 1.2397                 5.6960
 IR Inten    --     20.6494                11.5480               468.5891

                     28                     29                     30
                      A                      A                      A
 Frequencies --   1159.2587              1184.0403              1185.5483
 Red. masses --      3.8140                 1.7365                 1.2733
 Frc consts  --      3.0199                 1.4344                 1.0544
 IR Inten    --     74.7212                57.7948                 2.5838

                     31                     32                     33
                      A                      A                      A
 Frequencies --   1221.0281              1229.4925              1286.1851
 Red. masses --      1.6076                 2.5453                 1.5099
 Frc consts  --      1.4122                 2.2669                 1.4717
 IR Inten    --     27.8863               108.1577                 3.1351

                     34                     35                     36
                      A                      A                      A
 Frequencies --   1321.5212              1400.6022              1413.1900
 Red. masses --      1.5113                 3.1820                 1.3214
 Frc consts  --      1.5551                 3.6777                 1.5549
 IR Inten    --      4.7918                55.6916                36.7407

                     37                     38                     39
                      A                      A                      A
 Frequencies --   1475.2399              1486.2126              1496.4371
 Red. masses --      1.0999                 1.1472                 1.0525
 Frc consts  --      1.4104                 1.4929                 1.3886
 IR Inten    --     10.2903                 6.0420                16.1435

                     40                     41                     42
                      A                      A                      A
 Frequencies --   1505.2224              1507.2503              1531.1743
 Red. masses --      1.0532                 1.0507                 1.0494
 Frc consts  --      1.4059                 1.4064                 1.4496
 IR Inten    --     12.7844                 6.7536                19.5230

                     43                     44                     45
                      A                      A                      A
 Frequencies --   1672.5651              1830.3623              1849.0797
 Red. masses --     10.7118                10.7214                10.4126
 Frc consts  --     17.6555                21.1629                20.9758
 IR Inten    --     73.2194               181.1704               254.9954

                     46                     47                     48
                      A                      A                      A
 Frequencies --   3054.9503              3063.7732              3080.1406
 Red. masses --      1.0385                 1.0294                 1.0633
 Frc consts  --      5.7106                 5.6930                 5.9438
 IR Inten    --      1.5562                61.4019                 4.3220

                     49                     50                     51
                      A                      A                      A
 Frequencies --   3118.6014              3140.6548              3153.9682
 Red. masses --      1.0969                 1.1086                 1.0990
 Frc consts  --      6.2853                 6.4429                 6.4410
 IR Inten    --      5.3547                26.1731                 1.3329

                     52                     53                     54
                      A                      A                      A
 Frequencies --   3172.5518              3172.9343              3698.1266
 Red. masses --      1.1057                 1.1037                 1.0642
 Frc consts  --      6.5570                 6.5469                 8.5752
 IR Inten    --     11.8915                11.6753                80.3606

 - Thermochemistry -
 -------------------
 Temperature   298.150 Kelvin.  Pressure   1.00000 Atm.
 Atom     1 has atomic number  6 and mass  12.00000

 Molecular mass:   159.05316 amu.
 Principal axes and moments of inertia in atomic units:
                           1         2         3
     Eigenvalues --  1557.945301901.284993047.90983
           X            0.99339  -0.11476   0.00353
           Y            0.11468   0.99323   0.01874
           Z           -0.00566  -0.01821   0.99982
 This molecule is an asymmetric top.
 Rotational symmetry number  1.
 Warning -- assumption of classical behavior for rotation
           may cause significant error
 Rotational temperatures (Kelvin)      0.05559     0.04556     0.02842
 Rotational constants (GHZ):           1.15841     0.94922     0.59212
 Zero-point vibrational energy     405741.6 (Joules/Mol)
                                   96.97458 (Kcal/Mol)
 Warning -- explicit consideration of  17 degrees of freedom as
           vibrations may cause significant error
 Vibrational temperatures:     53.45    66.86    70.43   124.22   175.76
          (Kelvin)            219.72   261.16   269.75   404.41   426.25
                              508.05   587.66   589.47   633.16   693.65
                              785.77   877.75   928.09   963.89  1082.65
                             1152.04  1182.24  1317.65  1382.53  1470.10
                             1516.21  1572.07  1667.91  1703.57  1705.74
                             1756.79  1768.97  1850.53  1901.37  2015.15
                             2033.27  2122.54  2138.33  2153.04  2165.68
                             2168.60  2203.02  2406.45  2633.48  2660.41
                             4395.39  4408.09  4431.64  4486.97  4518.70
                             4537.86  4564.59  4565.14  5320.78

 Zero-point correction=                           0.154539 (Hartree/Particle)
 Thermal correction to Energy=                    0.166707
 Thermal correction to Enthalpy=                  0.167651
 Thermal correction to Gibbs Free Energy=         0.114613
 Sum of electronic and zero-point Energies=           -589.519441
 Sum of electronic and thermal Energies=              -589.507273
 Sum of electronic and thermal Enthalpies=            -589.506329
 Sum of electronic and thermal Free Energies=         -589.559367

                     E (Thermal)             CV                S
                      KCal/Mol        Cal/Mol-Kelvin    Cal/Mol-Kelvin
 Total                  104.610             41.864            111.629
 Electronic               0.000              0.000              0.000
 Translational            0.889              2.981             41.101
 Rotational               0.889              2.981             30.580
 Vibrational            102.833             35.902             39.947
 Vibration     1          0.594              1.982              5.406
 Vibration     2          0.595              1.979              4.962
 Vibration     3          0.595              1.978              4.859
 Vibration     4          0.601              1.959              3.741
 Vibration     5          0.610              1.931              3.066
 Vibration     6          0.619              1.900              2.638
 Vibration     7          0.630              1.865              2.313
 Vibration     8          0.632              1.857              2.253
 Vibration     9          0.681              1.709              1.527
 Vibration    10          0.690              1.681              1.438
 Vibration    11          0.729              1.569              1.152
 Vibration    12          0.773              1.452              0.932
 Vibration    13          0.774              1.449              0.928
 Vibration    14          0.800              1.383              0.826
 Vibration    15          0.838              1.290              0.704
 Vibration    16          0.901              1.148              0.552
 Vibration    17          0.969              1.011              0.433

 Optimization completed.
    -- Stationary point found.
 Normal termination of Gaussian 16 at Tue Dec  8 19:17:58 2020.

 ----------------------------------------------------------------------
 # B3LYP/6-311++G(d,p) empiricaldispersion=gd3bj scf=xqc pop=npa geom=c
 heck
 ----------------------------------------------------------------------

 ---------------------------------------
 CID_153676861_JID_1083_Energie_neutraal
 ---------------------------------------
 Structure from the checkpoint file:  "JID_1083.chk"
 Charge =  0 Multiplicity = 1

 SCF Done:  E(RB3LYP) =  -589.859401095     A.U. after   15 cycles
 Normal termination of Gaussian 16 at Tue Dec  8 19:19:32 2020.

 ----------------------------------------------------------------------
 # B3LYP/6-311++G(d,p) empiricaldispersion=gd3bj scf=xqc pop=npa geom=c
 heck
 ----------------------------------------------------------------------

 -------------------------------------
 CID_153676861_JID_1083_Energie_kation
 -------------------------------------
 Structure from the checkpoint file:  "JID_1083.chk"
 Charge =  1 Multiplicity = 2

 SCF Done:  E(UB3LYP) =  -589.523457714     A.U. after   23 cycles
 Normal termination of Gaussian 16 at Tue Dec  8 19:22:50 2020.
 Gaussian 16:  ES64L-G16RevA.03 25-Dec-2016

 ----------------------------------------------------------------------
 # B3LYP/6-311++G(d,p) empiricaldispersion=gd3bj scf=xqc pop=npa geom=c
 heck
 ----------------------------------------------------------------------

 ------------------------------------
 CID_153676861_JID_1083_Energie_anion
 ------------------------------------
 Structure from the checkpoint file:  "JID_1083.chk"
 Charge = -1 Multiplicity = 2

                         Standard orientation:
 ---------------------------------------------------------------------
 Center     Atomic      Atomic             Coordinates (Angstroms)
 Number     Number       Type             X           Y           Z
 ---------------------------------------------------------------------
      1          6           0        0.901263    1.644227    1.348759
      2          6           0        1.463870    1.391952   -0.033176
      3          8           0        2.517681    1.857121   -0.410011
      4          6           0        0.610093    0.538806   -0.991220
      5          6           0       -0.215152   -0.528415   -0.329315
      6          7           0       -1.454975   -0.430614    0.004419
      7          8           0       -1.981325    0.806967   -0.302554
      8          6           0       -3.372334    0.822305    0.035955
      9          6           0        0.405009   -1.838947    0.046829
     10          8           0       -0.173150   -2.834402    0.414171
     11          8           0        1.757907   -1.762687   -0.062276
     12          1           0        1.478534    2.425538    1.845933
     13          1           0        0.960827    0.721463    1.939669
     14          1           0       -0.157201    1.920022    1.290028
     15          1           0       -0.068430    1.229936   -1.503956
     16          1           0        1.289212    0.106053   -1.727439
     17          1           0       -3.920126    0.083346   -0.556406
     18          1           0       -3.509834    0.618276    1.101895
     19          1           0       -3.713818    1.830408   -0.205877
     20          1           0        2.100269   -2.636305    0.203596
 ---------------------------------------------------------------------

 SCF Done:  E(UB3LYP) =  -589.872018630     A.U. after   30 cycles

 The electronic state is 2-A.
 Alpha  occ. eigenvalues --  -19.01075 -19.00184 -18.97417 -18.92226 -14.15944
 Alpha  occ. eigenvalues --  -10.12062 -10.10584 -10.08877 -10.04072 -10.02975
 Alpha  occ. eigenvalues --  -10.01863  -0.93985  -0.93462  -0.90964  -0.84143
 Alpha  occ. eigenvalues --   -0.71117  -0.62737  -0.58351  -0.54912  -0.49616
 Alpha  occ. eigenvalues --   -0.41150  -0.39494  -0.35139  -0.33937  -0.33529
 Alpha  occ. eigenvalues --   -0.32244  -0.31747  -0.30751  -0.29593  -0.28221
 Alpha  occ. eigenvalues --   -0.27784  -0.26560  -0.24936  -0.23889  -0.22862
 Alpha  occ. eigenvalues --   -0.22107  -0.21144  -0.16218  -0.12623  -0.10798
 Alpha  occ. eigenvalues --   -0.10628  -0.09377   0.05637
 Alpha virt. eigenvalues --    0.08703   0.10041   0.10774   0.11361   0.12020
 Alpha virt. eigenvalues --    0.12527   0.13242   0.14114   0.15057   0.15526
 Alpha virt. eigenvalues --    0.16538   0.17185   0.17993   0.19587   0.20055

  Beta  occ. eigenvalues --  -19.00947 -19.00070 -18.97370 -18.91943 -14.15019
  Beta  occ. eigenvalues --  -10.11960 -10.10282 -10.08878 -10.04076 -10.03003
  Beta  occ. eigenvalues --  -10.01701  -0.93478  -0.93016  -0.90856  -0.83683
  Beta  occ. eigenvalues --   -0.70278  -0.62492  -0.58106  -0.54688  -0.48930
  Beta  occ. eigenvalues --   -0.40738  -0.39279  -0.34941  -0.33548  -0.33050
  Beta  occ. eigenvalues --   -0.32042  -0.31528  -0.30526  -0.29244  -0.27614
  Beta  occ. eigenvalues --   -0.27076  -0.26270  -0.24747  -0.23614  -0.22631
  Beta  occ. eigenvalues --   -0.20898  -0.20228  -0.14895  -0.12298  -0.10302
  Beta  occ. eigenvalues --   -0.09744  -0.07283
  Beta virt. eigenvalues --    0.08616   0.09984   0.10781   0.11256   0.12166
  Beta virt. eigenvalues --    0.12477   0.13091   0.14062   0.14382   0.15040
  Beta virt. eigenvalues --    0.15573   0.16572   0.17211   0.17968   0.19554

 Mulliken charges and spin densities:
               1          2
     1  C   -0.556766  -0.022470
     2  C    0.072687   0.104978
     3  O   -0.316235   0.018099
     4  C   -0.574001  -0.106478
     5  C    0.121906   0.145507
     6  N   -0.416273   0.445132
     7  O    0.057039   0.020328
     8  C   -0.211891  -0.032272
     9  C    0.081781   0.196526
    10  O   -0.411247   0.105582
    11  O   -0.228448   0.021337
    12  H    0.137688   0.000012
    13  H    0.174344   0.007193
    14  H    0.147708   0.007340
    15  H    0.126252   0.033080
    16  H    0.218176   0.000260
    17  H    0.099507   0.033887
    18  H    0.118468   0.012626
    19  H    0.095253   0.007803
    20  H    0.264050   0.001530
 Sum of Mulliken charges =  -1.00000   1.00000

 Dipole moment (field-independent basis, Debye):
    X=             -0.8827    Y=              3.0788    Z=              0.5132  Tot=              3.2437
 Quadrupole moment (field-independent basis, Debye-Ang):
   XX=            -85.8636   YY=            -90.8416   ZZ=            -70.7765
   XY=            -14.9872   XZ=              3.7294   YZ=              4.4222

 Summary of Natural Population Analysis:

                                       Natural Population
                Natural  -----------------------------------------------
    Atom  No    Charge         Core      Valence    Rydberg      Total
 -----------------------------------------------------------------------
      C    1   -0.34088      0.99962     2.33702    0.00424     3.34088
      C    2    0.31769      0.99970     1.66279    0.01982     2.68231
      O    3   -0.30066      0.99987     3.29264    0.00815     4.30066
      C    4   -0.26441      0.99955     2.25308    0.01178     3.26441
      C    5    0.04033      0.99957     1.93997    0.02013     2.95967
      N    6    0.07333      0.99959     2.41151    0.01557     3.42667
      O    7   -0.22708      0.99989     3.21335    0.01384     4.22708
      C    8   -0.09067      0.99963     2.08224    0.00880     3.09067
      C    9    0.42223      0.99968     1.55178    0.02631     2.57777
      O   10   -0.30011      0.99987     3.29394    0.00630     4.30011
      O   11   -0.35521      0.99988     3.34805    0.00728     4.35521
      H   12    0.09823      0.00000     0.40060    0.00117     0.40177
      H   13    0.11683      0.00000     0.38149    0.00168     0.38317
      H   14    0.11423      0.00000     0.38444    0.00133     0.38577
      H   15    0.11708      0.00000     0.38085    0.00207     0.38292
      H   16    0.11460      0.00000     0.38440    0.00100     0.38540
      H   17    0.08005      0.00000     0.41785    0.00209     0.41995
      H   18    0.08124      0.00000     0.41734    0.00143     0.41876
      H   19    0.07689      0.00000     0.42185    0.00126     0.42311
      H   20    0.22629      0.00000     0.26873    0.00498     0.27371
 =======================================================================
   * Total *    0.00000     10.99685    30.84393    0.15922    42.00000

 Normal termination of Gaussian 16 at Tue Dec  8 19:27:15 2020.
