 Gaussian 16, Revision A.03,

 -----------------------------------------------------------
 # opt freq B3LYP/6-31G(d) empiricaldispersion=gd3bj scf=xqc
 -----------------------------------------------------------

 -------------------------------
 CID_105422570_JID_1422_neutraal
 -------------------------------
 Symbolic Z-matrix:
 Charge =  0 Multiplicity = 1

 SCF Done:  E(RB3LYP) =  -515.399690559     A.U. after   15 cycles
 SCF Done:  E(RB3LYP) =  -515.403631372     A.U. after   13 cycles
 SCF Done:  E(RB3LYP) =  -515.404127747     A.U. after   12 cycles
 SCF Done:  E(RB3LYP) =  -515.404257102     A.U. after   12 cycles
 SCF Done:  E(RB3LYP) =  -515.404488801     A.U. after   12 cycles
 SCF Done:  E(RB3LYP) =  -515.404952804     A.U. after   12 cycles
 SCF Done:  E(RB3LYP) =  -515.347263272     A.U. after   15 cycles
 SCF Done:  E(RB3LYP) =  -515.406440294     A.U. after   13 cycles
 SCF Done:  E(RB3LYP) =  -515.406633159     A.U. after   13 cycles
 SCF Done:  E(RB3LYP) =  -515.388626275     A.U. after   15 cycles
 SCF Done:  E(RB3LYP) =  -515.407636587     A.U. after   10 cycles
 SCF Done:  E(RB3LYP) =  -515.407637915     A.U. after   12 cycles
 SCF Done:  E(RB3LYP) =  -515.407637761     A.U. after   11 cycles
 SCF Done:  E(RB3LYP) =  -515.407638321     A.U. after    9 cycles
 SCF Done:  E(RB3LYP) =  -515.407638605     A.U. after    9 cycles
 Optimization completed.
    -- Stationary point found.
 Normal termination of Gaussian 16 at Tue Dec  8 20:02:31 2020.

 --------------------------------------------------------------------
 #N Geom=AllCheck Guess=TCheck SCRF=Check GenChk RB3LYP/6-31G(d) Freq
 --------------------------------------------------------------------

 Structure from the checkpoint file:  "JID_1422.chk"
 -------------------------------
 CID_105422570_JID_1422_neutraal
 -------------------------------
 Charge =  0 Multiplicity = 1

 SCF Done:  E(RB3LYP) =  -515.407638605     A.U. after    1 cycles

  Exact polarizability: 105.083  -3.334  98.310  -5.065  -1.251  56.808
 Approx polarizability: 159.733  -4.496 154.984 -13.160  -2.500  89.127

                      1                      2                      3
                      A                      A                      A
 Frequencies --     27.8863                73.6453               146.5695
 Red. masses --      4.6640                 2.6588                 3.2951
 Frc consts  --      0.0021                 0.0085                 0.0417
 IR Inten    --      2.9155                 0.2608                 0.2714

                      4                      5                      6
                      A                      A                      A
 Frequencies --    158.5529               188.1403               197.9438
 Red. masses --      3.9983                 1.7254                 1.7746
 Frc consts  --      0.0592                 0.0360                 0.0410
 IR Inten    --      1.1876                 0.0767                 1.3083

                      7                      8                      9
                      A                      A                      A
 Frequencies --    234.1331               350.6062               380.2871
 Red. masses --      4.0378                 3.7337                 5.9623
 Frc consts  --      0.1304                 0.2704                 0.5080
 IR Inten    --      0.4252                 2.3955                 0.9151

                     10                     11                     12
                      A                      A                      A
 Frequencies --    398.4947               556.7075               573.0654
 Red. masses --      4.0678                 3.7268                 3.8731
 Frc consts  --      0.3806                 0.6805                 0.7494
 IR Inten    --      0.7901                 5.5417                 4.1544

                     13                     14                     15
                      A                      A                      A
 Frequencies --    597.4834               628.9100               660.5945
 Red. masses --      3.3178                 4.0841                 3.2968
 Frc consts  --      0.6978                 0.9518                 0.8476
 IR Inten    --     10.2249                 5.8888                19.1980

                     16                     17                     18
                      A                      A                      A
 Frequencies --    733.9466               806.7426               833.2105
 Red. masses --      3.7062                 1.0829                 1.3439
 Frc consts  --      1.1763                 0.4152                 0.5497
 IR Inten    --      6.1231                 1.5359                 5.6980

                     19                     20                     21
                      A                      A                      A
 Frequencies --    846.8557               911.4910               921.1211
 Red. masses --      1.4465                 3.5803                 4.5533
 Frc consts  --      0.6112                 1.7526                 2.2762
 IR Inten    --     12.4780                11.0689                59.3134

                     22                     23                     24
                      A                      A                      A
 Frequencies --    942.2764               958.0373              1001.0556
 Red. masses --      4.0165                 8.1880                 2.3509
 Frc consts  --      2.1011                 4.4278                 1.3880
 IR Inten    --      2.7599                15.9309                 0.6442

                     25                     26                     27
                      A                      A                      A
 Frequencies --   1057.3115              1070.4335              1080.3732
 Red. masses --      1.8413                 1.3376                 1.9096
 Frc consts  --      1.2128                 0.9030                 1.3133
 IR Inten    --      3.3656                 6.7131                16.9571

                     28                     29                     30
                      A                      A                      A
 Frequencies --   1094.1868              1139.2162              1143.5074
 Red. masses --      1.3483                 1.1978                 1.7516
 Frc consts  --      0.9511                 0.9159                 1.3495
 IR Inten    --      2.6865                 1.5008                15.6735

                     31                     32                     33
                      A                      A                      A
 Frequencies --   1153.6610              1212.5519              1220.5305
 Red. masses --      3.0361                 1.4026                 3.0778
 Frc consts  --      2.3808                 1.2150                 2.7014
 IR Inten    --     17.6437                 0.8868                28.7612

                     34                     35                     36
                      A                      A                      A
 Frequencies --   1257.5908              1303.7168              1388.5638
 Red. masses --      2.2809                 1.8379                 2.8570
 Frc consts  --      2.1254                 1.8405                 3.2455
 IR Inten    --     48.8593                 3.8110                 0.9011

                     37                     38                     39
                      A                      A                      A
 Frequencies --   1413.7805              1429.0860              1483.7471
 Red. masses --      1.4281                 3.0923                 3.6630
 Frc consts  --      1.6818                 3.7209                 4.7512
 IR Inten    --     24.2461                31.3395                77.5149

                     40                     41                     42
                      A                      A                      A
 Frequencies --   1492.8446              1496.1753              1502.4317
 Red. masses --      1.1104                 1.1274                 1.0507
 Frc consts  --      1.4580                 1.4870                 1.3973
 IR Inten    --      2.1910                10.4155                11.7894

                     43                     44                     45
                      A                      A                      A
 Frequencies --   1534.3155              1643.1702              1806.0851
 Red. masses --      1.4128                 7.2526                11.0927
 Frc consts  --      1.9596                11.5375                21.3188
 IR Inten    --      0.6706                 0.8357               154.0462

                     46                     47                     48
                      A                      A                      A
 Frequencies --   3058.0766              3122.5525              3151.9199
 Red. masses --      1.0384                 1.0977                 1.0535
 Frc consts  --      5.7214                 6.3057                 6.1663
 IR Inten    --      1.9441                 6.7040                11.5578

                     49                     50                     51
                      A                      A                      A
 Frequencies --   3155.6922              3159.6914              3173.3812
 Red. masses --      1.0786                 1.0647                 1.1027
 Frc consts  --      6.3285                 6.2625                 6.5428
 IR Inten    --     13.5633                 6.3797                 8.1764

                     52                     53                     54
                      A                      A                      A
 Frequencies --   3230.4553              3244.0018              3291.0227
 Red. masses --      1.1201                 1.1166                 1.0991
 Frc consts  --      6.8872                 6.9235                 7.0137
 IR Inten    --      0.4035                17.2259                 0.2709

 - Thermochemistry -
 -------------------
 Temperature   298.150 Kelvin.  Pressure   1.00000 Atm.
 Atom     1 has atomic number  6 and mass  12.00000

 Molecular mass:   151.06333 amu.
 Principal axes and moments of inertia in atomic units:
                           1         2         3
     Eigenvalues --  1193.553211779.239962798.64755
           X            0.99993  -0.00953   0.00758
           Y            0.00959   0.99992  -0.00807
           Z           -0.00751   0.00814   0.99994
 This molecule is an asymmetric top.
 Rotational symmetry number  1.
 Warning -- assumption of classical behavior for rotation
           may cause significant error
 Rotational temperatures (Kelvin)      0.07257     0.04868     0.03095
 Rotational constants (GHZ):           1.51207     1.01433     0.64486
 Zero-point vibrational energy     416526.7 (Joules/Mol)
                                   99.55228 (Kcal/Mol)
 Warning -- explicit consideration of  13 degrees of freedom as
           vibrations may cause significant error
 Vibrational temperatures:     40.12   105.96   210.88   228.12   270.69
          (Kelvin)            284.80   336.87   504.44   547.15   573.35
                              800.98   824.51   859.65   904.86   950.45
                             1055.99  1160.72  1198.80  1218.44  1311.43
                             1325.29  1355.73  1378.40  1440.30  1521.24
                             1540.12  1554.42  1574.29  1639.08  1645.25
                             1659.86  1744.59  1756.07  1809.39  1875.76
                             1997.83  2034.11  2056.14  2134.78  2147.87
                             2152.66  2161.66  2207.54  2364.16  2598.55
                             4399.89  4492.66  4534.91  4540.34  4546.09
                             4565.79  4647.90  4667.40  4735.05

 Zero-point correction=                           0.158647 (Hartree/Particle)
 Thermal correction to Energy=                    0.168692
 Thermal correction to Enthalpy=                  0.169636
 Thermal correction to Gibbs Free Energy=         0.122040
 Sum of electronic and zero-point Energies=           -515.248992
 Sum of electronic and thermal Energies=              -515.238946
 Sum of electronic and thermal Enthalpies=            -515.238002
 Sum of electronic and thermal Free Energies=         -515.285599

                     E (Thermal)             CV                S
                      KCal/Mol        Cal/Mol-Kelvin    Cal/Mol-Kelvin
 Total                  105.856             37.063            100.176
 Electronic               0.000              0.000              0.000
 Translational            0.889              2.981             40.948
 Rotational               0.889              2.981             30.164
 Vibrational            104.078             31.101             29.064
 Vibration     1          0.593              1.984              5.974
 Vibration     2          0.599              1.966              4.053
 Vibration     3          0.617              1.906              2.716
 Vibration     4          0.621              1.893              2.567
 Vibration     5          0.633              1.856              2.246
 Vibration     6          0.637              1.843              2.152
 Vibration     7          0.654              1.789              1.847
 Vibration     8          0.728              1.574              1.163
 Vibration     9          0.750              1.512              1.038
 Vibration    10          0.765              1.473              0.968
 Vibration    11          0.912              1.125              0.530
 Vibration    12          0.929              1.090              0.498
 Vibration    13          0.955              1.037              0.454

 Optimization completed.
    -- Stationary point found.
 Normal termination of Gaussian 16 at Tue Dec  8 20:06:26 2020.

 ----------------------------------------------------------------------
 # B3LYP/6-311++G(d,p) empiricaldispersion=gd3bj scf=xqc pop=npa geom=c
 heck
 ----------------------------------------------------------------------

 ---------------------------------------
 CID_105422570_JID_1422_Energie_neutraal
 ---------------------------------------
 Structure from the checkpoint file:  "JID_1422.chk"
 Charge =  0 Multiplicity = 1

 SCF Done:  E(RB3LYP) =  -515.548685983     A.U. after   15 cycles
 Normal termination of Gaussian 16 at Tue Dec  8 20:08:06 2020.

 ----------------------------------------------------------------------
 # B3LYP/6-311++G(d,p) empiricaldispersion=gd3bj scf=xqc pop=npa geom=c
 heck
 ----------------------------------------------------------------------

 -------------------------------------
 CID_105422570_JID_1422_Energie_kation
 -------------------------------------
 Structure from the checkpoint file:  "JID_1422.chk"
 Charge =  1 Multiplicity = 2

 SCF Done:  E(UB3LYP) =  -515.205371722     A.U. after   26 cycles
 Normal termination of Gaussian 16 at Tue Dec  8 20:12:07 2020.
 Gaussian 16:  ES64L-G16RevA.03 25-Dec-2016

 ----------------------------------------------------------------------
 # B3LYP/6-311++G(d,p) empiricaldispersion=gd3bj scf=xqc pop=npa geom=c
 heck
 ----------------------------------------------------------------------

 ------------------------------------
 CID_105422570_JID_1422_Energie_anion
 ------------------------------------
 Structure from the checkpoint file:  "JID_1422.chk"
 Charge = -1 Multiplicity = 2

                         Standard orientation:
 ---------------------------------------------------------------------
 Center     Atomic      Atomic             Coordinates (Angstroms)
 Number     Number       Type             X           Y           Z
 ---------------------------------------------------------------------
      1          6           0        1.161718   -2.154552    0.466695
      2          6           0        1.752007   -0.847070   -0.017403
      3          8           0        2.892979   -0.769547   -0.428202
      4          6           0        0.872847    0.370930    0.037429
      5          7           0        1.443546    1.552042   -0.118269
      6          8           0        0.420797    2.479527   -0.026070
      7          6           0       -0.744517    1.836410    0.183036
      8          6           0       -0.550088    0.489504    0.238489
      9          6           0       -1.582391   -0.556444    0.434278
     10          6           0       -3.001077   -0.317263   -0.024555
     11          6           0       -2.141021   -1.313938   -0.755408
     12          1           0        1.928942   -2.928337    0.410513
     13          1           0        0.299576   -2.439875   -0.145522
     14          1           0        0.806276   -2.060485    1.499888
     15          1           0       -1.621695    2.460289    0.272600
     16          1           0       -1.476992   -1.140385    1.346080
     17          1           0       -3.804851   -0.688983    0.603272
     18          1           0       -3.225338    0.617516   -0.529491
     19          1           0       -1.772569   -1.037391   -1.738921
     20          1           0       -2.353243   -2.371945   -0.631722
 ---------------------------------------------------------------------

 SCF Done:  E(UB3LYP) =  -515.555432311     A.U. after   33 cycles
 SCF Done:  E(UB3LYP) =  -515.555432311     a.u. after    1 cycles

 The electronic state is 2-A.
 Alpha  occ. eigenvalues --  -19.05200 -18.92549 -14.18391 -10.09064 -10.07669
 Alpha  occ. eigenvalues --  -10.07641 -10.06786 -10.06571 -10.05057 -10.04100
 Alpha  occ. eigenvalues --  -10.02949  -0.99454  -0.86816  -0.75747  -0.70932
 Alpha  occ. eigenvalues --   -0.65336  -0.59820  -0.51925  -0.49909  -0.47756
 Alpha  occ. eigenvalues --   -0.44451  -0.41399  -0.38186  -0.36735  -0.32841
 Alpha  occ. eigenvalues --   -0.32310  -0.30006  -0.29452  -0.28985  -0.26379
 Alpha  occ. eigenvalues --   -0.26082  -0.24715  -0.23384  -0.21225  -0.20487
 Alpha  occ. eigenvalues --   -0.19311  -0.14540  -0.14147  -0.12148  -0.08710
 Alpha  occ. eigenvalues --    0.04975
 Alpha virt. eigenvalues --    0.06881   0.08673   0.09433   0.10139   0.11458
 Alpha virt. eigenvalues --    0.12287   0.12850   0.13697   0.14382   0.15155
 Alpha virt. eigenvalues --    0.15876   0.16497   0.17054   0.18054   0.18963

  Beta  occ. eigenvalues --  -19.04965 -18.92107 -14.17742 -10.09071 -10.07665
  Beta  occ. eigenvalues --  -10.07326 -10.06768 -10.06556 -10.05083 -10.04052
  Beta  occ. eigenvalues --  -10.02972  -0.98946  -0.86002  -0.75725  -0.70234
  Beta  occ. eigenvalues --   -0.65097  -0.59526  -0.51824  -0.49831  -0.47224
  Beta  occ. eigenvalues --   -0.44201  -0.41207  -0.38086  -0.36454  -0.32292
  Beta  occ. eigenvalues --   -0.31366  -0.29853  -0.28947  -0.28749  -0.26330
  Beta  occ. eigenvalues --   -0.25865  -0.24418  -0.23119  -0.20422  -0.19366
  Beta  occ. eigenvalues --   -0.19098  -0.13787  -0.12727  -0.10621  -0.08292
  Beta virt. eigenvalues --    0.07415   0.08823   0.09546   0.10152   0.11547
  Beta virt. eigenvalues --    0.11856   0.12265   0.13005   0.14333   0.14462
  Beta virt. eigenvalues --    0.15196   0.15931   0.16437   0.17042   0.17968

 Mulliken charges and spin densities:
               1          2
     1  C   -0.374763  -0.033975
     2  C   -0.023935   0.129634
     3  O   -0.376069   0.159504
     4  C    0.302192  -0.035973
     5  N   -0.468410   0.306704
     6  O    0.184468   0.040884
     7  C   -0.000510  -0.020946
     8  C    0.314133  -0.232138
     9  C   -0.949765   0.742161
    10  C    0.044403  -0.530749
    11  C    0.097103  -0.602583
    12  H    0.134995   0.027197
    13  H    0.058276   0.097969
    14  H    0.096932   0.002076
    15  H    0.100632   0.044061
    16  H    0.136714   0.087208
    17  H   -0.352663   0.500195
    18  H    0.123276  -0.011468
    19  H    0.048623   0.108694
    20  H   -0.095631   0.221546
 Sum of Mulliken charges =  -1.00000   1.00000

 Dipole moment (field-independent basis, Debye):
    X=             -4.8458    Y=             -0.0165    Z=              1.3315  Tot=              5.0254
 Quadrupole moment (field-independent basis, Debye-Ang):
   XX=           -113.6607   YY=            -88.4976   ZZ=            -73.9836
   XY=             -9.3675   XZ=              4.4927   YZ=             -0.5906

 Summary of Natural Population Analysis:

                                       Natural Population
                Natural  -----------------------------------------------
    Atom  No    Charge         Core      Valence    Rydberg      Total
 -----------------------------------------------------------------------
      C    1   -0.33122      0.99964     2.32678    0.00480     3.33122
      C    2    0.30216      0.99966     1.67745    0.02073     2.69784
      O    3   -0.24739      0.99987     3.24107    0.00644     4.24739
      C    4    0.02355      0.99952     1.96012    0.01680     2.97645
      N    5    0.04091      0.99968     2.44660    0.01281     3.45909
      O    6   -0.15069      0.99987     3.14170    0.00912     4.15069
      C    7    0.05791      0.99948     1.92753    0.01509     2.94209
      C    8   -0.08729      0.99947     2.07528    0.01254     3.08729
      C    9   -0.12118      0.99958     2.10968    0.01192     3.12118
      C   10   -0.19769      0.99963     2.18936    0.00870     3.19769
      C   11   -0.19589      0.99962     2.18788    0.00838     3.19589
      H   12    0.10117      0.00000     0.39702    0.00181     0.39883
      H   13    0.10566      0.00000     0.39243    0.00191     0.39434
      H   14    0.09882      0.00000     0.39983    0.00135     0.40118
      H   15    0.08905      0.00000     0.40916    0.00178     0.41095
      H   16    0.10638      0.00000     0.39234    0.00128     0.39362
      H   17    0.10077      0.00000     0.39793    0.00130     0.39923
      H   18    0.10062      0.00000     0.39843    0.00095     0.39938
      H   19    0.10362      0.00000     0.39543    0.00096     0.39638
      H   20    0.10072      0.00000     0.39772    0.00156     0.39928
 =======================================================================
   * Total *    0.00000     10.99602    28.86373    0.14024    40.00000

 Normal termination of Gaussian 16 at Tue Dec  8 20:17:33 2020.
