 Gaussian 16, Revision A.03,

 -----------------------------------------------------------
 # opt freq B3LYP/6-31G(d) empiricaldispersion=gd3bj scf=xqc
 -----------------------------------------------------------

 ------------------------------
 CID_79381332_JID_9145_neutraal
 ------------------------------
 Symbolic Z-matrix:
 Charge =  0 Multiplicity = 1

 SCF Done:  E(RB3LYP) =  -1169.02812758     A.U. after   14 cycles
 SCF Done:  E(RB3LYP) =  -1169.02247458     A.U. after   13 cycles
 SCF Done:  E(RB3LYP) =  -1169.03470145     A.U. after   12 cycles
 SCF Done:  E(RB3LYP) =  -1169.03575310     A.U. after   13 cycles
 SCF Done:  E(RB3LYP) =  -1169.03690291     A.U. after   13 cycles
 SCF Done:  E(RB3LYP) =  -1169.03673700     A.U. after   13 cycles
 SCF Done:  E(RB3LYP) =  -1169.03820500     A.U. after   13 cycles
 SCF Done:  E(RB3LYP) =  -1169.03857433     A.U. after   12 cycles
 SCF Done:  E(RB3LYP) =  -1169.03848148     A.U. after   12 cycles
 SCF Done:  E(RB3LYP) =  -1169.03864578     A.U. after   12 cycles
 SCF Done:  E(RB3LYP) =  -1169.03877988     A.U. after   10 cycles
 SCF Done:  E(RB3LYP) =  -1169.03878357     A.U. after    8 cycles
 SCF Done:  E(RB3LYP) =  -1169.03878474     A.U. after    8 cycles
 SCF Done:  E(RB3LYP) =  -1169.03878497     A.U. after    8 cycles
 SCF Done:  E(RB3LYP) =  -1169.03878491     A.U. after    7 cycles
 Optimization completed.
    -- Stationary point found.
 Normal termination of Gaussian 16 at Mon Dec 14 19:09:54 2020.

 --------------------------------------------------------------------
 #N Geom=AllCheck Guess=TCheck SCRF=Check GenChk RB3LYP/6-31G(d) Freq
 --------------------------------------------------------------------

 Structure from the checkpoint file:  "JID_9145.chk"
 ------------------------------
 CID_79381332_JID_9145_neutraal
 ------------------------------
 Charge =  0 Multiplicity = 1

 SCF Done:  E(RB3LYP) =  -1169.03878492     A.U. after    1 cycles

  Exact polarizability: 180.933   9.958 228.538   2.741  10.979 158.475
 Approx polarizability: 235.212  24.090 341.030   8.561  30.949 283.778

                      1                      2                      3
                      A                      A                      A
 Frequencies --     31.0902                33.6567                51.7170
 Red. masses --      6.5407                 4.2138                 4.4329
 Frc consts  --      0.0037                 0.0028                 0.0070
 IR Inten    --      4.5331                 0.7190                 0.4878

                      4                      5                      6
                      A                      A                      A
 Frequencies --     69.6816                77.4623                81.1999
 Red. masses --      3.7471                 3.9964                 3.3636
 Frc consts  --      0.0107                 0.0141                 0.0131
 IR Inten    --      0.5808                 1.0124                 0.5720

                      7                      8                      9
                      A                      A                      A
 Frequencies --     89.4292               116.7702               134.5180
 Red. masses --      3.2438                 3.0124                 3.8521
 Frc consts  --      0.0153                 0.0242                 0.0411
 IR Inten    --      0.9898                 0.8914                 0.4234

                     10                     11                     12
                      A                      A                      A
 Frequencies --    160.7917               187.2919               196.7946
 Red. masses --      3.0932                 3.3218                 2.5460
 Frc consts  --      0.0471                 0.0687                 0.0581
 IR Inten    --      1.4036                 1.4086                 0.6746

                     13                     14                     15
                      A                      A                      A
 Frequencies --    235.9853               239.1525               247.4173
 Red. masses --      1.4343                 1.1696                 1.1029
 Frc consts  --      0.0471                 0.0394                 0.0398
 IR Inten    --     45.3527                71.7488                 1.5136

                     16                     17                     18
                      A                      A                      A
 Frequencies --    259.6555               274.8093               285.9119
 Red. masses --      3.0360                 5.0833                 1.4189
 Frc consts  --      0.1206                 0.2262                 0.0683
 IR Inten    --      1.7520                 2.7735                 1.3506

                     19                     20                     21
                      A                      A                      A
 Frequencies --    314.0501               320.1840               339.5481
 Red. masses --      2.1319                 2.7489                 2.6133
 Frc consts  --      0.1239                 0.1660                 0.1775
 IR Inten    --      4.8031                 5.4867                 2.8723

                     22                     23                     24
                      A                      A                      A
 Frequencies --    382.7425               393.1409               413.7659
 Red. masses --      2.3960                 2.5528                 1.9956
 Frc consts  --      0.2068                 0.2325                 0.2013
 IR Inten    --      1.6684                 3.9130                40.5737

                     25                     26                     27
                      A                      A                      A
 Frequencies --    420.7704               432.2917               455.8611
 Red. masses --      2.6516                 1.4926                 3.2651
 Frc consts  --      0.2766                 0.1643                 0.3998
 IR Inten    --      1.8060               103.2540                 0.8689

                     28                     29                     30
                      A                      A                      A
 Frequencies --    460.2084               485.1964               514.2167
 Red. masses --      3.0046                 2.1510                 3.3825
 Frc consts  --      0.3749                 0.2983                 0.5270
 IR Inten    --      9.7338                 1.6345                 9.5248

                     31                     32                     33
                      A                      A                      A
 Frequencies --    536.4276               565.3508               610.6804
 Red. masses --      3.2157                 3.0672                 4.6159
 Frc consts  --      0.5452                 0.5776                 1.0142
 IR Inten    --     15.6036                 5.5666                15.5826

                     34                     35                     36
                      A                      A                      A
 Frequencies --    623.1011               637.4044               655.8906
 Red. masses --      2.7451                 6.3721                 1.3941
 Frc consts  --      0.6279                 1.5253                 0.3533
 IR Inten    --     18.6964                 0.1146                10.0614

                     37                     38                     39
                      A                      A                      A
 Frequencies --    719.9428               756.4925               769.9803
 Red. masses --      1.9897                 1.9234                 4.4275
 Frc consts  --      0.6076                 0.6485                 1.5466
 IR Inten    --     24.5901                15.0264                19.4883

                     40                     41                     42
                      A                      A                      A
 Frequencies --    788.1049               807.7366               813.5743
 Red. masses --      3.4297                 1.2009                 2.7606
 Frc consts  --      1.2551                 0.4616                 1.0766
 IR Inten    --      5.1624                 4.2356                 1.4780

                     43                     44                     45
                      A                      A                      A
 Frequencies --    864.8067               869.3033               908.0846
 Red. masses --      1.2593                 2.8116                 2.0847
 Frc consts  --      0.5549                 1.2518                 1.0129
 IR Inten    --      1.4735                 1.5035                 0.7695

                     46                     47                     48
                      A                      A                      A
 Frequencies --    910.8568               924.1215               949.9550
 Red. masses --      1.9278                 1.7606                 1.9271
 Frc consts  --      0.9424                 0.8859                 1.0246
 IR Inten    --      3.5022                23.2947                41.2472

                     49                     50                     51
                      A                      A                      A
 Frequencies --    959.8248               971.0235               983.8212
 Red. masses --      1.8863                 1.3469                 2.4584
 Frc consts  --      1.0239                 0.7483                 1.4020
 IR Inten    --     32.0185                 0.5729                 2.7904

                     52                     53                     54
                      A                      A                      A
 Frequencies --    989.5424               994.4430               998.8513
 Red. masses --      2.1608                 1.2910                 2.4983
 Frc consts  --      1.2466                 0.7522                 1.4686
 IR Inten    --     15.8160                 1.1728                 2.7683

                     55                     56                     57
                      A                      A                      A
 Frequencies --   1022.6681              1027.6235              1040.6799
 Red. masses --      5.8582                 2.0346                 1.4784
 Frc consts  --      3.6098                 1.2659                 0.9434
 IR Inten    --      0.6752                15.9556                 4.4743

                     58                     59                     60
                      A                      A                      A
 Frequencies --   1064.1044              1099.3396              1116.8934
 Red. masses --      2.1603                 2.0390                 1.6213
 Frc consts  --      1.4413                 1.4518                 1.1916
 IR Inten    --      1.4628                 7.9182                11.2065

                     61                     62                     63
                      A                      A                      A
 Frequencies --   1132.0569              1154.8276              1185.1970
 Red. masses --      1.8972                 1.5020                 1.9832
 Frc consts  --      1.4325                 1.1802                 1.6413
 IR Inten    --    114.3179                23.9743                48.1192

                     64                     65                     66
                      A                      A                      A
 Frequencies --   1194.3762              1210.6272              1217.2834
 Red. masses --      1.0944                 1.9309                 1.6708
 Frc consts  --      0.9198                 1.6674                 1.4586
 IR Inten    --      0.1754                38.9444                 2.7568

                     67                     68                     69
                      A                      A                      A
 Frequencies --   1220.5479              1225.5064              1245.6601
 Red. masses --      2.0983                 1.6416                 1.3978
 Frc consts  --      1.8418                 1.4526                 1.2779
 IR Inten    --     19.5299                 6.4276                68.9812

                     70                     71                     72
                      A                      A                      A
 Frequencies --   1279.1916              1296.4342              1326.9299
 Red. masses --      2.2408                 1.7770                 1.5325
 Frc consts  --      2.1603                 1.7597                 1.5899
 IR Inten    --     23.7731                59.2936                47.1063

                     73                     74                     75
                      A                      A                      A
 Frequencies --   1340.5066              1366.2702              1368.9574
 Red. masses --      1.9735                 2.8128                 1.4892
 Frc consts  --      2.0894                 3.0936                 1.6443
 IR Inten    --     34.2943                 7.5953                23.9789

                     76                     77                     78
                      A                      A                      A
 Frequencies --   1376.8381              1398.6817              1407.2267
 Red. masses --      1.6136                 1.2293                 1.3363
 Frc consts  --      1.8022                 1.4169                 1.5591
 IR Inten    --      3.2112                14.7840                 4.8959

                     79                     80                     81
                      A                      A                      A
 Frequencies --   1419.4043              1426.9215              1428.5609
 Red. masses --      1.4044                 1.2752                 1.5133
 Frc consts  --      1.6671                 1.5298                 1.8196
 IR Inten    --     55.2001                 0.7091                90.2634

                     82                     83                     84
                      A                      A                      A
 Frequencies --   1430.6143              1437.4754              1445.0185
 Red. masses --      1.8835                 1.2856                 1.2913
 Frc consts  --      2.2712                 1.5652                 1.5887
 IR Inten    --     77.6939                 8.4649                 6.0036

                     85                     86                     87
                      A                      A                      A
 Frequencies --   1457.9306              1499.5882              1506.7218
 Red. masses --      1.3694                 2.1249                 1.0945
 Frc consts  --      1.7149                 2.8154                 1.4640
 IR Inten    --     32.7513                 4.1218                 2.0257

                     88                     89                     90
                      A                      A                      A
 Frequencies --   1511.6027              1512.9835              1518.4589
 Red. masses --      1.0757                 1.0537                 1.0534
 Frc consts  --      1.4481                 1.4211                 1.4310
 IR Inten    --      3.6016                 1.0473                 5.9636

                     91                     92                     93
                      A                      A                      A
 Frequencies --   1526.5093              1530.8007              1534.0621
 Red. masses --      1.0653                 1.0624                 1.0511
 Frc consts  --      1.4626                 1.4668                 1.4574
 IR Inten    --      4.1603                 1.3539                 3.4692

                     94                     95                     96
                      A                      A                      A
 Frequencies --   1541.5884              1547.0548              1557.3666
 Red. masses --      1.0604                 2.1599                 1.0910
 Frc consts  --      1.4847                 3.0457                 1.5591
 IR Inten    --      4.1069                15.9458                 7.6459

                     97                     98                     99
                      A                      A                      A
 Frequencies --   1640.8804              1658.4118              1664.0884
 Red. masses --      4.8471                 1.3527                 5.1781
 Frc consts  --      7.6893                 2.1920                 8.4484
 IR Inten    --     12.0587               151.5974                 7.2460

                    100                    101                    102
                      A                      A                      A
 Frequencies --   3003.9262              3036.5652              3037.0617
 Red. masses --      1.0715                 1.0654                 1.0433
 Frc consts  --      5.6965                 5.7879                 5.6696
 IR Inten    --     53.9626                26.7839                14.4230

                    103                    104                    105
                      A                      A                      A
 Frequencies --   3047.0967              3050.9175              3052.7222
 Red. masses --      1.0410                 1.0423                 1.0591
 Frc consts  --      5.6947                 5.7161                 5.8154
 IR Inten    --     45.1790                41.3389                23.5223

                    106                    107                    108
                      A                      A                      A
 Frequencies --   3092.0459              3096.2041              3104.7595
 Red. masses --      1.0964                 1.0977                 1.0916
 Frc consts  --      6.1759                 6.2000                 6.1995
 IR Inten    --      2.0136                 3.1167                25.1611

                    109                    110                    111
                      A                      A                      A
 Frequencies --   3107.6972              3116.4367              3120.1754
 Red. masses --      1.0991                 1.1007                 1.0973
 Frc consts  --      6.2544                 6.2985                 6.2944
 IR Inten    --     47.9774                18.4737                35.5435

                    112                    113                    114
                      A                      A                      A
 Frequencies --   3126.8028              3144.0032              3148.9220
 Red. masses --      1.1031                 1.0851                 1.0993
 Frc consts  --      6.3543                 6.3197                 6.4224
 IR Inten    --     45.8224                 4.3079                11.1557

                    115                    116                    117
                      A                      A                      A
 Frequencies --   3151.8414              3181.8874              3188.2246
 Red. masses --      1.0984                 1.0847                 1.0872
 Frc consts  --      6.4291                 6.4705                 6.5113
 IR Inten    --     16.7923                 3.6465                 1.9989

                    118                    119                    120
                      A                      A                      A
 Frequencies --   3198.5468              3203.9317              3212.5068
 Red. masses --      1.0905                 1.0939                 1.0980
 Frc consts  --      6.5730                 6.6158                 6.6764
 IR Inten    --     15.9891                29.7334                16.6064

                    121                    122                    123
                      A                      A                      A
 Frequencies --   3550.0557              3681.4749              3739.7673
 Red. masses --      1.0456                 1.1035                 1.0661
 Frc consts  --      7.7643                 8.8119                 8.7847
 IR Inten    --     57.6832                76.5841                 8.3058

 - Thermochemistry -
 -------------------
 Temperature   298.150 Kelvin.  Pressure   1.00000 Atm.
 Atom     1 has atomic number  6 and mass  12.00000

 Molecular mass:   280.16094 amu.
 Principal axes and moments of inertia in atomic units:
                           1         2         3
     Eigenvalues --  4872.973505528.368638915.64275
           X            0.99370   0.11194   0.00593
           Y           -0.11189   0.99368  -0.00924
           Z           -0.00692   0.00852   0.99994
 This molecule is an asymmetric top.
 Rotational symmetry number  1.
 Warning -- assumption of classical behavior for rotation
           may cause significant error
 Rotational temperatures (Kelvin)      0.01777     0.01567     0.00971
 Rotational constants (GHZ):           0.37036     0.32645     0.20242
 Zero-point vibrational energy     985858.5 (Joules/Mol)
                                  235.62584 (Kcal/Mol)
 Warning -- explicit consideration of  33 degrees of freedom as
           vibrations may cause significant error
 Vibrational temperatures:     44.73    48.42    74.41   100.26   111.45
          (Kelvin)            116.83   128.67   168.01   193.54   231.34
                              269.47   283.14   339.53   344.09   355.98
                              373.59   395.39   411.36   451.85   460.67
                              488.53   550.68   565.64   595.32   605.39
                              621.97   655.88   662.14   698.09   739.84
                              771.80   813.41   878.63   896.50   917.08
                              943.68  1035.84  1088.42  1107.83  1133.91
                             1162.15  1170.55  1244.26  1250.73  1306.53
                             1310.52  1329.60  1366.77  1380.97  1397.09
                             1415.50  1423.73  1430.78  1437.12  1471.39
                             1478.52  1497.31  1531.01  1581.70  1606.96
                             1628.78  1661.54  1705.23  1718.44  1741.82
                             1751.40  1756.10  1763.23  1792.23  1840.47
                             1865.28  1909.16  1928.69  1965.76  1969.62
                             1980.96  2012.39  2024.69  2042.21  2053.02
                             2055.38  2058.33  2068.21  2079.06  2097.64
                             2157.57  2167.84  2174.86  2176.85  2184.72
                             2196.31  2202.48  2207.17  2218.00  2225.87
                             2240.70  2360.86  2386.08  2394.25  4321.98
                             4368.94  4369.65  4384.09  4389.59  4392.19
                             4448.76  4454.75  4467.06  4471.28  4483.86
                             4489.24  4498.77  4523.52  4530.60  4534.80
                             4578.03  4587.14  4602.00  4609.74  4622.08
                             5107.74  5296.82  5380.69

 Zero-point correction=                           0.375494 (Hartree/Particle)
 Thermal correction to Energy=                    0.396191
 Thermal correction to Enthalpy=                  0.397135
 Thermal correction to Gibbs Free Energy=         0.326030
 Sum of electronic and zero-point Energies=          -1168.663291
 Sum of electronic and thermal Energies=             -1168.642594
 Sum of electronic and thermal Enthalpies=           -1168.641650
 Sum of electronic and thermal Free Energies=        -1168.712755

                     E (Thermal)             CV                S
                      KCal/Mol        Cal/Mol-Kelvin    Cal/Mol-Kelvin
 Total                  248.613             79.102            149.652
 Electronic               0.000              0.000              0.000
 Translational            0.889              2.981             42.789
 Rotational               0.889              2.981             33.840
 Vibrational            246.836             73.140             73.024
 Vibration     1          0.594              1.983              5.759
 Vibration     2          0.594              1.983              5.601
 Vibration     3          0.596              1.977              4.751
 Vibration     4          0.598              1.969              4.162
 Vibration     5          0.599              1.964              3.954
 Vibration     6          0.600              1.962              3.862
 Vibration     7          0.602              1.957              3.673
 Vibration     8          0.608              1.935              3.153
 Vibration     9          0.613              1.919              2.880
 Vibration    10          0.622              1.890              2.540
 Vibration    11          0.632              1.857              2.254
 Vibration    12          0.636              1.844              2.163
 Vibration    13          0.655              1.786              1.833
 Vibration    14          0.657              1.781              1.809
 Vibration    15          0.661              1.767              1.749
 Vibration    16          0.668              1.746              1.664
 Vibration    17          0.677              1.720              1.566
 Vibration    18          0.684              1.700              1.498
 Vibration    19          0.702              1.647              1.341
 Vibration    20          0.706              1.635              1.309
 Vibration    21          0.719              1.596              1.214
 Vibration    22          0.752              1.507              1.028
 Vibration    23          0.760              1.485              0.988
 Vibration    24          0.777              1.440              0.913
 Vibration    25          0.783              1.425              0.889
 Vibration    26          0.793              1.400              0.851
 Vibration    27          0.814              1.348              0.778
 Vibration    28          0.818              1.338              0.765
 Vibration    29          0.841              1.283              0.696
 Vibration    30          0.869              1.218              0.624
 Vibration    31          0.891              1.169              0.573
 Vibration    32          0.921              1.106              0.513
 Vibration    33          0.970              1.009              0.432

 Optimization completed.
    -- Stationary point found.
 Normal termination of Gaussian 16 at Mon Dec 14 19:39:24 2020.

 ----------------------------------------------------------------------
 # B3LYP/6-311++G(d,p) empiricaldispersion=gd3bj scf=xqc pop=npa geom=c
 heck
 ----------------------------------------------------------------------

 --------------------------------------
 CID_79381332_JID_9145_Energie_neutraal
 --------------------------------------
 Structure from the checkpoint file:  "JID_9145.chk"
 Charge =  0 Multiplicity = 1

 SCF Done:  E(RB3LYP) =  -1169.28892305     A.U. after   17 cycles
 Normal termination of Gaussian 16 at Mon Dec 14 19:54:28 2020.

 ----------------------------------------------------------------------
 # B3LYP/6-311++G(d,p) empiricaldispersion=gd3bj scf=xqc pop=npa geom=c
 heck
 ----------------------------------------------------------------------

 ------------------------------------
 CID_79381332_JID_9145_Energie_kation
 ------------------------------------
 Structure from the checkpoint file:  "JID_9145.chk"
 Charge =  1 Multiplicity = 2

 SCF Done:  E(UB3LYP) =  -1169.03410595     A.U. after   27 cycles
 Normal termination of Gaussian 16 at Mon Dec 14 20:28:35 2020.
 Gaussian 16:  ES64L-G16RevA.03 25-Dec-2016

 ----------------------------------------------------------------------
 # B3LYP/6-311++G(d,p) empiricaldispersion=gd3bj scf=xqc pop=npa geom=c
 heck
 ----------------------------------------------------------------------

 -----------------------------------
 CID_79381332_JID_9145_Energie_anion
 -----------------------------------
 Structure from the checkpoint file:  "JID_9145.chk"
 Charge = -1 Multiplicity = 2

                         Standard orientation:
 ---------------------------------------------------------------------
 Center     Atomic      Atomic             Coordinates (Angstroms)
 Number     Number       Type             X           Y           Z
 ---------------------------------------------------------------------
      1          6           0       -3.486454   -2.480740    0.511623
      2          6           0       -2.156754   -2.007830   -0.083616
      3          7           0       -1.451572   -1.084014    0.797726
      4          6           0       -0.046165   -1.308779    1.007579
      5          6           0        0.956343   -0.788439   -0.092859
      6          6           0        1.312828    0.684518    0.010992
      7          6           0        1.495644    1.426701   -1.164994
      8          6           0        1.864162    2.768119   -1.123493
      9          6           0        2.063914    3.404560    0.104950
     10          6           0        1.899304    2.680182    1.283505
     11          6           0        1.530739    1.331763    1.235111
     12          6           0        2.186676   -1.695244   -0.094574
     13         16           0        2.143233   -3.221140   -0.769519
     14          7           0        3.275993   -1.225509    0.536374
     15          6           0       -1.986739    0.245742    0.990161
     16          6           0       -2.280608    1.134755   -0.267102
     17          6           0       -3.745234    1.016509   -0.713049
     18          6           0       -1.950796    2.594606    0.066083
     19          8           0       -1.430797    0.670934   -1.326579
     20          1           0       -3.319512   -2.984406    1.469500
     21          1           0       -3.983409   -3.180978   -0.169883
     22          1           0       -4.175221   -1.647149    0.687393
     23          1           0       -1.505324   -2.874760   -0.232870
     24          1           0       -2.315676   -1.573573   -1.079953
     25          1           0        0.241750   -0.885907    1.977313
     26          1           0        0.103992   -2.388432    1.079522
     27          1           0        0.459940   -0.952340   -1.049109
     28          1           0        1.335969    0.936307   -2.120747
     29          1           0        1.994480    3.321203   -2.049750
     30          1           0        2.346661    4.452674    0.140196
     31          1           0        2.052604    3.160451    2.246002
     32          1           0        1.402518    0.790033    2.167524
     33          1           0        3.329915   -0.260421    0.837601
     34          1           0        4.111642   -1.794036    0.551094
     35          1           0       -2.927746    0.189792    1.558291
     36          1           0       -1.276461    0.779289    1.627724
     37          1           0       -4.427113    1.348208    0.078389
     38          1           0       -3.927288    1.644707   -1.594302
     39          1           0       -3.995665   -0.013951   -0.975589
     40          1           0       -0.887682    2.704775    0.295982
     41          1           0       -2.196178    3.254231   -0.777101
     42          1           0       -2.532323    2.938315    0.929661
     43          1           0       -1.467323    1.334865   -2.032558
 ---------------------------------------------------------------------

 SCF Done:  E(UB3LYP) =  -1169.28231102     A.U. after   33 cycles
 SCF Done:  E(UB3LYP) =  -1169.28231102     a.u. after    1 cycles

 The electronic state is 2-A.
 Alpha  occ. eigenvalues --  -88.68667 -19.02247 -14.24749 -14.20326 -10.14818
 Alpha  occ. eigenvalues --  -10.13404 -10.09911 -10.09762 -10.09361 -10.09043
 Alpha  occ. eigenvalues --  -10.08483 -10.08453 -10.08233 -10.08208 -10.08154
 Alpha  occ. eigenvalues --  -10.07975 -10.06932 -10.06748 -10.06223  -7.77436
 Alpha  occ. eigenvalues --   -5.73791  -5.73333  -5.72967  -0.92916  -0.85056
 Alpha  occ. eigenvalues --   -0.82502  -0.76774  -0.70250  -0.69021  -0.65793
 Alpha  occ. eigenvalues --   -0.65584  -0.64759  -0.61338  -0.59864  -0.58087
 Alpha  occ. eigenvalues --   -0.54873  -0.51671  -0.50544  -0.50018  -0.47791
 Alpha  occ. eigenvalues --   -0.46149  -0.44600  -0.42629  -0.40678  -0.39552
 Alpha  occ. eigenvalues --   -0.38204  -0.37002  -0.36250  -0.36093  -0.34539
 Alpha  occ. eigenvalues --   -0.34146  -0.33123  -0.32810  -0.32719  -0.31485
 Alpha  occ. eigenvalues --   -0.30908  -0.30368  -0.28910  -0.28518  -0.27994
 Alpha  occ. eigenvalues --   -0.27427  -0.26538  -0.26379  -0.26054  -0.25926
 Alpha  occ. eigenvalues --   -0.25393  -0.24847  -0.24085  -0.23522  -0.22756
 Alpha  occ. eigenvalues --   -0.18275  -0.16688  -0.15735  -0.13038  -0.11057
 Alpha  occ. eigenvalues --   -0.10121   0.03816
 Alpha virt. eigenvalues --    0.05366   0.06074   0.06509   0.07065   0.07460
 Alpha virt. eigenvalues --    0.07658   0.07715   0.08426   0.08606   0.09452
 Alpha virt. eigenvalues --    0.09762   0.10266   0.10407   0.11050   0.11664

  Beta  occ. eigenvalues --  -88.68664 -19.02225 -14.24690 -14.20324 -10.14574
  Beta  occ. eigenvalues --  -10.13403 -10.09880 -10.09748 -10.09358 -10.09029
  Beta  occ. eigenvalues --  -10.08471 -10.08469 -10.08204 -10.08181 -10.08128
  Beta  occ. eigenvalues --  -10.07972 -10.06924 -10.06727 -10.06196  -7.77434
  Beta  occ. eigenvalues --   -5.73798  -5.73316  -5.72966  -0.92865  -0.84835
  Beta  occ. eigenvalues --   -0.82481  -0.76727  -0.70168  -0.68983  -0.65766
  Beta  occ. eigenvalues --   -0.65528  -0.64603  -0.61248  -0.59819  -0.58046
  Beta  occ. eigenvalues --   -0.54827  -0.51613  -0.50500  -0.49897  -0.47691
  Beta  occ. eigenvalues --   -0.46107  -0.44546  -0.42568  -0.40644  -0.39503
  Beta  occ. eigenvalues --   -0.38175  -0.36934  -0.36216  -0.36041  -0.34479
  Beta  occ. eigenvalues --   -0.34105  -0.33062  -0.32767  -0.32582  -0.31436
  Beta  occ. eigenvalues --   -0.30882  -0.30314  -0.28842  -0.28338  -0.27835
  Beta  occ. eigenvalues --   -0.27355  -0.26491  -0.26290  -0.26022  -0.25679
  Beta  occ. eigenvalues --   -0.25346  -0.24806  -0.24044  -0.23442  -0.22652
  Beta  occ. eigenvalues --   -0.18241  -0.16571  -0.15662  -0.12712  -0.11040
  Beta  occ. eigenvalues --   -0.10100
  Beta virt. eigenvalues --    0.05908   0.06542   0.06872   0.06966   0.07485
  Beta virt. eigenvalues --    0.07728   0.07956   0.07992   0.08680   0.08929
  Beta virt. eigenvalues --    0.09657   0.09935   0.10553   0.10612   0.11159

 Mulliken charges and spin densities:
               1          2
     1  C   -0.259197  -0.303740
     2  C   -0.343648   0.253464
     3  N    0.217820   0.054600
     4  C   -0.763308  -0.404985
     5  C    1.226528  -1.028540
     6  C    1.359160  -0.065848
     7  C   -0.643144   0.298296
     8  C   -0.032543  -0.470708
     9  C    1.045171  -1.344585
    10  C    0.169997  -0.550088
    11  C   -1.879708   1.518040
    12  C    0.115410   0.080486
    13  S   -0.724449   0.000986
    14  N   -0.310811   0.056206
    15  C    0.228925  -0.711123
    16  C   -1.065865   1.280287
    17  C    0.205613  -0.668125
    18  C    0.311497  -0.925457
    19  O   -0.064400  -0.018186
    20  H    0.118359   0.019107
    21  H    0.054024   0.076217
    22  H    0.076550   0.061148
    23  H    0.110565   0.029332
    24  H    0.172046  -0.019574
    25  H    0.222189  -0.050654
    26  H    0.146887   0.042913
    27  H    0.199811   0.042465
    28  H    0.076568   0.103147
    29  H   -0.504614   0.691653
    30  H   -0.301124   0.469302
    31  H   -0.529878   0.715038
    32  H   -0.255906   0.406054
    33  H    0.312374  -0.027323
    34  H    0.248464   0.038047
    35  H   -0.009726   0.202121
    36  H    0.086238   0.042570
    37  H    0.065887   0.075368
    38  H   -0.191911   0.336283
    39  H    0.007692   0.136454
    40  H    0.542856  -0.387349
    41  H   -0.389599   0.521925
    42  H   -0.089102   0.238150
    43  H    0.038302   0.186628
 Sum of Mulliken charges =  -1.00000   1.00000

 Dipole moment (field-independent basis, Debye):
    X=             -0.9182    Y=             -2.6975    Z=              1.9862  Tot=              3.4734
 Quadrupole moment (field-independent basis, Debye-Ang):
   XX=           -171.9026   YY=           -205.1837   ZZ=           -161.8942
   XY=              4.8412   XZ=             -0.0612   YZ=             -1.9658

 Summary of Natural Population Analysis:

                                       Natural Population
                Natural  -----------------------------------------------
    Atom  No    Charge         Core      Valence    Rydberg      Total
 -----------------------------------------------------------------------
      C    1   -0.28949      0.99966     2.28570    0.00413     3.28949
      C    2   -0.08674      0.99962     2.07793    0.00919     3.08674
      N    3   -0.28043      0.99970     2.76701    0.01372     3.78043
      C    4   -0.06054      0.99958     2.04887    0.01210     3.06054
      C    5   -0.16394      0.99948     2.15154    0.01292     3.16394
      C    6   -0.01191      0.99949     1.99833    0.01409     3.01191
      C    7   -0.09007      0.99949     2.08066    0.00991     3.09007
      C    8   -0.09601      0.99955     2.08599    0.01047     3.09601
      C    9   -0.10349      0.99955     2.09373    0.01021     3.10349
      C   10   -0.10084      0.99955     2.09053    0.01076     3.10084
      C   11   -0.11966      0.99950     2.10986    0.01031     3.11966
      C   12    0.11206      0.99962     1.86798    0.02034     2.88794
      S   13   -0.13357      4.99953     3.12008    0.01397     8.13357
      N   14   -0.37346      0.99965     2.86390    0.00991     3.87346
      C   15   -0.08354      0.99956     2.07107    0.01292     3.08354
      C   16    0.11603      0.99955     1.86942    0.01500     2.88397
      C   17   -0.29635      0.99961     2.28935    0.00738     3.29635
      C   18   -0.29791      0.99961     2.29109    0.00721     3.29791
      O   19   -0.37879      0.99989     3.37018    0.00872     4.37879
      H   20    0.09648      0.00000     0.40227    0.00126     0.40352
      H   21    0.09510      0.00000     0.40394    0.00097     0.40490
      H   22    0.09528      0.00000     0.40361    0.00111     0.40472
      H   23    0.09978      0.00000     0.39908    0.00114     0.40022
      H   24    0.09281      0.00000     0.40564    0.00155     0.40719
      H   25    0.08866      0.00000     0.41017    0.00117     0.41134
      H   26    0.10472      0.00000     0.39414    0.00114     0.39528
      H   27    0.12786      0.00000     0.37035    0.00179     0.37214
      H   28    0.10327      0.00000     0.39543    0.00131     0.39673
      H   29    0.10278      0.00000     0.39600    0.00122     0.39722
      H   30    0.10264      0.00000     0.39613    0.00123     0.39736
      H   31    0.10267      0.00000     0.39598    0.00135     0.39733
      H   32    0.10172      0.00000     0.39646    0.00182     0.39828
      H   33    0.19961      0.00000     0.29827    0.00212     0.30039
      H   34    0.19480      0.00000     0.30304    0.00216     0.30520
      H   35    0.08942      0.00000     0.40933    0.00125     0.41058
      H   36    0.10179      0.00000     0.39684    0.00138     0.39821
      H   37    0.09832      0.00000     0.40077    0.00090     0.40168
      H   38    0.09961      0.00000     0.39932    0.00108     0.40039
      H   39    0.10167      0.00000     0.39725    0.00108     0.39833
      H   40    0.10946      0.00000     0.38836    0.00219     0.39054
      H   41    0.09936      0.00000     0.39909    0.00156     0.40064
      H   42    0.10008      0.00000     0.39891    0.00102     0.39992
      H   43    0.23077      0.00000     0.26573    0.00349     0.26923
 =======================================================================
   * Total *    0.00000     22.99220    52.75929    0.24851    76.00000

 Normal termination of Gaussian 16 at Mon Dec 14 21:11:18 2020.
