 Gaussian 16, Revision A.03,

 -----------------------------------------------------------
 # opt freq B3LYP/6-31G(d) empiricaldispersion=gd3bj scf=xqc
 -----------------------------------------------------------

 -------------------------------
 CID_151814821_JID_5342_neutraal
 -------------------------------
 Symbolic Z-matrix:
 Charge =  0 Multiplicity = 1

 SCF Done:  E(RB3LYP) =  -1125.29236821     A.U. after   17 cycles
 SCF Done:  E(RB3LYP) =  -1125.30482061     A.U. after   15 cycles
 SCF Done:  E(RB3LYP) =  -1125.30671334     A.U. after   14 cycles
 SCF Done:  E(RB3LYP) =  -1125.30721105     A.U. after   15 cycles
 SCF Done:  E(RB3LYP) =  -1125.30755615     A.U. after   14 cycles
 SCF Done:  E(RB3LYP) =  -1125.30785139     A.U. after   15 cycles
 SCF Done:  E(RB3LYP) =  -1125.30828817     A.U. after   15 cycles
 SCF Done:  E(RB3LYP) =  -1125.30866994     A.U. after   15 cycles
 SCF Done:  E(RB3LYP) =  -1125.30875899     A.U. after   15 cycles
 SCF Done:  E(RB3LYP) =  -1125.30893018     A.U. after   15 cycles
 SCF Done:  E(RB3LYP) =  -1125.31276095     A.U. after   15 cycles
 SCF Done:  E(RB3LYP) =  -1125.31285800     A.U. after   13 cycles
 SCF Done:  E(RB3LYP) =  -1125.31287332     A.U. after   12 cycles
 SCF Done:  E(RB3LYP) =  -1125.31288074     A.U. after   11 cycles
 SCF Done:  E(RB3LYP) =  -1125.31288199     A.U. after    9 cycles
 SCF Done:  E(RB3LYP) =  -1125.31288226     A.U. after    8 cycles
 Optimization completed.
    -- Stationary point found.
 Normal termination of Gaussian 16 at Thu Dec 10 15:55:56 2020.

 --------------------------------------------------------------------
 #N Geom=AllCheck Guess=TCheck SCRF=Check GenChk RB3LYP/6-31G(d) Freq
 --------------------------------------------------------------------

 Structure from the checkpoint file:  "JID_5342.chk"
 -------------------------------
 CID_151814821_JID_5342_neutraal
 -------------------------------
 Charge =  0 Multiplicity = 1

 SCF Done:  E(RB3LYP) =  -1125.31288226     A.U. after    1 cycles

  Exact polarizability: 148.298 -13.826 139.077  -2.423   4.755  69.367
 Approx polarizability: 253.005 -32.153 228.338 -13.599  14.964 124.497

                      1                      2                      3
                      A                      A                      A
 Frequencies --     36.7626                45.2386                51.9053
 Red. masses --     10.3800                10.3553                 7.4084
 Frc consts  --      0.0083                 0.0125                 0.0118
 IR Inten    --      0.2278                 0.0376                 4.0027

                      4                      5                      6
                      A                      A                      A
 Frequencies --     67.3492                96.2686               123.6803
 Red. masses --     11.9589                11.0462                 8.5082
 Frc consts  --      0.0320                 0.0603                 0.0767
 IR Inten    --      2.6216                 2.3482                 4.0548

                      7                      8                      9
                      A                      A                      A
 Frequencies --    142.8935               164.4040               229.9248
 Red. masses --      8.6968                 6.9618                 3.5327
 Frc consts  --      0.1046                 0.1109                 0.1100
 IR Inten    --      0.2871                 2.8329                 4.8228

                     10                     11                     12
                      A                      A                      A
 Frequencies --    276.1456               295.6667               341.2722
 Red. masses --      8.9786                 7.7435                 9.7428
 Frc consts  --      0.4034                 0.3988                 0.6686
 IR Inten    --     10.1187                 6.0425                 4.1127

                     13                     14                     15
                      A                      A                      A
 Frequencies --    377.6117               401.5597               457.4483
 Red. masses --      5.4679                 6.0076                 7.7132
 Frc consts  --      0.4594                 0.5708                 0.9510
 IR Inten    --      2.9481                 2.9622                 2.4374

                     16                     17                     18
                      A                      A                      A
 Frequencies --    485.8691               508.6824               530.7646
 Red. masses --      5.4907                 3.7083                10.4665
 Frc consts  --      0.7637                 0.5653                 1.7372
 IR Inten    --      8.6610                31.5228                16.7591

                     19                     20                     21
                      A                      A                      A
 Frequencies --    596.6686               631.3244               648.9947
 Red. masses --      7.6112                 1.6905                 6.3363
 Frc consts  --      1.5965                 0.3970                 1.5724
 IR Inten    --     10.1712                73.6573                 6.8785

                     22                     23                     24
                      A                      A                      A
 Frequencies --    700.1623               741.6336               776.2162
 Red. masses --      4.8019                 8.8505                 7.6170
 Frc consts  --      1.3870                 2.8681                 2.7040
 IR Inten    --     86.9736                40.7888                 8.5219

                     25                     26                     27
                      A                      A                      A
 Frequencies --    794.0903               803.8987               861.8633
 Red. masses --      8.9137                 8.7989                11.9561
 Frc consts  --      3.3117                 3.3503                 5.2326
 IR Inten    --      8.6674                 1.7364                31.9801

                     28                     29                     30
                      A                      A                      A
 Frequencies --    876.7541               924.8936               959.5532
 Red. masses --      1.1968                 2.4801                 4.1595
 Frc consts  --      0.5420                 1.2500                 2.2565
 IR Inten    --      9.7189                14.2677               139.7834

                     31                     32                     33
                      A                      A                      A
 Frequencies --   1000.3315              1035.4265              1082.4029
 Red. masses --      1.4305                 9.6393                 3.8278
 Frc consts  --      0.8434                 6.0888                 2.6422
 IR Inten    --      0.0258                 1.1796                25.6076

                     34                     35                     36
                      A                      A                      A
 Frequencies --   1130.2725              1134.8587              1152.5599
 Red. masses --      4.6510                 3.4058                14.0234
 Frc consts  --      3.5008                 2.5843                10.9757
 IR Inten    --     23.7090                18.4247                26.7281

                     37                     38                     39
                      A                      A                      A
 Frequencies --   1165.4903              1233.0672              1261.6944
 Red. masses --      2.4637                 2.5155                 1.6769
 Frc consts  --      1.9718                 2.2535                 1.5728
 IR Inten    --     43.7019               100.4847               142.6330

                     40                     41                     42
                      A                      A                      A
 Frequencies --   1329.7242              1363.8252              1384.3029
 Red. masses --      1.4674                 2.2744                 1.8792
 Frc consts  --      1.5287                 2.4925                 2.1217
 IR Inten    --    145.4121                81.7439               191.1429

                     43                     44                     45
                      A                      A                      A
 Frequencies --   1442.5573              1486.4710              1506.4212
 Red. masses --      2.1852                 1.2742                 1.2458
 Frc consts  --      2.6793                 1.6589                 1.6657
 IR Inten    --     47.9425                33.8176                14.4668

                     46                     47                     48
                      A                      A                      A
 Frequencies --   1567.3930              1592.4574              1861.5691
 Red. masses --      5.8327                 5.1035                10.2889
 Frc consts  --      8.4426                 7.6252                21.0077
 IR Inten    --     73.6166                29.2880               306.5553

                     49                     50                     51
                      A                      A                      A
 Frequencies --   2208.8960              3101.2766              3201.6188
 Red. masses --     13.9885                 1.0684                 1.0909
 Frc consts  --     40.2136                 6.0541                 6.5882
 IR Inten    --    325.6888                16.5873                 3.7096

                     52                     53                     54
                      A                      A                      A
 Frequencies --   3205.8026              3226.2124              3599.8998
 Red. masses --      1.0986                 1.0959                 1.0759
 Frc consts  --      6.6520                 6.7204                 8.2151
 IR Inten    --      0.7772                 9.8045                41.9365

 - Thermochemistry -
 -------------------
 Temperature   298.150 Kelvin.  Pressure   1.00000 Atm.
 Atom     1 has atomic number  6 and mass  12.00000

 Molecular mass:   227.02254 amu.
 Principal axes and moments of inertia in atomic units:
                           1         2         3
     Eigenvalues --  2014.393884677.236196118.53044
           X            0.99995   0.00952  -0.00021
           Y           -0.00952   0.99995   0.00329
           Z            0.00024  -0.00329   0.99999
 This molecule is an asymmetric top.
 Rotational symmetry number  1.
 Warning -- assumption of classical behavior for rotation
           may cause significant error
 Rotational temperatures (Kelvin)      0.04300     0.01852     0.01416
 Rotational constants (GHZ):           0.89592     0.38586     0.29496
 Zero-point vibrational energy     336294.4 (Joules/Mol)
                                   80.37629 (Kcal/Mol)
 Warning -- explicit consideration of  19 degrees of freedom as
           vibrations may cause significant error
 Vibrational temperatures:     52.89    65.09    74.68    96.90   138.51
          (Kelvin)            177.95   205.59   236.54   330.81   397.31
                              425.40   491.01   543.30   577.75   658.17
                              699.06   731.88   763.65   858.47   908.33
                              933.76  1007.38  1067.05  1116.80  1142.52
                             1156.63  1240.03  1261.45  1330.72  1380.58
                             1439.25  1489.75  1557.34  1626.21  1632.81
                             1658.28  1676.88  1774.11  1815.30  1913.18
                             1962.24  1991.70  2075.52  2138.70  2167.40
                             2255.13  2291.19  2678.38  3178.11  4462.05
                             4606.42  4612.43  4641.80  5179.45

 Zero-point correction=                           0.128088 (Hartree/Particle)
 Thermal correction to Energy=                    0.141643
 Thermal correction to Enthalpy=                  0.142588
 Thermal correction to Gibbs Free Energy=         0.085457
 Sum of electronic and zero-point Energies=          -1125.184794
 Sum of electronic and thermal Energies=             -1125.171239
 Sum of electronic and thermal Enthalpies=           -1125.170295
 Sum of electronic and thermal Free Energies=        -1125.227425

                     E (Thermal)             CV                S
                      KCal/Mol        Cal/Mol-Kelvin    Cal/Mol-Kelvin
 Total                   88.883             47.931            120.241
 Electronic               0.000              0.000              0.000
 Translational            0.889              2.981             42.162
 Rotational               0.889              2.981             32.422
 Vibrational             87.105             41.970             45.657
 Vibration     1          0.594              1.982              5.426
 Vibration     2          0.595              1.979              5.015
 Vibration     3          0.596              1.977              4.743
 Vibration     4          0.598              1.970              4.229
 Vibration     5          0.603              1.952              3.528
 Vibration     6          0.610              1.929              3.042
 Vibration     7          0.616              1.910              2.765
 Vibration     8          0.623              1.886              2.499
 Vibration     9          0.652              1.795              1.880
 Vibration    10          0.678              1.718              1.557
 Vibration    11          0.690              1.682              1.441
 Vibration    12          0.721              1.593              1.206
 Vibration    13          0.748              1.518              1.049
 Vibration    14          0.767              1.467              0.957
 Vibration    15          0.816              1.344              0.774
 Vibration    16          0.842              1.281              0.694
 Vibration    17          0.864              1.231              0.637
 Vibration    18          0.886              1.182              0.585
 Vibration    19          0.955              1.039              0.455

 Optimization completed.
    -- Stationary point found.
 Normal termination of Gaussian 16 at Thu Dec 10 16:02:15 2020.

 ----------------------------------------------------------------------
 # B3LYP/6-311++G(d,p) empiricaldispersion=gd3bj scf=xqc pop=npa geom=c
 heck
 ----------------------------------------------------------------------

 ---------------------------------------
 CID_151814821_JID_5342_Energie_neutraal
 ---------------------------------------
 Structure from the checkpoint file:  "JID_5342.chk"
 Charge =  0 Multiplicity = 1

 SCF Done:  E(RB3LYP) =  -1125.54384137     A.U. after   16 cycles
 Normal termination of Gaussian 16 at Thu Dec 10 16:04:26 2020.

 ----------------------------------------------------------------------
 # B3LYP/6-311++G(d,p) empiricaldispersion=gd3bj scf=xqc pop=npa geom=c
 heck
 ----------------------------------------------------------------------

 -------------------------------------
 CID_151814821_JID_5342_Energie_kation
 -------------------------------------
 Structure from the checkpoint file:  "JID_5342.chk"
 Charge =  1 Multiplicity = 2

 SCF Done:  E(UB3LYP) =  -1125.21317613     A.U. after   31 cycles
 Normal termination of Gaussian 16 at Thu Dec 10 16:09:46 2020.
 Gaussian 16:  ES64L-G16RevA.03 25-Dec-2016

 ----------------------------------------------------------------------
 # B3LYP/6-311++G(d,p) empiricaldispersion=gd3bj scf=xqc pop=npa geom=c
 heck
 ----------------------------------------------------------------------

 ------------------------------------
 CID_151814821_JID_5342_Energie_anion
 ------------------------------------
 Structure from the checkpoint file:  "JID_5342.chk"
 Charge = -1 Multiplicity = 2

                         Standard orientation:
 ---------------------------------------------------------------------
 Center     Atomic      Atomic             Coordinates (Angstroms)
 Number     Number       Type             X           Y           Z
 ---------------------------------------------------------------------
      1          6           0        0.860554    1.920401   -0.217769
      2          6           0        2.056939    2.569620    0.095001
      3          7           0        3.186430    1.885342    0.304670
      4          7           0        3.157407    0.559940    0.217190
      5          6           0        1.987301   -0.022069   -0.090535
      6          7           0        0.823380    0.596176   -0.319851
      7         16           0        2.065391   -1.791357   -0.178330
      8          6           0        0.299125   -2.195202   -0.538957
      9          7           0       -0.606119   -1.902104    0.548218
     10          6           0       -1.459144   -0.833946    0.576075
     11          8           0       -1.865434   -0.268614    1.563130
     12          8           0       -1.915406   -0.560353   -0.709771
     13          7           0       -2.383415    0.790512   -0.837899
     14          7           0       -3.524865    0.877889   -0.302117
     15          7           0       -4.553582    1.144055    0.101753
     16          1           0       -0.072201    2.452964   -0.386383
     17          1           0        2.127015    3.648853    0.184300
     18          1           0       -0.030414   -1.658709   -1.425429
     19          1           0        0.320126   -3.267979   -0.748999
     20          1           0       -0.307359   -2.177185    1.476282
 ---------------------------------------------------------------------

 SCF Done:  E(UB3LYP) =  -1125.58417504     A.U. after   28 cycles

 The electronic state is 2-A.
 Alpha  occ. eigenvalues --  -88.74901 -19.06383 -18.99232 -14.32753 -14.26683
 Alpha  occ. eigenvalues --  -14.24616 -14.24235 -14.20302 -14.20121 -14.18123
 Alpha  occ. eigenvalues --  -10.21119 -10.14078 -10.13937 -10.08168 -10.07811
 Alpha  occ. eigenvalues --   -7.83575  -5.79952  -5.79551  -5.79001  -1.03205
 Alpha  occ. eigenvalues --   -0.97960  -0.92080  -0.90125  -0.84354  -0.79923
 Alpha  occ. eigenvalues --   -0.79223  -0.71576  -0.66227  -0.58170  -0.55795
 Alpha  occ. eigenvalues --   -0.54183  -0.50704  -0.44683  -0.41320  -0.40926
 Alpha  occ. eigenvalues --   -0.39523  -0.38705  -0.37360  -0.36031  -0.34538
 Alpha  occ. eigenvalues --   -0.34046  -0.32798  -0.32198  -0.31734  -0.30221
 Alpha  occ. eigenvalues --   -0.29006  -0.25210  -0.24035  -0.21873  -0.19802
 Alpha  occ. eigenvalues --   -0.19289  -0.19113  -0.18249  -0.17439  -0.16271
 Alpha  occ. eigenvalues --   -0.12853  -0.12541  -0.09814   0.01897
 Alpha virt. eigenvalues --    0.03898   0.07763   0.09093   0.09627   0.10672
 Alpha virt. eigenvalues --    0.11669   0.12256   0.12487   0.12987   0.13278
 Alpha virt. eigenvalues --    0.14508   0.15177   0.15609   0.16287   0.16478

  Beta  occ. eigenvalues --  -88.74904 -19.06193 -18.99234 -14.32483 -14.26678
  Beta  occ. eigenvalues --  -14.24221 -14.24099 -14.20074 -14.19574 -14.17754
  Beta  occ. eigenvalues --  -10.21120 -10.14079 -10.13995 -10.07962 -10.07881
  Beta  occ. eigenvalues --   -7.83578  -5.79953  -5.79553  -5.79009  -1.02771
  Beta  occ. eigenvalues --   -0.97532  -0.91882  -0.89508  -0.84284  -0.79224
  Beta  occ. eigenvalues --   -0.78782  -0.71265  -0.66066  -0.58103  -0.55047
  Beta  occ. eigenvalues --   -0.53846  -0.50576  -0.44554  -0.41240  -0.40629
  Beta  occ. eigenvalues --   -0.39328  -0.37366  -0.37221  -0.35831  -0.34224
  Beta  occ. eigenvalues --   -0.33943  -0.32009  -0.31568  -0.30975  -0.29952
  Beta  occ. eigenvalues --   -0.28773  -0.24778  -0.23445  -0.20153  -0.19250
  Beta  occ. eigenvalues --   -0.18926  -0.18262  -0.17795  -0.17157  -0.16190
  Beta  occ. eigenvalues --   -0.12585  -0.12155  -0.09291
  Beta virt. eigenvalues --    0.07450   0.08102   0.08135   0.09298   0.09597
  Beta virt. eigenvalues --    0.10727   0.11672   0.12263   0.12474   0.12965
  Beta virt. eigenvalues --    0.13566   0.14576   0.15185   0.15616   0.16295

 Mulliken charges and spin densities:
               1          2
     1  C    0.225520   0.194394
     2  C   -0.450111  -0.058831
     3  N   -0.173077   0.241528
     4  N    0.005221   0.103220
     5  C   -0.372401  -0.041461
     6  N    0.023770   0.163246
     7  S   -0.066543  -0.008625
     8  C   -0.505115  -0.002402
     9  N   -0.138949  -0.000010
    10  C   -0.061908  -0.002627
    11  O   -0.285099  -0.001160
    12  O    0.053002   0.011015
    13  N   -0.300727  -0.016054
    14  N    0.369895   0.112195
    15  N   -0.368352   0.284849
    16  H    0.189657  -0.001106
    17  H    0.149630   0.000364
    18  H    0.235924   0.005937
    19  H    0.202330   0.001208
    20  H    0.267332   0.014319
 Sum of Mulliken charges =  -1.00000   1.00000

 Dipole moment (field-independent basis, Debye):
    X=             -0.4298    Y=             -4.0697    Z=             -1.3298  Tot=              4.3030
 Quadrupole moment (field-independent basis, Debye-Ang):
   XX=           -162.6196   YY=            -97.6133   ZZ=           -102.2555
   XY=             -0.1340   XZ=              0.9082   YZ=             -1.5353

 Summary of Natural Population Analysis:

                                       Natural Population
                Natural  -----------------------------------------------
    Atom  No    Charge         Core      Valence    Rydberg      Total
 -----------------------------------------------------------------------
      C    1    0.06867      0.99960     1.91828    0.01345     2.93133
      C    2   -0.04350      0.99962     2.02987    0.01401     3.04350
      N    3   -0.03943      0.99974     2.52172    0.01797     3.53943
      N    4   -0.13133      0.99967     2.61525    0.01641     3.63133
      C    5    0.11218      0.99959     1.86651    0.02173     2.88782
      N    6   -0.21174      0.99965     2.69610    0.01599     3.71174
      S    7    0.10749      4.99954     2.87278    0.02019     7.89251
      C    8   -0.15291      0.99960     2.14054    0.01277     3.15291
      N    9   -0.33488      0.99965     2.82166    0.01357     3.83488
      C   10    0.46739      0.99971     1.50537    0.02753     2.53261
      O   11   -0.31718      0.99986     3.31162    0.00570     4.31718
      O   12   -0.20824      0.99987     3.19935    0.00902     4.20824
      N   13   -0.07409      0.99973     2.55690    0.01746     3.57409
      N   14    0.11718      0.99971     2.36745    0.01566     3.38282
      N   15    0.04413      0.99982     2.44264    0.01341     3.45587
      H   16    0.09422      0.00000     0.40447    0.00132     0.40578
      H   17    0.08922      0.00000     0.40946    0.00132     0.41078
      H   18    0.12249      0.00000     0.37531    0.00220     0.37751
      H   19    0.09575      0.00000     0.40319    0.00105     0.40425
      H   20    0.19457      0.00000     0.30351    0.00192     0.30543
 =======================================================================
   * Total *    0.00000     18.99536    38.76196    0.24268    58.00000

 Normal termination of Gaussian 16 at Thu Dec 10 16:14:47 2020.
