 Gaussian 16, Revision A.03,

 -----------------------------------------------------------
 # opt freq B3LYP/6-31G(d) empiricaldispersion=gd3bj scf=xqc
 -----------------------------------------------------------

 -------------------------------
 CID_142111258_JID_7738_neutraal
 -------------------------------
 Symbolic Z-matrix:
 Charge =  0 Multiplicity = 1

 SCF Done:  E(RB3LYP) =  -713.048743003     A.U. after   13 cycles
 SCF Done:  E(RB3LYP) =  -713.051946379     A.U. after   11 cycles
 SCF Done:  E(RB3LYP) =  -713.052859157     A.U. after   11 cycles
 SCF Done:  E(RB3LYP) =  -713.053667589     A.U. after   12 cycles
 SCF Done:  E(RB3LYP) =  -713.053926415     A.U. after   11 cycles
 SCF Done:  E(RB3LYP) =  -713.054180427     A.U. after   11 cycles
 SCF Done:  E(RB3LYP) =  -713.054341941     A.U. after   11 cycles
 SCF Done:  E(RB3LYP) =  -713.054450032     A.U. after   11 cycles
 SCF Done:  E(RB3LYP) =  -713.054543716     A.U. after   10 cycles
 SCF Done:  E(RB3LYP) =  -713.054675020     A.U. after   11 cycles
 SCF Done:  E(RB3LYP) =  -713.055846685     A.U. after    7 cycles
 SCF Done:  E(RB3LYP) =  -713.055846782     A.U. after    7 cycles
 SCF Done:  E(RB3LYP) =  -713.055846873     A.U. after    7 cycles
 SCF Done:  E(RB3LYP) =  -713.055846943     A.U. after    7 cycles
 SCF Done:  E(RB3LYP) =  -713.055846978     A.U. after    7 cycles
 Optimization completed.
    -- Stationary point found.
 Normal termination of Gaussian 16 at Mon Dec 14 19:47:59 2020.

 --------------------------------------------------------------------
 #N Geom=AllCheck Guess=TCheck SCRF=Check GenChk RB3LYP/6-31G(d) Freq
 --------------------------------------------------------------------

 Structure from the checkpoint file:  "JID_7738.chk"
 -------------------------------
 CID_142111258_JID_7738_neutraal
 -------------------------------
 Charge =  0 Multiplicity = 1

 SCF Done:  E(RB3LYP) =  -713.055846978     A.U. after    1 cycles

  Exact polarizability: 179.209  27.257 126.681  -4.489  15.543 154.624
 Approx polarizability: 260.867  47.049 187.341  -7.664  31.645 282.066

                      1                      2                      3
                      A                      A                      A
 Frequencies --     11.7644                30.4262                39.7319
 Red. masses --      3.7646                 3.7252                 3.5667
 Frc consts  --      0.0003                 0.0020                 0.0033
 IR Inten    --      0.1021                 0.2219                 0.8477

                      4                      5                      6
                      A                      A                      A
 Frequencies --     48.5123                57.5681                64.4409
 Red. masses --      4.2312                 3.3833                 3.7634
 Frc consts  --      0.0059                 0.0066                 0.0092
 IR Inten    --      0.2963                 0.3580                 0.2151

                      7                      8                      9
                      A                      A                      A
 Frequencies --     76.7221                91.4106               106.2620
 Red. masses --      3.6554                 4.3764                 3.0090
 Frc consts  --      0.0127                 0.0215                 0.0200
 IR Inten    --      1.2338                 0.6166                 3.2542

                     10                     11                     12
                      A                      A                      A
 Frequencies --    141.9681               157.3707               212.5595
 Red. masses --      3.2050                 1.5027                 1.9521
 Frc consts  --      0.0381                 0.0219                 0.0520
 IR Inten    --      3.2935                 1.3743                 1.9322

                     13                     14                     15
                      A                      A                      A
 Frequencies --    253.4214               281.8896               334.5138
 Red. masses --      1.7697                 2.4110                 2.4260
 Frc consts  --      0.0670                 0.1129                 0.1599
 IR Inten    --     16.3010                39.5191                10.1238

                     16                     17                     18
                      A                      A                      A
 Frequencies --    342.5277               408.8396               413.6569
 Red. masses --      2.9900                 2.3929                 2.9556
 Frc consts  --      0.2067                 0.2357                 0.2980
 IR Inten    --      5.0284                 4.8930                 0.0747

                     19                     20                     21
                      A                      A                      A
 Frequencies --    416.6389               420.7698               466.0196
 Red. masses --      2.9865                 3.0855                 3.1014
 Frc consts  --      0.3054                 0.3219                 0.3968
 IR Inten    --      0.2352                 0.0625                10.9921

                     22                     23                     24
                      A                      A                      A
 Frequencies --    536.7840               582.7098               623.4253
 Red. masses --      3.2755                 4.3793                 6.0779
 Frc consts  --      0.5561                 0.8761                 1.3918
 IR Inten    --      9.4876                 3.4885                 0.1211

                     25                     26                     27
                      A                      A                      A
 Frequencies --    623.8737               654.8705               696.7511
 Red. masses --      6.0797                 6.9752                 1.0859
 Frc consts  --      1.3942                 1.7625                 0.3106
 IR Inten    --      0.0922                 0.0950                86.7588

                     28                     29                     30
                      A                      A                      A
 Frequencies --    716.7869               725.6163               746.9931
 Red. masses --      3.9716                 3.6446                 2.9338
 Frc consts  --      1.2022                 1.1306                 0.9645
 IR Inten    --      0.1089                 1.9760                12.8361

                     31                     32                     33
                      A                      A                      A
 Frequencies --    826.3904               845.4660               864.4560
 Red. masses --      1.4210                 4.0636                 1.2512
 Frc consts  --      0.5718                 1.7114                 0.5509
 IR Inten    --     44.8223                 1.9352                 0.3600

                     34                     35                     36
                      A                      A                      A
 Frequencies --    868.8351               876.4349               881.8010
 Red. masses --      1.2479                 1.2585                 1.3269
 Frc consts  --      0.5550                 0.5696                 0.6079
 IR Inten    --      2.0950                43.1407                59.1500

                     37                     38                     39
                      A                      A                      A
 Frequencies --    950.3991               960.5181               968.1080
 Red. masses --      1.6899                 2.3121                 1.3561
 Frc consts  --      0.8994                 1.2568                 0.7489
 IR Inten    --      9.3391                22.0169                 0.3103

                     40                     41                     42
                      A                      A                      A
 Frequencies --    975.4484               994.3290              1011.8538
 Red. masses --      1.3459                 1.3373                 1.2692
 Frc consts  --      0.7545                 0.7790                 0.7656
 IR Inten    --      0.6816                 6.6846                 0.6378

                     43                     44                     45
                      A                      A                      A
 Frequencies --   1015.1790              1023.6450              1025.1161
 Red. masses --      1.6995                 5.4057                 5.8749
 Frc consts  --      1.0320                 3.3374                 3.6375
 IR Inten    --     20.8184                 0.0910                 0.0282

                     46                     47                     48
                      A                      A                      A
 Frequencies --   1037.2734              1047.0650              1070.2685
 Red. masses --      2.2291                 2.2337                 1.6966
 Frc consts  --      1.4131                 1.4429                 1.1450
 IR Inten    --      4.7840                 2.4514                 3.4629

                     49                     50                     51
                      A                      A                      A
 Frequencies --   1070.8280              1073.6824              1140.6591
 Red. masses --      1.7050                 2.6367                 1.6081
 Frc consts  --      1.1519                 1.7908                 1.2327
 IR Inten    --      2.6975                 4.6884                31.1902

                     52                     53                     54
                      A                      A                      A
 Frequencies --   1149.7163              1186.5440              1187.9031
 Red. masses --      2.5759                 1.1494                 1.2019
 Frc consts  --      2.0062                 0.9534                 0.9993
 IR Inten    --     75.9712                 3.5538                 2.7137

                     55                     56                     57
                      A                      A                      A
 Frequencies --   1190.2458              1207.3825              1207.6376
 Red. masses --      1.2757                 1.1435                 1.1748
 Frc consts  --      1.0648                 0.9821                 1.0095
 IR Inten    --      4.7717                 0.6455                 0.5992

                     58                     59                     60
                      A                      A                      A
 Frequencies --   1210.9342              1222.3291              1238.0025
 Red. masses --      1.1450                 1.7843                 2.8405
 Frc consts  --      0.9892                 1.5707                 2.5650
 IR Inten    --      0.9194                 4.7328                30.9725

                     61                     62                     63
                      A                      A                      A
 Frequencies --   1239.9520              1307.8974              1317.9767
 Red. masses --      2.0964                 1.5343                 1.3290
 Frc consts  --      1.8991                 1.5464                 1.3601
 IR Inten    --      7.2067                 5.7067                10.3514

                     64                     65                     66
                      A                      A                      A
 Frequencies --   1346.8803              1360.1043              1367.8521
 Red. masses --      1.4434                 6.8810                 2.0485
 Frc consts  --      1.5428                 7.4997                 2.2582
 IR Inten    --     13.5417                 0.1182                 1.3326

                     67                     68                     69
                      A                      A                      A
 Frequencies --   1386.7910              1413.7238              1439.1919
 Red. masses --      1.2476                 1.4905                 1.5710
 Frc consts  --      1.4137                 1.7552                 1.9172
 IR Inten    --      0.0071                24.7414                35.3149

                     70                     71                     72
                      A                      A                      A
 Frequencies --   1469.9551              1498.4907              1515.3473
 Red. masses --      2.0833                 1.1492                 1.1100
 Frc consts  --      2.6522                 1.5204                 1.5018
 IR Inten    --     18.4474                 0.6796                 0.6753

                     73                     74                     75
                      A                      A                      A
 Frequencies --   1516.7981              1531.1036              1531.6905
 Red. masses --      1.0534                 1.7675                 1.9733
 Frc consts  --      1.4279                 2.4412                 2.7276
 IR Inten    --      6.3239                 6.5248                 8.5742

                     76                     77                     78
                      A                      A                      A
 Frequencies --   1534.7800              1537.0064              1563.6929
 Red. masses --      1.1085                 1.1461                 2.4151
 Frc consts  --      1.5385                 1.5952                 3.4793
 IR Inten    --      2.5178                 3.8367                 9.9795

                     79                     80                     81
                      A                      A                      A
 Frequencies --   1635.9612              1656.5442              1657.1307
 Red. masses --      6.1346                 5.3456                 5.3329
 Frc consts  --      9.6735                 8.6427                 8.6283
 IR Inten    --      0.3607                 0.4207                 0.1890

                     82                     83                     84
                      A                      A                      A
 Frequencies --   1676.2154              1693.0293              2960.1545
 Red. masses --      4.6620                 1.1460                 1.0731
 Frc consts  --      7.7176                 1.9354                 5.5399
 IR Inten    --      1.8576                31.4184                75.2243

                     85                     86                     87
                      A                      A                      A
 Frequencies --   2981.1781              3012.8772              3033.5734
 Red. masses --      1.0694                 1.0483                 1.0878
 Frc consts  --      5.5996                 5.6065                 5.8981
 IR Inten    --     49.5976                50.6929                31.7011

                     88                     89                     90
                      A                      A                      A
 Frequencies --   3065.5904              3106.4608              3148.8747
 Red. masses --      1.0924                 1.0841                 1.1057
 Frc consts  --      6.0486                 6.1640                 6.4597
 IR Inten    --     33.3239                18.7293                29.6014

                     91                     92                     93
                      A                      A                      A
 Frequencies --   3164.6364              3177.3852              3182.2769
 Red. masses --      1.0862                 1.0843                 1.0940
 Frc consts  --      6.4095                 6.4495                 6.5273
 IR Inten    --     11.9186                 0.7465                25.1713

                     94                     95                     96
                      A                      A                      A
 Frequencies --   3185.9968              3193.7544              3201.8450
 Red. masses --      1.0876                 1.0899                 1.0873
 Frc consts  --      6.5047                 6.5502                 6.5676
 IR Inten    --      2.1769                23.7213                 1.7599

                     97                     98                     99
                      A                      A                      A
 Frequencies --   3203.2524              3208.8864              3217.5504
 Red. masses --      1.0947                 1.0960                 1.0935
 Frc consts  --      6.6177                 6.6489                 6.6700
 IR Inten    --     37.8216                12.7931                 4.6700

                    100                    101                    102
                      A                      A                      A
 Frequencies --   3231.2622              3468.7309              3557.5387
 Red. masses --      1.0944                 1.0497                 1.0929
 Frc consts  --      6.7323                 7.4412                 8.1498
 IR Inten    --      5.3491                 2.3868                 0.6243

 - Thermochemistry -
 -------------------
 Temperature   298.150 Kelvin.  Pressure   1.00000 Atm.
 Atom     1 has atomic number  6 and mass  12.00000

 Molecular mass:   229.14666 amu.
 Principal axes and moments of inertia in atomic units:
                           1         2         3
     Eigenvalues --  3112.669465383.067946984.71956
           X            0.99960   0.02816  -0.00112
           Y           -0.02814   0.99948   0.01571
           Z            0.00157  -0.01567   0.99988
 This molecule is an asymmetric top.
 Rotational symmetry number  1.
 Warning -- assumption of classical behavior for rotation
           may cause significant error
 Rotational temperatures (Kelvin)      0.02783     0.01609     0.01240
 Rotational constants (GHZ):           0.57980     0.33526     0.25838
 Zero-point vibrational energy     814137.8 (Joules/Mol)
                                  194.58361 (Kcal/Mol)
 Warning -- explicit consideration of  23 degrees of freedom as
           vibrations may cause significant error
 Vibrational temperatures:     16.93    43.78    57.17    69.80    82.83
          (Kelvin)             92.72   110.39   131.52   152.89   204.26
                              226.42   305.83   364.62   405.58   481.29
                              492.82   588.23   595.16   599.45   605.39
                              670.50   772.31   838.39   896.97   897.62
                              942.21  1002.47  1031.30  1044.00  1074.76
                             1188.99  1216.44  1243.76  1250.06  1260.99
                             1268.72  1367.41  1381.97  1392.89  1403.45
                             1430.62  1455.83  1460.62  1472.80  1474.91
                             1492.41  1506.49  1539.88  1540.68  1544.79
                             1641.15  1654.19  1707.17  1709.13  1712.50
                             1737.15  1737.52  1742.26  1758.66  1781.21
                             1784.01  1881.77  1896.27  1937.86  1956.89
                             1968.03  1995.28  2034.03  2070.68  2114.94
                             2155.99  2180.25  2182.33  2202.92  2203.76
                             2208.21  2211.41  2249.81  2353.78  2383.40
                             2384.24  2411.70  2435.89  4259.00  4289.25
                             4334.86  4364.64  4410.70  4469.50  4530.53
                             4553.21  4571.55  4578.59  4583.94  4595.10
                             4606.74  4608.77  4616.87  4629.34  4649.07
                             4990.73  5118.50

 Zero-point correction=                           0.310089 (Hartree/Particle)
 Thermal correction to Energy=                    0.327611
 Thermal correction to Enthalpy=                  0.328555
 Thermal correction to Gibbs Free Energy=         0.260834
 Sum of electronic and zero-point Energies=           -712.745758
 Sum of electronic and thermal Energies=              -712.728236
 Sum of electronic and thermal Enthalpies=            -712.727292
 Sum of electronic and thermal Free Energies=         -712.795013

                     E (Thermal)             CV                S
                      KCal/Mol        Cal/Mol-Kelvin    Cal/Mol-Kelvin
 Total                  205.579             63.817            142.531
 Electronic               0.000              0.000              0.000
 Translational            0.889              2.981             42.190
 Rotational               0.889              2.981             33.126
 Vibrational            203.801             57.855             67.215
 Vibration     1          0.593              1.987              7.688
 Vibration     2          0.594              1.984              5.801
 Vibration     3          0.594              1.981              5.272
 Vibration     4          0.595              1.978              4.877
 Vibration     5          0.596              1.974              4.539
 Vibration     6          0.597              1.971              4.316
 Vibration     7          0.599              1.965              3.973
 Vibration     8          0.602              1.955              3.630
 Vibration     9          0.605              1.944              3.336
 Vibration    10          0.615              1.911              2.777
 Vibration    11          0.621              1.894              2.581
 Vibration    12          0.644              1.822              2.022
 Vibration    13          0.665              1.757              1.707
 Vibration    14          0.681              1.707              1.522
 Vibration    15          0.716              1.607              1.238
 Vibration    16          0.722              1.590              1.200
 Vibration    17          0.773              1.451              0.931
 Vibration    18          0.777              1.441              0.914
 Vibration    19          0.780              1.434              0.903
 Vibration    20          0.783              1.425              0.889
 Vibration    21          0.823              1.325              0.749
 Vibration    22          0.892              1.169              0.572
 Vibration    23          0.940              1.069              0.480

                           ! Non-Optimized Parameters !
 Normal termination of Gaussian 16 at Mon Dec 14 20:01:31 2020.

 ----------------------------------------------------------------------
 # B3LYP/6-311++G(d,p) empiricaldispersion=gd3bj scf=xqc pop=npa geom=c
 heck
 ----------------------------------------------------------------------

 ---------------------------------------
 CID_142111258_JID_7738_Energie_neutraal
 ---------------------------------------
 Structure from the checkpoint file:  "JID_7738.chk"
 Charge =  0 Multiplicity = 1

 SCF Done:  E(RB3LYP) =  -713.257436926     A.U. after   14 cycles
 Normal termination of Gaussian 16 at Mon Dec 14 20:07:56 2020.

 ----------------------------------------------------------------------
 # B3LYP/6-311++G(d,p) empiricaldispersion=gd3bj scf=xqc pop=npa geom=c
 heck
 ----------------------------------------------------------------------

 -------------------------------------
 CID_142111258_JID_7738_Energie_kation
 -------------------------------------
 Structure from the checkpoint file:  "JID_7738.chk"
 Charge =  1 Multiplicity = 2

 SCF Done:  E(UB3LYP) =  -712.959365684     A.U. after   31 cycles
 Normal termination of Gaussian 16 at Mon Dec 14 20:27:09 2020.
 Gaussian 16:  ES64L-G16RevA.03 25-Dec-2016

 ----------------------------------------------------------------------
 # B3LYP/6-311++G(d,p) empiricaldispersion=gd3bj scf=xqc pop=npa geom=c
 heck
 ----------------------------------------------------------------------

 ------------------------------------
 CID_142111258_JID_7738_Energie_anion
 ------------------------------------
 Structure from the checkpoint file:  "JID_7738.chk"
 Charge = -1 Multiplicity = 2

                         Standard orientation:
 ---------------------------------------------------------------------
 Center     Atomic      Atomic             Coordinates (Angstroms)
 Number     Number       Type             X           Y           Z
 ---------------------------------------------------------------------
      1          6           0        2.351179    1.754740   -0.679916
      2          8           0        1.422769    2.812819   -0.866783
      3          6           0        0.477766    2.909044    0.179339
      4          6           0       -0.542871    1.786599    0.206002
      5          6           0       -0.942338    1.158199   -0.977618
      6          6           0       -1.904763    0.151904   -0.960688
      7          6           0       -2.505679   -0.242315    0.241521
      8          6           0       -2.118017    0.399416    1.422266
      9          6           0       -1.137024    1.391041    1.406552
     10          6           0       -3.523981   -1.363376    0.272044
     11          7           0       -4.349089   -1.373204   -0.939918
     12          6           0        2.006782   -1.221325    1.486325
     13          6           0        3.301642   -1.345259    0.978373
     14          6           0        3.496351   -1.759310   -0.340919
     15          6           0        2.396061   -2.051293   -1.150421
     16          6           0        1.102318   -1.926532   -0.641043
     17          6           0        0.907473   -1.510965    0.677309
     18          1           0        2.890516    1.864502    0.273492
     19          1           0        3.066437    1.815880   -1.503794
     20          1           0        1.867568    0.772756   -0.692348
     21          1           0        0.985772    2.967366    1.157214
     22          1           0       -0.029980    3.868358    0.018819
     23          1           0       -0.476193    1.457999   -1.911296
     24          1           0       -2.213014   -0.335087   -1.880342
     25          1           0       -2.578862    0.111659    2.364957
     26          1           0       -0.836696    1.866551    2.338012
     27          1           0       -2.999285   -2.328826    0.309412
     28          1           0       -4.098212   -1.291823    1.212849
     29          1           0       -4.995853   -2.158927   -0.910072
     30          1           0       -4.916585   -0.527419   -0.970631
     31          1           0        1.853135   -0.890001    2.509789
     32          1           0        4.157682   -1.116778    1.607689
     33          1           0        4.503489   -1.853515   -0.737975
     34          1           0        2.547785   -2.369815   -2.178232
     35          1           0        0.243087   -2.135451   -1.271394
     36          1           0       -0.098719   -1.390971    1.062789
 ---------------------------------------------------------------------

 SCF Done:  E(UB3LYP) =  -713.246193372     A.U. after   33 cycles
 SCF Done:  E(UB3LYP) =  -713.246193372     a.u. after    1 cycles

 The electronic state is 2-A.
 Alpha  occ. eigenvalues --  -19.03593 -14.19416 -10.13074 -10.11256 -10.09737
 Alpha  occ. eigenvalues --  -10.08565 -10.08513 -10.08429 -10.08215 -10.08187
 Alpha  occ. eigenvalues --  -10.08171 -10.08080 -10.07877 -10.07830 -10.07680
 Alpha  occ. eigenvalues --  -10.07490 -10.07105  -0.94770  -0.78997  -0.76409
 Alpha  occ. eigenvalues --   -0.75820  -0.68025  -0.65575  -0.65513  -0.64975
 Alpha  occ. eigenvalues --   -0.62525  -0.57416  -0.53397  -0.51212  -0.51182
 Alpha  occ. eigenvalues --   -0.51132  -0.47667  -0.43348  -0.41789  -0.39963
 Alpha  occ. eigenvalues --   -0.39008  -0.38919  -0.37011  -0.36456  -0.35688
 Alpha  occ. eigenvalues --   -0.35494  -0.34443  -0.33284  -0.33211  -0.32622
 Alpha  occ. eigenvalues --   -0.31896  -0.31215  -0.29718  -0.29243  -0.27812
 Alpha  occ. eigenvalues --   -0.25988  -0.25462  -0.25346  -0.24934  -0.24483
 Alpha  occ. eigenvalues --   -0.22611  -0.17645  -0.16617  -0.16543  -0.15841
 Alpha  occ. eigenvalues --   -0.15320  -0.14019   0.04050
 Alpha virt. eigenvalues --    0.05600   0.06502   0.06999   0.07420   0.07541
 Alpha virt. eigenvalues --    0.07742   0.07980   0.08090   0.08771   0.09102
 Alpha virt. eigenvalues --    0.09428   0.09897   0.10277   0.10592   0.11368

  Beta  occ. eigenvalues --  -19.03588 -14.19366 -10.13071 -10.11248 -10.09710
  Beta  occ. eigenvalues --  -10.08554 -10.08503 -10.08417 -10.08181 -10.08173
  Beta  occ. eigenvalues --  -10.08162 -10.08060 -10.07871 -10.07817 -10.07671
  Beta  occ. eigenvalues --  -10.07495 -10.07079  -0.94758  -0.78913  -0.76383
  Beta  occ. eigenvalues --   -0.75768  -0.67964  -0.65547  -0.65484  -0.64935
  Beta  occ. eigenvalues --   -0.62489  -0.57350  -0.53351  -0.51179  -0.51149
  Beta  occ. eigenvalues --   -0.51098  -0.47610  -0.43301  -0.41745  -0.39939
  Beta  occ. eigenvalues --   -0.38975  -0.38874  -0.36972  -0.36405  -0.35664
  Beta  occ. eigenvalues --   -0.35451  -0.34414  -0.33254  -0.33180  -0.32587
  Beta  occ. eigenvalues --   -0.31837  -0.31168  -0.29690  -0.29196  -0.27787
  Beta  occ. eigenvalues --   -0.25945  -0.25431  -0.25311  -0.24886  -0.24449
  Beta  occ. eigenvalues --   -0.22589  -0.17623  -0.16590  -0.16514  -0.15771
  Beta  occ. eigenvalues --   -0.15243  -0.13906
  Beta virt. eigenvalues --    0.06076   0.06801   0.06969   0.07221   0.07511
  Beta virt. eigenvalues --    0.07673   0.08037   0.08247   0.08426   0.09087
  Beta virt. eigenvalues --    0.09343   0.09674   0.10118   0.10829   0.10879

 Mulliken charges and spin densities:
               1          2
     1  C   -0.480480   0.111322
     2  O   -0.121486   0.005471
     3  C    0.221110  -0.706755
     4  C    0.594015   0.038379
     5  C   -0.855048   0.565829
     6  C   -0.813220   0.522027
     7  C   -0.485594   0.935991
     8  C   -0.246765  -0.320409
     9  C    0.219151  -0.714531
    10  C    2.170848  -2.722221
    11  N   -0.517622   0.183757
    12  C   -0.190403  -0.052426
    13  C    0.272135  -0.610048
    14  C    0.370262  -0.554541
    15  C   -0.659668   0.373023
    16  C   -0.411802   0.139270
    17  C    0.537763  -0.286056
    18  H    0.054534   0.042619
    19  H    0.049483   0.112167
    20  H    0.534949  -0.259648
    21  H    0.024781   0.136638
    22  H    0.204043  -0.029219
    23  H    0.092900   0.069418
    24  H    0.132870   0.091712
    25  H   -0.369393   0.551160
    26  H   -0.202910   0.366789
    27  H   -0.300658   0.511135
    28  H   -0.387492   0.529440
    29  H   -0.226603   0.474012
    30  H   -0.027348   0.238950
    31  H   -0.386390   0.562140
    32  H   -0.303214   0.470605
    33  H   -0.156989   0.313559
    34  H   -0.104654   0.268835
    35  H    0.115842   0.061456
    36  H    0.653050  -0.419848
 Sum of Mulliken charges =  -1.00000   1.00000

 Dipole moment (field-independent basis, Debye):
    X=              3.7989    Y=              3.8237    Z=             -1.5309  Tot=              5.6032
 Quadrupole moment (field-independent basis, Debye-Ang):
   XX=           -195.3963   YY=           -146.1470   ZZ=           -141.4285
   XY=            -12.8118   XZ=             -4.0388   YZ=              0.1252

 Summary of Natural Population Analysis:

                                       Natural Population
                Natural  -----------------------------------------------
    Atom  No    Charge         Core      Valence    Rydberg      Total
 -----------------------------------------------------------------------
      C    1   -0.10253      0.99961     2.09329    0.00962     3.10253
      O    2   -0.29774      0.99989     3.28957    0.00828     4.29774
      C    3   -0.01314      0.99954     2.00015    0.01345     3.01314
      C    4   -0.03337      0.99949     2.02463    0.00926     3.03337
      C    5   -0.09888      0.99951     2.09112    0.00824     3.09888
      C    6   -0.09507      0.99951     2.08559    0.00997     3.09507
      C    7   -0.02171      0.99950     2.01069    0.01152     3.02171
      C    8   -0.10130      0.99951     2.09141    0.01038     3.10130
      C    9   -0.09925      0.99951     2.08952    0.01022     3.09925
      C   10   -0.09397      0.99959     2.08229    0.01209     3.09397
      N   11   -0.42094      0.99978     2.91068    0.01048     3.92094
      C   12   -0.10167      0.99956     2.09111    0.01100     3.10167
      C   13   -0.10585      0.99956     2.09526    0.01103     3.10585
      C   14   -0.11761      0.99960     2.10342    0.01459     3.11761
      C   15   -0.07939      0.99956     2.07481    0.00501     3.07939
      C   16   -0.11218      0.99959     2.09931    0.01328     3.11218
      C   17   -0.09992      0.99956     2.08982    0.01054     3.09992
      H   18    0.07884      0.00000     0.42001    0.00115     0.42116
      H   19    0.08713      0.00000     0.41196    0.00090     0.41287
      H   20    0.08989      0.00000     0.40736    0.00275     0.41011
      H   21    0.08176      0.00000     0.41689    0.00135     0.41824
      H   22    0.09241      0.00000     0.40646    0.00113     0.40759
      H   23    0.10420      0.00000     0.39433    0.00147     0.39580
      H   24    0.11039      0.00000     0.38823    0.00138     0.38961
      H   25    0.10141      0.00000     0.39722    0.00137     0.39859
      H   26    0.09949      0.00000     0.39933    0.00118     0.40051
      H   27    0.09679      0.00000     0.40118    0.00204     0.40321
      H   28    0.08351      0.00000     0.41417    0.00232     0.41649
      H   29    0.17959      0.00000     0.31612    0.00429     0.32041
      H   30    0.17305      0.00000     0.32490    0.00205     0.32695
      H   31    0.10346      0.00000     0.39519    0.00135     0.39654
      H   32    0.10171      0.00000     0.39703    0.00126     0.39829
      H   33    0.10056      0.00000     0.39835    0.00109     0.39944
      H   34    0.09684      0.00000     0.40204    0.00112     0.40316
      H   35    0.10457      0.00000     0.39383    0.00160     0.39543
      H   36    0.10894      0.00000     0.38855    0.00252     0.39106
 =======================================================================
   * Total *    0.00002     16.99288    44.79582    0.21129    61.99998

 Normal termination of Gaussian 16 at Mon Dec 14 20:47:21 2020.
