 Gaussian 16, Revision A.03,

 -----------------------------------------------------------
 # opt freq B3LYP/6-31G(d) empiricaldispersion=gd3bj scf=xqc
 -----------------------------------------------------------

 ------------------------------
 CID_82542916_JID_7889_neutraal
 ------------------------------
 Symbolic Z-matrix:
 Charge =  0 Multiplicity = 1

 SCF Done:  E(RB3LYP) =  -709.231758871     A.U. after   15 cycles
 SCF Done:  E(RB3LYP) =  -709.234974914     A.U. after   12 cycles
 SCF Done:  E(RB3LYP) =  -709.235260519     A.U. after   12 cycles
 SCF Done:  E(RB3LYP) =  -709.236161573     A.U. after   12 cycles
 SCF Done:  E(RB3LYP) =  -709.236717448     A.U. after   11 cycles
 SCF Done:  E(RB3LYP) =  -709.236774925     A.U. after   12 cycles
 SCF Done:  E(RB3LYP) =  -709.236925084     A.U. after   12 cycles
 SCF Done:  E(RB3LYP) =  -709.237074613     A.U. after   11 cycles
 SCF Done:  E(RB3LYP) =  -709.237076209     A.U. after   10 cycles
 SCF Done:  E(RB3LYP) =  -709.237092180     A.U. after   10 cycles
 SCF Done:  E(RB3LYP) =  -709.237092422     A.U. after    9 cycles
 SCF Done:  E(RB3LYP) =  -709.237093027     A.U. after    8 cycles
 SCF Done:  E(RB3LYP) =  -709.237093701     A.U. after    9 cycles
 SCF Done:  E(RB3LYP) =  -709.237093929     A.U. after    8 cycles
 Optimization completed.
    -- Stationary point found.
 Normal termination of Gaussian 16 at Sun Dec 13 12:30:49 2020.

 --------------------------------------------------------------------
 #N Geom=AllCheck Guess=TCheck SCRF=Check GenChk RB3LYP/6-31G(d) Freq
 --------------------------------------------------------------------

 Structure from the checkpoint file:  "JID_7889.chk"
 ------------------------------
 CID_82542916_JID_7889_neutraal
 ------------------------------
 Charge =  0 Multiplicity = 1

 SCF Done:  E(RB3LYP) =  -709.237093929     A.U. after    1 cycles

  Exact polarizability: 228.264  -9.242 161.556  -7.023 -17.434 108.336
 Approx polarizability: 316.800 -14.640 263.844  -9.989 -40.663 163.234

 ******    1 imaginary frequencies (negative Signs) ******

                      1                      2                      3
                      A                      A                      A
 Frequencies --    -37.1848                20.8390                39.4093
 Red. masses --      1.1064                 4.0145                 3.8825
 Frc consts  --      0.0009                 0.0010                 0.0036
 IR Inten    --      0.1931                 1.3119                 1.9752

                      4                      5                      6
                      A                      A                      A
 Frequencies --     56.1499                79.3402                88.7547
 Red. masses --      2.6253                 3.9943                 3.8089
 Frc consts  --      0.0049                 0.0148                 0.0177
 IR Inten    --      2.2427                 1.0127                 1.0624

                      7                      8                      9
                      A                      A                      A
 Frequencies --     97.9514               162.3670               192.6994
 Red. masses --      4.4557                 2.6192                 3.0388
 Frc consts  --      0.0252                 0.0407                 0.0665
 IR Inten    --      0.5095                 4.7596                 1.7604

                     10                     11                     12
                      A                      A                      A
 Frequencies --    220.6660               243.3581               264.4251
 Red. masses --      3.1477                 2.1554                 1.6578
 Frc consts  --      0.0903                 0.0752                 0.0683
 IR Inten    --      0.4424                14.2950                 9.9970

                     13                     14                     15
                      A                      A                      A
 Frequencies --    276.5232               283.8022               295.5751
 Red. masses --      1.5146                 1.5452                 4.1868
 Frc consts  --      0.0682                 0.0733                 0.2155
 IR Inten    --      0.8240                29.6858                 1.4948

                     16                     17                     18
                      A                      A                      A
 Frequencies --    324.5772               340.4861               407.8826
 Red. masses --      3.3636                 3.7484                 3.1702
 Frc consts  --      0.2088                 0.2560                 0.3108
 IR Inten    --     10.8752                 0.2657                 4.5238

                     19                     20                     21
                      A                      A                      A
 Frequencies --    444.2663               460.8962               481.5728
 Red. masses --      2.0643                 3.1208                 3.3114
 Frc consts  --      0.2401                 0.3906                 0.4525
 IR Inten    --      6.2644                 2.6694                 1.4166

                     22                     23                     24
                      A                      A                      A
 Frequencies --    505.0147               581.6992               629.6437
 Red. masses --      3.4840                 3.7022                 3.7756
 Frc consts  --      0.5235                 0.7381                 0.8819
 IR Inten    --      3.3906                 0.3778                 0.9957

                     25                     26                     27
                      A                      A                      A
 Frequencies --    654.6151               675.6955               694.1867
 Red. masses --      5.0422                 5.4855                 2.6096
 Frc consts  --      1.2730                 1.4756                 0.7409
 IR Inten    --      1.0668                 1.1495                 6.0575

                     28                     29                     30
                      A                      A                      A
 Frequencies --    719.9278               730.6974               776.8808
 Red. masses --      2.3119                 3.3744                 3.4134
 Frc consts  --      0.7060                 1.0615                 1.2138
 IR Inten    --      9.9478                10.7919                 6.9106

                     31                     32                     33
                      A                      A                      A
 Frequencies --    787.7119               813.9795               846.7515
 Red. masses --      1.4057                 1.5802                 2.3706
 Frc consts  --      0.5139                 0.6169                 1.0014
 IR Inten    --     21.2393                18.6769                35.3040

                     34                     35                     36
                      A                      A                      A
 Frequencies --    866.9354               871.7282               899.2788
 Red. masses --      1.3894                 1.9167                 1.3532
 Frc consts  --      0.6153                 0.8582                 0.6448
 IR Inten    --      9.3947                24.2814                32.8228

                     37                     38                     39
                      A                      A                      A
 Frequencies --    916.1759               920.0941               970.1304
 Red. masses --      1.4916                 1.5409                 1.8018
 Frc consts  --      0.7377                 0.7686                 0.9991
 IR Inten    --      4.9545                12.8236                 5.5338

                     40                     41                     42
                      A                      A                      A
 Frequencies --    973.6796               991.9392              1009.7000
 Red. masses --      1.2774                 2.2471                 3.2225
 Frc consts  --      0.7135                 1.3027                 1.9357
 IR Inten    --      0.2177                34.8688                18.3539

                     43                     44                     45
                      A                      A                      A
 Frequencies --   1016.6787              1022.8345              1034.6713
 Red. masses --      3.3817                 5.3943                 1.5940
 Frc consts  --      2.0594                 3.3250                 1.0054
 IR Inten    --      3.3092                 0.3226                 3.5423

                     46                     47                     48
                      A                      A                      A
 Frequencies --   1083.2250              1088.6146              1106.7085
 Red. masses --      1.5971                 1.7394                 1.9667
 Frc consts  --      1.1041                 1.2145                 1.4192
 IR Inten    --     20.2519                 7.7581                17.3304

                     49                     50                     51
                      A                      A                      A
 Frequencies --   1121.6721              1147.4192              1153.3351
 Red. masses --      2.2213                 1.7763                 2.0760
 Frc consts  --      1.6466                 1.3779                 1.6270
 IR Inten    --      5.0420                 2.8185                 3.1128

                     52                     53                     54
                      A                      A                      A
 Frequencies --   1161.2478              1188.3112              1208.6007
 Red. masses --      1.3055                 1.2331                 1.2954
 Frc consts  --      1.0373                 1.0259                 1.1148
 IR Inten    --      1.0188                 5.6254                 0.2203

                     55                     56                     57
                      A                      A                      A
 Frequencies --   1217.3234              1228.2628              1259.2944
 Red. masses --      1.2989                 1.5344                 1.7448
 Frc consts  --      1.1341                 1.3638                 1.6303
 IR Inten    --      0.9616                 8.2908                16.1290

                     58                     59                     60
                      A                      A                      A
 Frequencies --   1276.8352              1318.3053              1328.3641
 Red. masses --      1.5899                 1.7793                 2.0675
 Frc consts  --      1.5272                 1.8219                 2.1495
 IR Inten    --      7.3124                 3.5455                 0.7142

                     61                     62                     63
                      A                      A                      A
 Frequencies --   1343.7387              1364.0134              1365.8581
 Red. masses --      3.2532                 1.2956                 2.1316
 Frc consts  --      3.4609                 1.4202                 2.3430
 IR Inten    --      0.1106                12.4254                 0.6975

                     64                     65                     66
                      A                      A                      A
 Frequencies --   1380.5734              1393.8004              1408.5920
 Red. masses --      1.8877                 1.3916                 2.1840
 Frc consts  --      2.1199                 1.5928                 2.5531
 IR Inten    --      3.5618                 8.2314                14.5011

                     67                     68                     69
                      A                      A                      A
 Frequencies --   1429.7865              1440.1066              1453.2632
 Red. masses --      3.8963                 1.2844                 1.4156
 Frc consts  --      4.6929                 1.5694                 1.7614
 IR Inten    --      6.1170                10.1482                 6.2018

                     70                     71                     72
                      A                      A                      A
 Frequencies --   1472.5383              1494.1575              1495.4730
 Red. masses --      1.6731                 2.9743                 2.0702
 Frc consts  --      2.1374                 3.9123                 2.7278
 IR Inten    --     57.5846                 1.1213                15.1429

                     73                     74                     75
                      A                      A                      A
 Frequencies --   1504.1503              1505.7041              1525.5585
 Red. masses --      1.0474                 1.0998                 1.0649
 Frc consts  --      1.3961                 1.4691                 1.4602
 IR Inten    --      6.6641                 2.9593                 2.2314

                     76                     77                     78
                      A                      A                      A
 Frequencies --   1537.1821              1539.6240              1543.1483
 Red. masses --      1.5490                 1.2516                 1.0781
 Frc consts  --      2.1565                 1.7480                 1.5126
 IR Inten    --     10.1091                 3.3078                 4.3815

                     79                     80                     81
                      A                      A                      A
 Frequencies --   1551.8719              1617.3237              1642.8681
 Red. masses --      1.3686                 5.1185                 5.3935
 Frc consts  --      1.9420                 7.8884                 8.5768
 IR Inten    --      4.3325                34.6764                18.9130

                     82                     83                     84
                      A                      A                      A
 Frequencies --   1667.2895              1700.1444              2953.8698
 Red. masses --      5.7291                 1.0877                 1.0736
 Frc consts  --      9.3834                 1.8524                 5.5191
 IR Inten    --     56.6364                14.0058                68.7230

                     85                     86                     87
                      A                      A                      A
 Frequencies --   3020.3514              3039.6429              3052.8215
 Red. masses --      1.0816                 1.0669                 1.0364
 Frc consts  --      5.8137                 5.8081                 5.6910
 IR Inten    --     13.6500                33.6107                26.9061

                     88                     89                     90
                      A                      A                      A
 Frequencies --   3068.3126              3072.0672              3090.6442
 Red. masses --      1.0857                 1.0329                 1.0999
 Frc consts  --      6.0220                 5.7435                 6.1902
 IR Inten    --     70.2183                56.1653                32.0515

                     91                     92                     93
                      A                      A                      A
 Frequencies --   3117.3295              3122.2905              3140.5597
 Red. masses --      1.1014                 1.1029                 1.1052
 Frc consts  --      6.3063                 6.3347                 6.4228
 IR Inten    --     38.1121                32.1091                14.4473

                     94                     95                     96
                      A                      A                      A
 Frequencies --   3167.5588              3177.9173              3184.3969
 Red. masses --      1.1050                 1.0893                 1.0864
 Frc consts  --      6.5321                 6.4814                 6.4907
 IR Inten    --      9.5139                13.0797                 8.5439

                     97                     98                     99
                      A                      A                      A
 Frequencies --   3203.7488              3216.4452              3256.5074
 Red. masses --      1.0920                 1.0931                 1.0956
 Frc consts  --      6.6039                 6.6628                 6.8455
 IR Inten    --     16.9855                16.2865                 5.0926

                    100                    101                    102
                      A                      A                      A
 Frequencies --   3276.6883              3473.8524              3563.7334
 Red. masses --      1.0974                 1.0513                 1.0902
 Frc consts  --      6.9418                 7.4748                 8.1579
 IR Inten    --      0.1723                 8.5069                 3.2383

 - Thermochemistry -
 -------------------
 Temperature   298.150 Kelvin.  Pressure   1.00000 Atm.
 Atom     1 has atomic number  6 and mass  12.00000

 Molecular mass:   229.15790 amu.
 Principal axes and moments of inertia in atomic units:
                           1         2         3
     Eigenvalues --  2062.220507589.866958387.79266
           X            0.99998  -0.00520  -0.00195
           Y            0.00516   0.99982  -0.01814
           Z            0.00204   0.01813   0.99983
 This molecule is an asymmetric top.
 Rotational symmetry number  1.
 Warning -- assumption of classical behavior for rotation
           may cause significant error
 Rotational temperatures (Kelvin)      0.04200     0.01141     0.01033
 Rotational constants (GHZ):           0.87514     0.23778     0.21516
    1 imaginary frequencies ignored.
 Zero-point vibrational energy     820370.4 (Joules/Mol)
                                  196.07322 (Kcal/Mol)
 Warning -- explicit consideration of  22 degrees of freedom as
           vibrations may cause significant error
 Vibrational temperatures:     29.98    56.70    80.79   114.15   127.70
          (Kelvin)            140.93   233.61   277.25   317.49   350.14
                              380.45   397.86   408.33   425.27   466.99
                              489.88   586.85   639.20   663.13   692.88
                              726.60   836.94   905.92   941.85   972.18
                              998.78  1035.82  1051.31  1117.76  1133.34
                             1171.13  1218.29  1247.33  1254.22  1293.86
                             1318.17  1323.81  1395.80  1400.91  1427.18
                             1452.73  1462.77  1471.63  1488.66  1558.52
                             1566.27  1592.31  1613.84  1650.88  1659.39
                             1670.78  1709.71  1738.91  1751.46  1767.20
                             1811.84  1837.08  1896.75  1911.22  1933.34
                             1962.51  1965.17  1986.34  2005.37  2026.65
                             2057.14  2071.99  2090.92  2118.65  2149.76
                             2151.65  2164.14  2166.37  2194.94  2211.66
                             2215.18  2220.25  2232.80  2326.97  2363.72
                             2398.86  2446.13  4249.96  4345.61  4373.37
                             4392.33  4414.62  4420.02  4446.75  4485.14
                             4492.28  4518.56  4557.41  4572.31  4581.64
                             4609.48  4627.75  4685.39  4714.42  4998.10
                             5127.42

 Zero-point correction=                           0.312463 (Hartree/Particle)
 Thermal correction to Energy=                    0.328316
 Thermal correction to Enthalpy=                  0.329260
 Thermal correction to Gibbs Free Energy=         0.267729
 Sum of electronic and zero-point Energies=           -708.924631
 Sum of electronic and thermal Energies=              -708.908778
 Sum of electronic and thermal Enthalpies=            -708.907834
 Sum of electronic and thermal Free Energies=         -708.969365

                     E (Thermal)             CV                S
                      KCal/Mol        Cal/Mol-Kelvin    Cal/Mol-Kelvin
 Total                  206.021             60.895            129.504
 Electronic               0.000              0.000              0.000
 Translational            0.889              2.981             42.190
 Rotational               0.889              2.981             33.240
 Vibrational            204.244             54.934             54.074
 Vibration     1          0.593              1.986              6.553
 Vibration     2          0.594              1.981              5.289
 Vibration     3          0.596              1.975              4.588
 Vibration     4          0.600              1.963              3.907
 Vibration     5          0.602              1.957              3.687
 Vibration     6          0.603              1.951              3.495
 Vibration     7          0.622              1.889              2.522
 Vibration     8          0.635              1.850              2.202
 Vibration     9          0.647              1.810              1.954
 Vibration    10          0.659              1.774              1.778
 Vibration    11          0.671              1.738              1.632
 Vibration    12          0.678              1.717              1.555
 Vibration    13          0.682              1.704              1.511
 Vibration    14          0.690              1.682              1.442
 Vibration    15          0.709              1.626              1.287
 Vibration    16          0.720              1.595              1.210
 Vibration    17          0.772              1.453              0.934
 Vibration    18          0.804              1.374              0.813
 Vibration    19          0.819              1.337              0.764
 Vibration    20          0.838              1.291              0.706
 Vibration    21          0.860              1.239              0.646
 Vibration    22          0.938              1.071              0.482

                           ! Non-Optimized Parameters !
 Normal termination of Gaussian 16 at Sun Dec 13 12:43:54 2020.

 ----------------------------------------------------------------------
 # B3LYP/6-311++G(d,p) empiricaldispersion=gd3bj scf=xqc pop=npa geom=c
 heck
 ----------------------------------------------------------------------

 --------------------------------------
 CID_82542916_JID_7889_Energie_neutraal
 --------------------------------------
 Structure from the checkpoint file:  "JID_7889.chk"
 Charge =  0 Multiplicity = 1

 SCF Done:  E(RB3LYP) =  -709.430448672     A.U. after   15 cycles
 Normal termination of Gaussian 16 at Sun Dec 13 12:50:36 2020.

 ----------------------------------------------------------------------
 # B3LYP/6-311++G(d,p) empiricaldispersion=gd3bj scf=xqc pop=npa geom=c
 heck
 ----------------------------------------------------------------------

 ------------------------------------
 CID_82542916_JID_7889_Energie_kation
 ------------------------------------
 Structure from the checkpoint file:  "JID_7889.chk"
 Charge =  1 Multiplicity = 2

 SCF Done:  E(UB3LYP) =  -709.151727979     A.U. after   25 cycles
 Normal termination of Gaussian 16 at Sun Dec 13 13:07:19 2020.
 Gaussian 16:  ES64L-G16RevA.03 25-Dec-2016

 ----------------------------------------------------------------------
 # B3LYP/6-311++G(d,p) empiricaldispersion=gd3bj scf=xqc pop=npa geom=c
 heck
 ----------------------------------------------------------------------

 -----------------------------------
 CID_82542916_JID_7889_Energie_anion
 -----------------------------------
 Structure from the checkpoint file:  "JID_7889.chk"
 Charge = -1 Multiplicity = 2

                         Standard orientation:
 ---------------------------------------------------------------------
 Center     Atomic      Atomic             Coordinates (Angstroms)
 Number     Number       Type             X           Y           Z
 ---------------------------------------------------------------------
      1          6           0       -4.044400    0.172016    1.548032
      2          6           0       -2.719198   -0.507454    1.180061
      3          6           0       -2.952382   -1.745432    0.271522
      4          6           0       -3.341028   -1.453465   -1.185517
      5          7           0       -2.157171   -1.254116   -2.032431
      6          6           0       -1.689089    0.438609    0.582137
      7          6           0       -2.039475    1.635878   -0.053902
      8          6           0       -1.057237    2.436386   -0.642469
      9          6           0        0.279648    2.053899   -0.613173
     10          6           0        0.661003    0.861047    0.024723
     11          6           0       -0.337541    0.079454    0.621169
     12          6           0        2.065421    0.443770    0.056646
     13          6           0        2.570614   -0.847662    0.154295
     14          7           0        3.924170   -0.750910    0.135009
     15          7           0        4.349602    0.529686    0.037250
     16          6           0        3.231363    1.250847   -0.015139
     17          6           0        4.897242   -1.820352    0.220917
     18          1           0       -4.602761    0.495849    0.663040
     19          1           0       -3.878633    1.051425    2.179420
     20          1           0       -4.683981   -0.527293    2.097300
     21          1           0       -2.287949   -0.894042    2.114101
     22          1           0       -2.045340   -2.360261    0.247276
     23          1           0       -3.738702   -2.351655    0.740654
     24          1           0       -3.873827   -2.326158   -1.581620
     25          1           0       -4.060353   -0.614720   -1.216808
     26          1           0       -2.454983   -1.128157   -2.998802
     27          1           0       -1.689608   -0.389930   -1.767641
     28          1           0       -3.077137    1.949128   -0.094481
     29          1           0       -1.341905    3.361793   -1.136024
     30          1           0        1.032924    2.667442   -1.098269
     31          1           0       -0.054035   -0.835904    1.135096
     32          1           0        2.071122   -1.804431    0.201627
     33          1           0        3.293111    2.329053   -0.082288
     34          1           0        5.582446   -1.765327   -0.628784
     35          1           0        5.472131   -1.737664    1.148161
     36          1           0        4.371623   -2.777026    0.203439
 ---------------------------------------------------------------------

 SCF Done:  E(UB3LYP) =  -709.418960679     A.U. after   33 cycles
 SCF Done:  E(UB3LYP) =  -709.418960680     a.u. after    1 cycles

 The electronic state is 2-A.
 Alpha  occ. eigenvalues --  -14.29955 -14.23688 -14.19357 -10.11913 -10.11218
 Alpha  occ. eigenvalues --  -10.09845 -10.09587 -10.09369 -10.08710 -10.08679
 Alpha  occ. eigenvalues --  -10.08237 -10.08158 -10.08060 -10.07704 -10.07326
 Alpha  occ. eigenvalues --  -10.07099 -10.06913  -0.95974  -0.78772  -0.77124
 Alpha  occ. eigenvalues --   -0.75199  -0.71851  -0.69960  -0.65455  -0.64683
 Alpha  occ. eigenvalues --   -0.61607  -0.60412  -0.55270  -0.52909  -0.51724
 Alpha  occ. eigenvalues --   -0.49156  -0.47364  -0.46270  -0.43220  -0.41052
 Alpha  occ. eigenvalues --   -0.39967  -0.38729  -0.38254  -0.37106  -0.36223
 Alpha  occ. eigenvalues --   -0.35068  -0.34432  -0.33389  -0.32903  -0.32093
 Alpha  occ. eigenvalues --   -0.30897  -0.30795  -0.30091  -0.29181  -0.28504
 Alpha  occ. eigenvalues --   -0.27898  -0.27018  -0.25817  -0.24145  -0.23371
 Alpha  occ. eigenvalues --   -0.22980  -0.20586  -0.19074  -0.16675  -0.15495
 Alpha  occ. eigenvalues --   -0.14745  -0.12660   0.04010
 Alpha virt. eigenvalues --    0.05450   0.06300   0.06503   0.07074   0.07391
 Alpha virt. eigenvalues --    0.07919   0.08362   0.08706   0.09023   0.09493
 Alpha virt. eigenvalues --    0.09881   0.10359   0.10781   0.11109   0.11604

  Beta  occ. eigenvalues --  -14.29936 -14.23685 -14.19347 -10.11862 -10.11185
  Beta  occ. eigenvalues --  -10.09846 -10.09567 -10.09351 -10.08713 -10.08671
  Beta  occ. eigenvalues --  -10.08197 -10.08156 -10.08065 -10.07684 -10.07269
  Beta  occ. eigenvalues --  -10.07090 -10.06891  -0.95949  -0.78747  -0.77074
  Beta  occ. eigenvalues --   -0.75169  -0.71816  -0.69920  -0.65381  -0.64629
  Beta  occ. eigenvalues --   -0.61566  -0.60358  -0.55230  -0.52842  -0.51665
  Beta  occ. eigenvalues --   -0.49118  -0.47298  -0.46230  -0.43177  -0.41002
  Beta  occ. eigenvalues --   -0.39928  -0.38664  -0.38219  -0.37067  -0.36178
  Beta  occ. eigenvalues --   -0.35033  -0.34401  -0.33361  -0.32859  -0.32055
  Beta  occ. eigenvalues --   -0.30857  -0.30743  -0.30058  -0.29147  -0.28446
  Beta  occ. eigenvalues --   -0.27850  -0.26955  -0.25787  -0.24115  -0.23331
  Beta  occ. eigenvalues --   -0.22949  -0.20556  -0.18954  -0.16606  -0.15329
  Beta  occ. eigenvalues --   -0.14726  -0.12552
  Beta virt. eigenvalues --    0.05905   0.06595   0.06730   0.06842   0.07329
  Beta virt. eigenvalues --    0.07636   0.08160   0.08813   0.08982   0.09310
  Beta virt. eigenvalues --    0.09856   0.10164   0.10658   0.11072   0.11356

 Mulliken charges and spin densities:
               1          2
     1  C    0.237789  -0.802003
     2  C   -0.155158   0.365233
     3  C    0.018347  -0.464259
     4  C    0.316312  -0.699172
     5  N   -0.506051   0.100364
     6  C    0.081260   0.627165
     7  C   -0.001207  -0.561670
     8  C   -0.354035  -0.298301
     9  C    0.045379  -0.197193
    10  C    0.480861  -0.354192
    11  C   -0.644053  -0.045754
    12  C    0.767391  -0.847972
    13  C   -0.857022   1.110488
    14  N    0.117120   0.080652
    15  N   -0.350568   0.153343
    16  C   -0.010135  -0.143536
    17  C    1.253849  -1.552022
    18  H   -0.000084   0.133665
    19  H    0.041230   0.097593
    20  H   -0.290744   0.448505
    21  H   -0.162910   0.350178
    22  H    0.041001   0.123628
    23  H   -0.000004   0.139949
    24  H   -0.149544   0.314824
    25  H   -0.106627   0.205092
    26  H    0.091556   0.133123
    27  H    0.351366  -0.098204
    28  H    0.060934   0.095160
    29  H   -0.163704   0.324146
    30  H    0.151959  -0.009182
    31  H   -0.187843   0.307609
    32  H   -0.076237   0.301077
    33  H    0.080713   0.049243
    34  H   -0.149878   0.312820
    35  H   -0.309790   0.491377
    36  H   -0.661473   0.808225
 Sum of Mulliken charges =  -1.00000   1.00000

 Dipole moment (field-independent basis, Debye):
    X=             -2.4969    Y=              4.9485    Z=             -2.1462  Tot=              5.9438
 Quadrupole moment (field-independent basis, Debye-Ang):
   XX=           -205.7016   YY=           -150.1151   ZZ=           -136.9320
   XY=              9.9617   XZ=             -2.6574   YZ=              0.5712

 Summary of Natural Population Analysis:

                                       Natural Population
                Natural  -----------------------------------------------
    Atom  No    Charge         Core      Valence    Rydberg      Total
 -----------------------------------------------------------------------
      C    1   -0.28713      0.99965     2.28097    0.00651     3.28713
      C    2   -0.11767      0.99957     2.10674    0.01136     3.11767
      C    3   -0.18834      0.99960     2.17950    0.00923     3.18834
      C    4   -0.09282      0.99963     2.08254    0.01064     3.09282
      N    5   -0.42257      0.99977     2.91295    0.00985     3.92257
      C    6   -0.01231      0.99950     2.00140    0.01140     3.01231
      C    7   -0.11482      0.99950     2.10594    0.00938     3.11482
      C    8   -0.09275      0.99957     2.08360    0.00958     3.09275
      C    9   -0.10311      0.99953     2.09585    0.00772     3.10311
      C   10   -0.01905      0.99950     2.01003    0.00952     3.01905
      C   11   -0.08216      0.99948     2.07433    0.00835     3.08216
      C   12   -0.08222      0.99951     2.07196    0.01075     3.08222
      C   13    0.01063      0.99951     1.97904    0.01082     2.98937
      N   14   -0.10104      0.99967     2.58875    0.01262     3.60104
      N   15   -0.15521      0.99973     2.64375    0.01173     3.65521
      C   16   -0.00501      0.99959     1.99260    0.01281     3.00501
      C   17   -0.17077      0.99964     2.16278    0.00836     3.17077
      H   18    0.09642      0.00000     0.40230    0.00128     0.40358
      H   19    0.10095      0.00000     0.39818    0.00087     0.39905
      H   20    0.10130      0.00000     0.39777    0.00093     0.39870
      H   21    0.10230      0.00000     0.39594    0.00177     0.39770
      H   22    0.10409      0.00000     0.39430    0.00161     0.39591
      H   23    0.09840      0.00000     0.40043    0.00117     0.40160
      H   24    0.09036      0.00000     0.40849    0.00115     0.40964
      H   25    0.07786      0.00000     0.42042    0.00173     0.42214
      H   26    0.17060      0.00000     0.32801    0.00139     0.32940
      H   27    0.17954      0.00000     0.31817    0.00229     0.32046
      H   28    0.10255      0.00000     0.39631    0.00114     0.39745
      H   29    0.09812      0.00000     0.40105    0.00082     0.40188
      H   30    0.09859      0.00000     0.40009    0.00132     0.40141
      H   31    0.10143      0.00000     0.39692    0.00166     0.39857
      H   32    0.10894      0.00000     0.38980    0.00126     0.39106
      H   33    0.09668      0.00000     0.40236    0.00096     0.40332
      H   34    0.10087      0.00000     0.39787    0.00126     0.39913
      H   35    0.10296      0.00000     0.39508    0.00196     0.39704
      H   36    0.10440      0.00000     0.39336    0.00223     0.39560
 =======================================================================
   * Total *    0.00000     16.99296    44.80958    0.19746    62.00000

 Normal termination of Gaussian 16 at Sun Dec 13 13:30:06 2020.
