 Gaussian 16, Revision A.03,

 -----------------------------------------------------------
 # opt freq B3LYP/6-31G(d) empiricaldispersion=gd3bj scf=xqc
 -----------------------------------------------------------

 ------------------------------
 CID_79333166_JID_3537_neutraal
 ------------------------------
 Symbolic Z-matrix:
 Charge =  0 Multiplicity = 1

 SCF Done:  E(RB3LYP) =  -538.327492920     A.U. after   14 cycles
 SCF Done:  E(RB3LYP) =  -538.332241596     A.U. after   12 cycles
 SCF Done:  E(RB3LYP) =  -538.332835637     A.U. after   12 cycles
 SCF Done:  E(RB3LYP) =  -538.332982711     A.U. after   11 cycles
 SCF Done:  E(RB3LYP) =  -538.333027260     A.U. after   10 cycles
 SCF Done:  E(RB3LYP) =  -538.333038156     A.U. after   10 cycles
 SCF Done:  E(RB3LYP) =  -538.333041430     A.U. after    9 cycles
 SCF Done:  E(RB3LYP) =  -538.333043808     A.U. after    9 cycles
 SCF Done:  E(RB3LYP) =  -538.333046906     A.U. after   10 cycles
 SCF Done:  E(RB3LYP) =  -538.333047887     A.U. after    9 cycles
 SCF Done:  E(RB3LYP) =  -538.333048099     A.U. after    8 cycles
 Optimization completed.
    -- Stationary point found.
 Normal termination of Gaussian 16 at Wed Dec  9 23:34:57 2020.

 --------------------------------------------------------------------
 #N Geom=AllCheck Guess=TCheck SCRF=Check GenChk RB3LYP/6-31G(d) Freq
 --------------------------------------------------------------------

 Structure from the checkpoint file:  "JID_3537.chk"
 ------------------------------
 CID_79333166_JID_3537_neutraal
 ------------------------------
 Charge =  0 Multiplicity = 1

 SCF Done:  E(RB3LYP) =  -538.333048099     A.U. after    1 cycles

  Exact polarizability: 147.519   8.358 101.347   4.623  -8.949 117.980
 Approx polarizability: 209.203  18.788 144.850   6.650 -23.739 194.833

                      1                      2                      3
                      A                      A                      A
 Frequencies --     30.1283                33.9080                68.5489
 Red. masses --      3.7311                 1.0144                 3.0045
 Frc consts  --      0.0020                 0.0007                 0.0083
 IR Inten    --      0.5604                 0.2113                 0.1582

                      4                      5                      6
                      A                      A                      A
 Frequencies --     84.4238               156.0885               188.2665
 Red. masses --      2.2368                 3.2732                 3.2704
 Frc consts  --      0.0094                 0.0470                 0.0683
 IR Inten    --      0.3691                 0.6912                 1.5556

                      7                      8                      9
                      A                      A                      A
 Frequencies --    205.5979               211.6074               255.3532
 Red. masses --      2.7657                 3.2465                 1.4766
 Frc consts  --      0.0689                 0.0856                 0.0567
 IR Inten    --      0.4651                 0.7316                 0.2133

                     10                     11                     12
                      A                      A                      A
 Frequencies --    284.5766               314.7444               347.5730
 Red. masses --      1.9538                 2.2032                 2.5421
 Frc consts  --      0.0932                 0.1286                 0.1809
 IR Inten    --      6.2511                12.5990                 3.5633

                     13                     14                     15
                      A                      A                      A
 Frequencies --    359.7369               391.7748               465.2263
 Red. masses --      1.5869                 2.7928                 3.0203
 Frc consts  --      0.1210                 0.2526                 0.3852
 IR Inten    --     24.7152                 0.2337                13.4514

                     16                     17                     18
                      A                      A                      A
 Frequencies --    494.3071               517.0057               527.6894
 Red. masses --      3.5930                 2.6848                 4.6132
 Frc consts  --      0.5172                 0.4228                 0.7569
 IR Inten    --      1.6046                 2.2160                 5.7152

                     19                     20                     21
                      A                      A                      A
 Frequencies --    562.5732               625.4308               734.7758
 Red. masses --      3.0588                 3.2831                 5.0562
 Frc consts  --      0.5704                 0.7566                 1.6084
 IR Inten    --      2.4366                 0.5789                 0.8440

                     22                     23                     24
                      A                      A                      A
 Frequencies --    757.6654               791.0770               809.3662
 Red. masses --      1.8640                 3.3740                 1.7823
 Frc consts  --      0.6305                 1.2440                 0.6879
 IR Inten    --      5.5125                 1.3657                 4.5152

                     25                     26                     27
                      A                      A                      A
 Frequencies --    845.7712               858.2641               913.1777
 Red. masses --      1.3632                 2.3730                 1.9696
 Frc consts  --      0.5745                 1.0299                 0.9677
 IR Inten    --     11.9800                 9.0083                67.9650

                     28                     29                     30
                      A                      A                      A
 Frequencies --    920.4230               927.6588               943.2588
 Red. masses --      1.5513                 1.7001                 1.8718
 Frc consts  --      0.7743                 0.8620                 0.9812
 IR Inten    --     76.6527                23.6438                23.3397

                     31                     32                     33
                      A                      A                      A
 Frequencies --    954.1948               980.9223              1002.9672
 Red. masses --      2.0000                 1.3682                 1.6470
 Frc consts  --      1.0729                 0.7757                 0.9762
 IR Inten    --      2.9126                 0.0806                53.3682

                     34                     35                     36
                      A                      A                      A
 Frequencies --   1015.7761              1029.0957              1066.5714
 Red. masses --      6.8002                 1.4741                 1.3742
 Frc consts  --      4.1340                 0.9198                 0.9210
 IR Inten    --      2.9062                 1.8365                 2.6838

                     37                     38                     39
                      A                      A                      A
 Frequencies --   1070.2922              1075.2398              1128.0836
 Red. masses --      1.3029                 1.5395                 1.7703
 Frc consts  --      0.8794                 1.0487                 1.3274
 IR Inten    --     10.2816                 4.9749                17.3527

                     40                     41                     42
                      A                      A                      A
 Frequencies --   1139.2865              1147.0675              1168.8633
 Red. masses --      1.7151                 1.5638                 1.7623
 Frc consts  --      1.3116                 1.2123                 1.4186
 IR Inten    --      2.8245                 8.8256                 3.2956

                     43                     44                     45
                      A                      A                      A
 Frequencies --   1177.7686              1239.2395              1279.4034
 Red. masses --      1.6611                 2.5818                 2.2894
 Frc consts  --      1.3576                 2.3360                 2.2079
 IR Inten    --      0.9047                 4.6521                 6.6754

                     46                     47                     48
                      A                      A                      A
 Frequencies --   1297.5029              1309.4214              1328.8485
 Red. masses --      1.5472                 3.9140                 1.2362
 Frc consts  --      1.5347                 3.9539                 1.2862
 IR Inten    --      1.9165                 3.5399                 2.8549

                     49                     50                     51
                      A                      A                      A
 Frequencies --   1331.1649              1370.2414              1394.3091
 Red. masses --      1.4044                 2.3035                 1.5995
 Frc consts  --      1.4662                 2.5482                 1.8321
 IR Inten    --      0.5841                16.9632                 7.1736

                     52                     53                     54
                      A                      A                      A
 Frequencies --   1420.3181              1439.8690              1447.2427
 Red. masses --      1.5536                 1.2782                 1.3106
 Frc consts  --      1.8465                 1.5614                 1.6173
 IR Inten    --      0.9682                 1.3645                 3.0575

                     55                     56                     57
                      A                      A                      A
 Frequencies --   1452.5422              1509.9391              1516.7586
 Red. masses --      2.9207                 1.4581                 1.1170
 Frc consts  --      3.6308                 1.9587                 1.5140
 IR Inten    --     10.4840                 8.1739                20.6029

                     58                     59                     60
                      A                      A                      A
 Frequencies --   1517.5434              1519.9179              1525.0667
 Red. masses --      1.0543                 1.1398                 2.2792
 Frc consts  --      1.4305                 1.5514                 3.1233
 IR Inten    --      5.7376                 2.5454                11.6942

                     61                     62                     63
                      A                      A                      A
 Frequencies --   1533.2422              1544.0192              1619.3173
 Red. masses --      1.0468                 1.0588                 5.6923
 Frc consts  --      1.4499                 1.4872                 8.7943
 IR Inten    --      1.3664                 2.1905                29.4100

                     64                     65                     66
                      A                      A                      A
 Frequencies --   1657.6238              1697.9887              3036.8121
 Red. masses --      5.5815                 1.0995                 1.0603
 Frc consts  --      9.0359                 1.8677                 5.7614
 IR Inten    --     93.4990                15.9818                35.0502

                     67                     68                     69
                      A                      A                      A
 Frequencies --   3047.6305              3052.7977              3067.5861
 Red. masses --      1.0396                 1.0382                 1.1013
 Frc consts  --      5.6893                 5.7009                 6.1060
 IR Inten    --     18.7513                23.8425                22.7841

                     70                     71                     72
                      A                      A                      A
 Frequencies --   3106.6128              3113.6299              3132.7763
 Red. masses --      1.0963                 1.1020                 1.1007
 Frc consts  --      6.2341                 6.2946                 6.3649
 IR Inten    --     17.3902                34.8300                40.2646

                     73                     74                     75
                      A                      A                      A
 Frequencies --   3133.0072              3157.4542              3162.3481
 Red. masses --      1.1032                 1.0540                 1.0882
 Frc consts  --      6.3800                 6.1910                 6.4115
 IR Inten    --     11.5395                10.9293                11.3684

                     76                     77                     78
                      A                      A                      A
 Frequencies --   3164.9428              3196.5333              3198.5963
 Red. masses --      1.0886                 1.0903                 1.0937
 Frc consts  --      6.4248                 6.5637                 6.5929
 IR Inten    --     27.9862                18.9566                13.8875

                     79                     80                     81
                      A                      A                      A
 Frequencies --   3240.3407              3440.9958              3524.3842
 Red. masses --      1.1173                 1.0492                 1.0916
 Frc consts  --      6.9118                 7.3196                 7.9889
 IR Inten    --     11.2890                 3.7120                 0.9296

 - Thermochemistry -
 -------------------
 Temperature   298.150 Kelvin.  Pressure   1.00000 Atm.
 Atom     1 has atomic number  6 and mass  12.00000

 Molecular mass:   176.13135 amu.
 Principal axes and moments of inertia in atomic units:
                           1         2         3
     Eigenvalues --  1517.405333133.364463389.71581
           X            0.99990  -0.00045  -0.01391
           Y            0.00048   1.00000   0.00164
           Z            0.01390  -0.00164   0.99990
 This molecule is an asymmetric top.
 Rotational symmetry number  1.
 Warning -- assumption of classical behavior for rotation
           may cause significant error
 Rotational temperatures (Kelvin)      0.05708     0.02764     0.02555
 Rotational constants (GHZ):           1.18936     0.57598     0.53242
 Zero-point vibrational energy     665782.2 (Joules/Mol)
                                  159.12577 (Kcal/Mol)
 Warning -- explicit consideration of  19 degrees of freedom as
           vibrations may cause significant error
 Vibrational temperatures:     43.35    48.79    98.63   121.47   224.58
          (Kelvin)            270.87   295.81   304.46   367.40   409.44
                              452.85   500.08   517.58   563.68   669.36
                              711.20   743.86   759.23   809.42   899.86
                             1057.18  1090.11  1138.18  1164.50  1216.88
                             1234.85  1313.86  1324.28  1334.69  1357.14
                             1372.87  1411.33  1443.05  1461.48  1480.64
                             1534.56  1539.91  1547.03  1623.06  1639.18
                             1650.37  1681.73  1694.55  1782.99  1840.78
                             1866.82  1883.97  1911.92  1915.25  1971.47
                             2006.10  2043.52  2071.65  2082.26  2089.88
                             2172.47  2182.28  2183.41  2186.82  2194.23
                             2205.99  2221.50  2329.84  2384.95  2443.03
                             4369.30  4384.86  4392.30  4413.57  4469.72
                             4479.82  4507.37  4507.70  4542.87  4549.91
                             4553.65  4599.10  4602.07  4662.13  4950.83
                             5070.80

 Zero-point correction=                           0.253583 (Hartree/Particle)
 Thermal correction to Energy=                    0.266802
 Thermal correction to Enthalpy=                  0.267746
 Thermal correction to Gibbs Free Energy=         0.212935
 Sum of electronic and zero-point Energies=           -538.079465
 Sum of electronic and thermal Energies=              -538.066246
 Sum of electronic and thermal Enthalpies=            -538.065302
 Sum of electronic and thermal Free Energies=         -538.120113

                     E (Thermal)             CV                S
                      KCal/Mol        Cal/Mol-Kelvin    Cal/Mol-Kelvin
 Total                  167.421             49.986            115.360
 Electronic               0.000              0.000              0.000
 Translational            0.889              2.981             41.405
 Rotational               0.889              2.981             31.156
 Vibrational            165.643             44.024             42.799
 Vibration     1          0.594              1.984              5.821
 Vibration     2          0.594              1.983              5.587
 Vibration     3          0.598              1.969              4.195
 Vibration     4          0.601              1.960              3.785
 Vibration     5          0.620              1.896              2.597
 Vibration     6          0.633              1.856              2.245
 Vibration     7          0.640              1.832              2.082
 Vibration     8          0.643              1.823              2.030
 Vibration     9          0.666              1.754              1.693
 Vibration    10          0.683              1.702              1.506
 Vibration    11          0.702              1.646              1.337
 Vibration    12          0.725              1.580              1.177
 Vibration    13          0.734              1.555              1.123
 Vibration    14          0.759              1.488              0.993
 Vibration    15          0.823              1.327              0.751
 Vibration    16          0.850              1.263              0.673
 Vibration    17          0.872              1.212              0.617
 Vibration    18          0.883              1.189              0.592
 Vibration    19          0.918              1.112              0.519

                           ! Non-Optimized Parameters !
 Normal termination of Gaussian 16 at Wed Dec  9 23:42:33 2020.

 ----------------------------------------------------------------------
 # B3LYP/6-311++G(d,p) empiricaldispersion=gd3bj scf=xqc pop=npa geom=c
 heck
 ----------------------------------------------------------------------

 --------------------------------------
 CID_79333166_JID_3537_Energie_neutraal
 --------------------------------------
 Structure from the checkpoint file:  "JID_3537.chk"
 Charge =  0 Multiplicity = 1

 SCF Done:  E(RB3LYP) =  -538.481606031     A.U. after   16 cycles
 Normal termination of Gaussian 16 at Wed Dec  9 23:45:39 2020.

 ----------------------------------------------------------------------
 # B3LYP/6-311++G(d,p) empiricaldispersion=gd3bj scf=xqc pop=npa geom=c
 heck
 ----------------------------------------------------------------------

 ------------------------------------
 CID_79333166_JID_3537_Energie_kation
 ------------------------------------
 Structure from the checkpoint file:  "JID_3537.chk"
 Charge =  1 Multiplicity = 2

 SCF Done:  E(UB3LYP) =  -538.170664834     A.U. after   33 cycles
 SCF Done:  E(UB3LYP) =  -538.170664834     a.u. after    1 cycles
 Normal termination of Gaussian 16 at Wed Dec  9 23:54:08 2020.
 Gaussian 16:  ES64L-G16RevA.03 25-Dec-2016

 ----------------------------------------------------------------------
 # B3LYP/6-311++G(d,p) empiricaldispersion=gd3bj scf=xqc pop=npa geom=c
 heck
 ----------------------------------------------------------------------

 -----------------------------------
 CID_79333166_JID_3537_Energie_anion
 -----------------------------------
 Structure from the checkpoint file:  "JID_3537.chk"
 Charge = -1 Multiplicity = 2

                         Standard orientation:
 ---------------------------------------------------------------------
 Center     Atomic      Atomic             Coordinates (Angstroms)
 Number     Number       Type             X           Y           Z
 ---------------------------------------------------------------------
      1          6           0       -1.370077    2.409904    0.491074
      2          6           0       -2.219438    1.237493    0.991753
      3          6           0       -2.439440    0.083579    0.019267
      4          6           0       -2.020108    0.104714   -1.435418
      5          6           0       -1.327790   -0.820053   -0.468125
      6          6           0        0.082274   -0.559479   -0.021675
      7          7           0        0.368720   -0.983371    1.224744
      8          6           0        1.618843   -0.813334    1.662987
      9          6           0        2.636106   -0.230671    0.907855
     10          6           0        2.354072    0.199657   -0.391390
     11          6           0        1.046094    0.018364   -0.851910
     12          6           0        3.403449    0.852772   -1.253289
     13          7           0       -1.697061   -2.223707   -0.552677
     14          1           0       -0.351972    2.101450    0.235373
     15          1           0       -1.296404    3.181176    1.265825
     16          1           0       -1.816120    2.871585   -0.397177
     17          1           0       -1.773890    0.832865    1.910034
     18          1           0       -3.206147    1.626582    1.274333
     19          1           0       -3.350948   -0.479098    0.207056
     20          1           0       -2.680523   -0.352381   -2.165243
     21          1           0       -1.475315    0.973078   -1.793118
     22          1           0        1.822097   -1.163429    2.674051
     23          1           0        3.633249   -0.121733    1.325337
     24          1           0        0.772544    0.326267   -1.856894
     25          1           0        3.247002    0.626133   -2.312841
     26          1           0        3.369012    1.944506   -1.144657
     27          1           0        4.410528    0.527013   -0.974909
     28          1           0       -1.078727   -2.694154   -1.215048
     29          1           0       -1.509904   -2.647983    0.356629
 ---------------------------------------------------------------------

 SCF Done:  E(UB3LYP) =  -538.463883621     A.U. after   33 cycles
 SCF Done:  E(UB3LYP) =  -538.463883621     a.u. after    1 cycles

 The electronic state is 2-A.
 Alpha  occ. eigenvalues --  -14.18102 -14.15323 -10.08423 -10.07025 -10.06708
 Alpha  occ. eigenvalues --  -10.05572 -10.05423 -10.05208 -10.04743 -10.04318
 Alpha  occ. eigenvalues --  -10.03962 -10.03945 -10.03496  -0.81243  -0.78163
 Alpha  occ. eigenvalues --   -0.70904  -0.68452  -0.63439  -0.62419  -0.58516
 Alpha  occ. eigenvalues --   -0.52670  -0.51114  -0.47902  -0.45625  -0.41622
 Alpha  occ. eigenvalues --   -0.38676  -0.37246  -0.36071  -0.35027  -0.34157
 Alpha  occ. eigenvalues --   -0.32249  -0.31812  -0.30784  -0.29696  -0.27804
 Alpha  occ. eigenvalues --   -0.26733  -0.26036  -0.25711  -0.24284  -0.23402
 Alpha  occ. eigenvalues --   -0.23113  -0.21626  -0.18558  -0.16508  -0.14664
 Alpha  occ. eigenvalues --   -0.13722  -0.12012  -0.11870   0.05874
 Alpha virt. eigenvalues --    0.07175   0.08097   0.09050   0.09200   0.09528
 Alpha virt. eigenvalues --    0.10350   0.10675   0.11188   0.11244   0.11764
 Alpha virt. eigenvalues --    0.12441   0.13012   0.13470   0.14705   0.14963

  Beta  occ. eigenvalues --  -14.18082 -14.14944 -10.08428 -10.06962 -10.06675
  Beta  occ. eigenvalues --  -10.05569 -10.05451 -10.05200 -10.04732 -10.03998
  Beta  occ. eigenvalues --  -10.03978 -10.03897 -10.03464  -0.80936  -0.77926
  Beta  occ. eigenvalues --   -0.70866  -0.67909  -0.63377  -0.62258  -0.58362
  Beta  occ. eigenvalues --   -0.52617  -0.51026  -0.47571  -0.45557  -0.41456
  Beta  occ. eigenvalues --   -0.38587  -0.37169  -0.35969  -0.34917  -0.34046
  Beta  occ. eigenvalues --   -0.32162  -0.31740  -0.30351  -0.29657  -0.27751
  Beta  occ. eigenvalues --   -0.26679  -0.25620  -0.25284  -0.24058  -0.23309
  Beta  occ. eigenvalues --   -0.23016  -0.21575  -0.18458  -0.16367  -0.13782
  Beta  occ. eigenvalues --   -0.12936  -0.11636  -0.11405
  Beta virt. eigenvalues --    0.07475   0.08406   0.09003   0.09085   0.09890
  Beta virt. eigenvalues --    0.10437   0.10673   0.10831   0.11222   0.11938
  Beta virt. eigenvalues --    0.12312   0.12602   0.13219   0.13413   0.14719

 Mulliken charges and spin densities:
               1          2
     1  C    0.774770  -1.367500
     2  C   -1.037027   0.703196
     3  C    0.660130  -0.331763
     4  C   -0.289330  -0.051177
     5  C   -0.403984  -0.300048
     6  C   -0.383890  -0.040649
     7  N    0.027309   0.143613
     8  C    0.097709   0.060923
     9  C   -1.120433   0.114096
    10  C    0.383134   0.230142
    11  C    0.173883   0.140154
    12  C   -0.137157  -0.336603
    13  N   -0.185539  -0.020748
    14  H    0.173100  -0.028802
    15  H   -0.528320   0.661900
    16  H   -0.202470   0.342719
    17  H    0.194492  -0.058052
    18  H   -0.423840   0.572512
    19  H    0.140866   0.066840
    20  H    0.145360   0.013941
    21  H    0.114170  -0.002951
    22  H    0.141427  -0.005174
    23  H    0.095205   0.026656
    24  H    0.171519   0.006153
    25  H    0.027183   0.101055
    26  H    0.046205   0.135653
    27  H   -0.035638   0.158625
    28  H    0.132265   0.075400
    29  H    0.248901  -0.010113
 Sum of Mulliken charges =  -1.00000   1.00000

 Dipole moment (field-independent basis, Debye):
    X=              1.5410    Y=             -3.6092    Z=             -1.8389  Tot=              4.3339
 Quadrupole moment (field-independent basis, Debye-Ang):
   XX=           -128.3531   YY=           -121.6231   ZZ=           -100.1996
   XY=              8.8399   XZ=              4.7824   YZ=             -6.0102

 Summary of Natural Population Analysis:

                                       Natural Population
                Natural  -----------------------------------------------
    Atom  No    Charge         Core      Valence    Rydberg      Total
 -----------------------------------------------------------------------
      C    1   -0.28815      0.99966     2.28259    0.00590     3.28815
      C    2   -0.19545      0.99962     2.18600    0.00983     3.19545
      C    3   -0.10155      0.99957     2.09030    0.01168     3.10155
      C    4   -0.19782      0.99957     2.18945    0.00881     3.19782
      C    5    0.04158      0.99940     1.94487    0.01415     2.95842
      C    6    0.10855      0.99949     1.87526    0.01670     2.89145
      N    7   -0.20834      0.99968     2.69816    0.01050     3.70834
      C    8    0.03355      0.99959     1.95185    0.01501     2.96645
      C    9   -0.13562      0.99951     2.12669    0.00943     3.13562
      C   10    0.05870      0.99952     1.93324    0.00854     2.94130
      C   11   -0.13324      0.99946     2.12534    0.00844     3.13324
      C   12   -0.29388      0.99964     2.28960    0.00463     3.29388
      N   13   -0.41825      0.99976     2.90899    0.00950     3.91825
      H   14    0.10378      0.00000     0.39496    0.00126     0.39622
      H   15    0.09919      0.00000     0.39923    0.00158     0.40081
      H   16    0.09276      0.00000     0.40592    0.00132     0.40724
      H   17    0.10329      0.00000     0.39531    0.00140     0.39671
      H   18    0.09424      0.00000     0.40457    0.00119     0.40576
      H   19    0.10400      0.00000     0.39484    0.00116     0.39600
      H   20    0.10202      0.00000     0.39707    0.00091     0.39798
      H   21    0.10363      0.00000     0.39553    0.00083     0.39637
      H   22    0.08077      0.00000     0.41825    0.00098     0.41923
      H   23    0.09463      0.00000     0.40458    0.00078     0.40537
      H   24    0.09778      0.00000     0.40139    0.00083     0.40222
      H   25    0.09894      0.00000     0.39996    0.00109     0.40106
      H   26    0.10502      0.00000     0.39398    0.00099     0.39498
      H   27    0.09819      0.00000     0.40072    0.00108     0.40181
      H   28    0.17127      0.00000     0.32747    0.00126     0.32873
      H   29    0.18057      0.00000     0.31810    0.00133     0.31943
 =======================================================================
   * Total *    0.00017     12.99446    34.85425    0.15112    47.99983

 Normal termination of Gaussian 16 at Thu Dec 10 00:02:53 2020.
