 Gaussian 16, Revision A.03,

 -----------------------------------------------------------
 # opt freq B3LYP/6-31G(d) empiricaldispersion=gd3bj scf=xqc
 -----------------------------------------------------------

 -----------------------------
 CID_13199248_JID_883_neutraal
 -----------------------------
 Symbolic Z-matrix:
 Charge =  0 Multiplicity = 1

 SCF Done:  E(RB3LYP) =  -478.520272868     A.U. after   15 cycles
 SCF Done:  E(RB3LYP) =  -478.538638843     A.U. after   13 cycles
 SCF Done:  E(RB3LYP) =  -478.541062238     A.U. after   13 cycles
 SCF Done:  E(RB3LYP) =  -478.540172625     A.U. after   13 cycles
 SCF Done:  E(RB3LYP) =  -478.540084774     A.U. after   12 cycles
 SCF Done:  E(RB3LYP) =  -478.538597953     A.U. after   12 cycles
 SCF Done:  E(RB3LYP) =  -478.541122247     A.U. after   10 cycles
 SCF Done:  E(RB3LYP) =  -478.542050711     A.U. after   12 cycles
 SCF Done:  E(RB3LYP) =  -478.542166453     A.U. after   11 cycles
 SCF Done:  E(RB3LYP) =  -478.542188104     A.U. after   11 cycles
 SCF Done:  E(RB3LYP) =  -478.542256862     A.U. after   10 cycles
 SCF Done:  E(RB3LYP) =  -478.542261713     A.U. after   10 cycles
 SCF Done:  E(RB3LYP) =  -478.542263795     A.U. after    9 cycles
 SCF Done:  E(RB3LYP) =  -478.542266635     A.U. after   10 cycles
 SCF Done:  E(RB3LYP) =  -478.542267660     A.U. after    9 cycles
 SCF Done:  E(RB3LYP) =  -478.542267815     A.U. after    8 cycles
 Optimization completed.
    -- Stationary point found.
 Normal termination of Gaussian 16 at Tue Dec  8 13:37:18 2020.

 --------------------------------------------------------------------
 #N Geom=AllCheck Guess=TCheck SCRF=Check GenChk RB3LYP/6-31G(d) Freq
 --------------------------------------------------------------------

 Structure from the checkpoint file:  "JID_883.chk"
 -----------------------------
 CID_13199248_JID_883_neutraal
 -----------------------------
 Charge =  0 Multiplicity = 1

 SCF Done:  E(RB3LYP) =  -478.542267815     A.U. after    1 cycles

  Exact polarizability: 111.159   7.768  76.297  -0.003  -0.000  59.322
 Approx polarizability: 148.663  11.228 114.359  -0.006  -0.002  79.831

                      1                      2                      3
                      A                      A                      A
 Frequencies --     39.8655                67.7030               118.7821
 Red. masses --      5.0587                 3.3118                 4.0998
 Frc consts  --      0.0047                 0.0089                 0.0341
 IR Inten    --      0.7064                 1.3669                 0.0743

                      4                      5                      6
                      A                      A                      A
 Frequencies --    122.7292               170.0877               187.0580
 Red. masses --      1.1985                 3.0223                 4.1415
 Frc consts  --      0.0106                 0.0515                 0.0854
 IR Inten    --      0.0218                 2.1612                 0.2706

                      7                      8                      9
                      A                      A                      A
 Frequencies --    189.2156               249.9237               268.4210
 Red. masses --      2.3935                 1.1557                 1.0915
 Frc consts  --      0.0505                 0.0425                 0.0463
 IR Inten    --      1.4828                 0.6154                 1.7718

                     10                     11                     12
                      A                      A                      A
 Frequencies --    304.7022               352.2494               381.2749
 Red. masses --      2.8277                 3.0606                 3.0543
 Frc consts  --      0.1547                 0.2237                 0.2616
 IR Inten    --      8.3821                 6.4804                 4.7685

                     13                     14                     15
                      A                      A                      A
 Frequencies --    391.3699               458.0452               458.6654
 Red. masses --      3.4264                 1.1852                 8.1406
 Frc consts  --      0.3092                 0.1465                 1.0090
 IR Inten    --     18.4809                56.7260                 4.3285

                     16                     17                     18
                      A                      A                      A
 Frequencies --    564.2850               579.4076               608.3442
 Red. masses --      4.0170                 4.5370                 1.1910
 Frc consts  --      0.7536                 0.8974                 0.2597
 IR Inten    --      0.9796                10.4318                50.0994

                     19                     20                     21
                      A                      A                      A
 Frequencies --    651.6386               714.3847               759.7793
 Red. masses --      1.2217                 5.9532                11.7898
 Frc consts  --      0.3057                 1.7901                 4.0099
 IR Inten    --     41.4081                 0.0497                31.2792

                     22                     23                     24
                      A                      A                      A
 Frequencies --    762.2272               868.6640               938.7511
 Red. masses --      3.8169                 3.4906                 2.3777
 Frc consts  --      1.3066                 1.5519                 1.2345
 IR Inten    --      6.6959                 3.7274                 5.5516

                     25                     26                     27
                      A                      A                      A
 Frequencies --    947.7483              1046.2614              1053.5114
 Red. masses --      1.6115                 1.2789                 2.2391
 Frc consts  --      0.8528                 0.8249                 1.4642
 IR Inten    --      0.0005                 0.3548                 9.1344

                     28                     29                     30
                      A                      A                      A
 Frequencies --   1117.8072              1188.5865              1190.8243
 Red. masses --      6.0355                 1.7979                 1.8212
 Frc consts  --      4.4432                 1.4965                 1.5216
 IR Inten    --    146.3245                10.6420                 3.7141

                     31                     32                     33
                      A                      A                      A
 Frequencies --   1218.0993              1228.7702              1263.0422
 Red. masses --      1.6006                 2.1394                 2.9089
 Frc consts  --      1.3992                 1.9032                 2.7341
 IR Inten    --     52.6604                46.7036                10.8182

                     34                     35                     36
                      A                      A                      A
 Frequencies --   1384.0517              1417.9417              1440.5438
 Red. masses --      3.4441                 1.2175                 1.2506
 Frc consts  --      3.8871                 1.4423                 1.5291
 IR Inten    --    424.3297                 6.6441                44.4960

                     37                     38                     39
                      A                      A                      A
 Frequencies --   1472.2759              1499.9246              1508.8845
 Red. masses --      1.4215                 1.2507                 1.0463
 Frc consts  --      1.8154                 1.6579                 1.4036
 IR Inten    --     28.5150                57.5440                 0.1645

                     40                     41                     42
                      A                      A                      A
 Frequencies --   1511.6335              1523.0118              1528.9043
 Red. masses --      1.0488                 1.0476                 1.0515
 Frc consts  --      1.4120                 1.4316                 1.4482
 IR Inten    --      4.8076                 0.4680                10.9666

                     43                     44                     45
                      A                      A                      A
 Frequencies --   1537.0755              1540.9883              1825.9540
 Red. masses --      1.1375                 1.0586                 8.9880
 Frc consts  --      1.5835                 1.4811                17.6560
 IR Inten    --     27.1700                 1.1707               518.8089

                     46                     47                     48
                      A                      A                      A
 Frequencies --   2243.7051              3071.9413              3076.1203
 Red. masses --      5.9395                 1.0347                 1.0342
 Frc consts  --     17.6170                 5.7530                 5.7660
 IR Inten    --      0.1740                19.2062                20.2348

                     49                     50                     51
                      A                      A                      A
 Frequencies --   3076.8514              3144.1126              3147.7171
 Red. masses --      1.0299                 1.1035                 1.1036
 Frc consts  --      5.7449                 6.4273                 6.4423
 IR Inten    --     32.7728                10.2339                29.7351

                     52                     53                     54
                      A                      A                      A
 Frequencies --   3152.5327              3169.3097              3172.2348
 Red. masses --      1.1078                 1.1029                 1.1023
 Frc consts  --      6.4866                 6.5272                 6.5353
 IR Inten    --     21.9503                 2.2059                19.9759

                     55                     56                     57
                      A                      A                      A
 Frequencies --   3177.7042              3495.3598              3652.8398
 Red. masses --      1.1074                 1.1613                 1.0775
 Frc consts  --      6.5886                 8.3597                 8.4713
 IR Inten    --     17.2514                62.4522                46.7237

 - Thermochemistry -
 -------------------
 Temperature   298.150 Kelvin.  Pressure   1.00000 Atm.
 Atom     1 has atomic number  6 and mass  12.00000

 Molecular mass:   141.07898 amu.
 Principal axes and moments of inertia in atomic units:
                           1         2         3
     Eigenvalues --   695.175172229.670122521.04353
           X            0.99992   0.01274   0.00001
           Y           -0.01274   0.99992   0.00000
           Z           -0.00001  -0.00000   1.00000
 This molecule is an asymmetric top.
 Rotational symmetry number  1.
 Warning -- assumption of classical behavior for rotation
           may cause significant error
 Rotational temperatures (Kelvin)      0.12459     0.03885     0.03436
 Rotational constants (GHZ):           2.59610     0.80942     0.71587
 Zero-point vibrational energy     455979.6 (Joules/Mol)
                                  108.98175 (Kcal/Mol)
 Warning -- explicit consideration of  18 degrees of freedom as
           vibrations may cause significant error
 Vibrational temperatures:     57.36    97.41   170.90   176.58   244.72
          (Kelvin)            269.13   272.24   359.58   386.20   438.40
                              506.81   548.57   563.09   659.02   659.92
                              811.88   833.64   875.27   937.56  1027.84
                             1093.15  1096.67  1249.81  1350.65  1363.60
                             1505.34  1515.77  1608.28  1710.11  1713.33
                             1752.57  1767.93  1817.24  1991.34  2040.10
                             2072.62  2118.28  2158.06  2170.95  2174.90
                             2191.27  2199.75  2211.51  2217.14  2627.14
                             3228.19  4419.84  4425.85  4426.90  4523.68
                             4528.86  4535.79  4559.93  4564.14  4572.01
                             5029.04  5255.62

 Zero-point correction=                           0.173673 (Hartree/Particle)
 Thermal correction to Energy=                    0.185504
 Thermal correction to Enthalpy=                  0.186448
 Thermal correction to Gibbs Free Energy=         0.136058
 Sum of electronic and zero-point Energies=           -478.368594
 Sum of electronic and thermal Energies=              -478.356764
 Sum of electronic and thermal Enthalpies=            -478.355819
 Sum of electronic and thermal Free Energies=         -478.406209

                     E (Thermal)             CV                S
                      KCal/Mol        Cal/Mol-Kelvin    Cal/Mol-Kelvin
 Total                  116.406             42.360            106.055
 Electronic               0.000              0.000              0.000
 Translational            0.889              2.981             40.744
 Rotational               0.889              2.981             29.748
 Vibrational            114.628             36.399             35.563
 Vibration     1          0.594              1.981              5.266
 Vibration     2          0.598              1.970              4.219
 Vibration     3          0.609              1.934              3.120
 Vibration     4          0.610              1.930              3.057
 Vibration     5          0.625              1.879              2.435
 Vibration     6          0.632              1.858              2.257
 Vibration     7          0.633              1.855              2.235
 Vibration     8          0.663              1.763              1.731
 Vibration     9          0.673              1.731              1.606
 Vibration    10          0.696              1.665              1.391
 Vibration    11          0.729              1.571              1.156
 Vibration    12          0.751              1.510              1.034
 Vibration    13          0.759              1.489              0.995
 Vibration    14          0.816              1.343              0.772
 Vibration    15          0.817              1.342              0.770
 Vibration    16          0.920              1.109              0.515
 Vibration    17          0.936              1.076              0.486
 Vibration    18          0.967              1.014              0.436

 Optimization completed.
    -- Stationary point found.
 Normal termination of Gaussian 16 at Tue Dec  8 13:41:54 2020.

 ----------------------------------------------------------------------
 # B3LYP/6-311++G(d,p) empiricaldispersion=gd3bj scf=xqc pop=npa geom=c
 heck
 ----------------------------------------------------------------------

 -------------------------------------
 CID_13199248_JID_883_Energie_neutraal
 -------------------------------------
 Structure from the checkpoint file:  "JID_883.chk"
 Charge =  0 Multiplicity = 1

 SCF Done:  E(RB3LYP) =  -478.691058312     A.U. after   14 cycles
 Normal termination of Gaussian 16 at Tue Dec  8 13:44:29 2020.

 ----------------------------------------------------------------------
 # B3LYP/6-311++G(d,p) empiricaldispersion=gd3bj scf=xqc pop=npa geom=c
 heck
 ----------------------------------------------------------------------

 -----------------------------------
 CID_13199248_JID_883_Energie_kation
 -----------------------------------
 Structure from the checkpoint file:  "JID_883.chk"
 Charge =  1 Multiplicity = 2

 SCF Done:  E(UB3LYP) =  -478.352071105     A.U. after   21 cycles
 Normal termination of Gaussian 16 at Tue Dec  8 13:49:20 2020.
 Gaussian 16:  ES64L-G16RevA.03 25-Dec-2016

 ----------------------------------------------------------------------
 # B3LYP/6-311++G(d,p) empiricaldispersion=gd3bj scf=xqc pop=npa geom=c
 heck
 ----------------------------------------------------------------------

 ----------------------------------
 CID_13199248_JID_883_Energie_anion
 ----------------------------------
 Structure from the checkpoint file:  "JID_883.chk"
 Charge = -1 Multiplicity = 2

                         Standard orientation:
 ---------------------------------------------------------------------
 Center     Atomic      Atomic             Coordinates (Angstroms)
 Number     Number       Type             X           Y           Z
 ---------------------------------------------------------------------
      1          6           0        0.977408   -1.170436   -1.271980
      2          6           0        1.115407   -0.305654    0.000049
      3          6           0        0.977723   -1.170284    1.272196
      4          6           0        2.440457    0.335208   -0.000124
      5          6           0        3.528562    0.856176   -0.000291
      6          7           0        0.131742    0.801077   -0.000009
      7          6           0       -1.231279    0.749570    0.000094
      8          8           0       -1.949699    1.732936    0.000104
      9          8           0       -1.700919   -0.528733    0.000219
     10          6           0       -3.130878   -0.629956   -0.000271
     11          1           0        1.751179   -1.943745   -1.282343
     12          1           0        1.091852   -0.547931   -2.163451
     13          1           0       -0.004794   -1.645922   -1.290349
     14          1           0        1.751827   -1.943261    1.282682
     15          1           0        1.091935   -0.547605    2.163582
     16          1           0       -0.004286   -1.646156    1.290706
     17          1           0        4.493188    1.310720   -0.000432
     18          1           0        0.495087    1.742390    0.000235
     19          1           0       -3.551914   -0.154077    0.888852
     20          1           0       -3.551324   -0.153834   -0.889548
     21          1           0       -3.344410   -1.699483   -0.000494
 ---------------------------------------------------------------------

 SCF Done:  E(UB3LYP) =  -478.675211022     A.U. after   29 cycles

 The electronic state is 2-A.
 Alpha  occ. eigenvalues --  -19.06806 -18.99872 -14.24322 -10.22332 -10.15703
 Alpha  occ. eigenvalues --  -10.12385 -10.08307 -10.07534 -10.06714 -10.06713
 Alpha  occ. eigenvalues --   -1.01293  -0.91965  -0.84284  -0.71388  -0.64641
 Alpha  occ. eigenvalues --   -0.62836  -0.59969  -0.54706  -0.48608  -0.45719
 Alpha  occ. eigenvalues --   -0.43018  -0.41535  -0.39156  -0.36572  -0.35411
 Alpha  occ. eigenvalues --   -0.34653  -0.33727  -0.31014  -0.29988  -0.29320
 Alpha  occ. eigenvalues --   -0.27859  -0.26485  -0.25866  -0.20961  -0.19979
 Alpha  occ. eigenvalues --   -0.18743  -0.18304  -0.16510   0.04500
 Alpha virt. eigenvalues --    0.06115   0.07938   0.08584   0.09047   0.09822
 Alpha virt. eigenvalues --    0.10802   0.11047   0.11254   0.11446   0.12337
 Alpha virt. eigenvalues --    0.12464   0.13959   0.14268   0.14430   0.16078

  Beta  occ. eigenvalues --  -19.06798 -18.99867 -14.24314 -10.22333 -10.15698
  Beta  occ. eigenvalues --  -10.12341 -10.08311 -10.07497 -10.06685 -10.06684
  Beta  occ. eigenvalues --   -1.01282  -0.91954  -0.84269  -0.71372  -0.64612
  Beta  occ. eigenvalues --   -0.62776  -0.59917  -0.54656  -0.48555  -0.45670
  Beta  occ. eigenvalues --   -0.42990  -0.41478  -0.39133  -0.36529  -0.35380
  Beta  occ. eigenvalues --   -0.34619  -0.33687  -0.30987  -0.29951  -0.29292
  Beta  occ. eigenvalues --   -0.27825  -0.26456  -0.25830  -0.20944  -0.19959
  Beta  occ. eigenvalues --   -0.18721  -0.18287  -0.16495
  Beta virt. eigenvalues --    0.06850   0.07534   0.08807   0.09076   0.09601
  Beta virt. eigenvalues --    0.10461   0.11089   0.11270   0.11549   0.11703
  Beta virt. eigenvalues --    0.12668   0.12720   0.14003   0.14628   0.14773

 Mulliken charges and spin densities:
               1          2
     1  C    1.204372  -1.714245
     2  C   -2.807689   2.708578
     3  C    1.204847  -1.714794
     4  C    4.179635  -3.957737
     5  C   -2.054460   1.748707
     6  N   -0.154251  -0.195948
     7  C    0.230463   0.040289
     8  O   -0.325247   0.007649
     9  O   -0.198439   0.070408
    10  C    0.920999  -1.164106
    11  H   -0.148835   0.293372
    12  H   -0.124839   0.283291
    13  H   -0.115824   0.288050
    14  H   -0.148538   0.293075
    15  H   -0.124894   0.283357
    16  H   -0.116060   0.288305
    17  H   -1.808716   1.997494
    18  H    0.298236   0.039053
    19  H   -0.172620   0.345710
    20  H   -0.172545   0.345637
    21  H   -0.565593   0.713856
 Sum of Mulliken charges =  -1.00000   1.00000

 Dipole moment (field-independent basis, Debye):
    X=             -3.1465    Y=              0.4371    Z=              0.0009  Tot=              3.1767
 Quadrupole moment (field-independent basis, Debye-Ang):
   XX=           -144.7307   YY=           -102.0324   ZZ=            -89.2979
   XY=            -10.1643   XZ=              0.0022   YZ=             -0.0004

 Summary of Natural Population Analysis:

                                       Natural Population
                Natural  -----------------------------------------------
    Atom  No    Charge         Core      Valence    Rydberg      Total
 -----------------------------------------------------------------------
      C    1   -0.28057      0.99963     2.27407    0.00687     3.28057
      C    2    0.02265      0.99952     1.96322    0.01461     2.97735
      C    3   -0.28057      0.99963     2.27407    0.00687     3.28057
      C    4   -0.01135      0.99936     1.99990    0.01210     3.01135
      C    5   -0.09751      0.99926     2.09405    0.00420     3.09751
      N    6   -0.32851      0.99965     2.81730    0.01156     3.82851
      C    7    0.46584      0.99968     1.51053    0.02394     2.53416
      O    8   -0.33267      0.99987     3.32712    0.00568     4.33267
      O    9   -0.28991      0.99987     3.28088    0.00917     4.28991
      C   10   -0.09968      0.99959     2.09098    0.00910     3.09968
      H   11    0.10376      0.00000     0.39495    0.00129     0.39624
      H   12    0.10354      0.00000     0.39518    0.00128     0.39646
      H   13    0.11075      0.00000     0.38756    0.00169     0.38925
      H   14    0.10377      0.00000     0.39494    0.00129     0.39623
      H   15    0.10354      0.00000     0.39519    0.00128     0.39646
      H   16    0.11075      0.00000     0.38757    0.00169     0.38925
      H   17    0.11546      0.00000     0.37964    0.00490     0.38454
      H   18    0.20497      0.00000     0.29329    0.00174     0.29503
      H   19    0.09068      0.00000     0.40813    0.00119     0.40932
      H   20    0.09068      0.00000     0.40813    0.00119     0.40932
      H   21    0.09439      0.00000     0.40347    0.00215     0.40561
 =======================================================================
   * Total *    0.00000      9.99605    27.88017    0.12379    38.00000

 Normal termination of Gaussian 16 at Tue Dec  8 13:54:23 2020.
