 Gaussian 16, Revision A.03,

 -----------------------------------------------------------
 # opt freq B3LYP/6-31G(d) empiricaldispersion=gd3bj scf=xqc
 -----------------------------------------------------------

 -------------------------------
 CID_63748670_JID_10628_neutraal
 -------------------------------
 Symbolic Z-matrix:
 Charge =  0 Multiplicity = 1

 SCF Done:  E(RB3LYP) =  -892.725231397     A.U. after   15 cycles
 SCF Done:  E(RB3LYP) =  -892.730724551     A.U. after   13 cycles
 SCF Done:  E(RB3LYP) =  -892.731910168     A.U. after   13 cycles
 SCF Done:  E(RB3LYP) =  -892.732442332     A.U. after   13 cycles
 SCF Done:  E(RB3LYP) =  -892.732911575     A.U. after   14 cycles
 SCF Done:  E(RB3LYP) =  -892.733121511     A.U. after   12 cycles
 SCF Done:  E(RB3LYP) =  -892.733087915     A.U. after   12 cycles
 SCF Done:  E(RB3LYP) =  -892.733198014     A.U. after   12 cycles
 SCF Done:  E(RB3LYP) =  -892.733228717     A.U. after   11 cycles
 SCF Done:  E(RB3LYP) =  -892.733233502     A.U. after   11 cycles
 SCF Done:  E(RB3LYP) =  -892.733237855     A.U. after   10 cycles
 SCF Done:  E(RB3LYP) =  -892.733238508     A.U. after   10 cycles
 SCF Done:  E(RB3LYP) =  -892.733238743     A.U. after    7 cycles
 SCF Done:  E(RB3LYP) =  -892.733239053     A.U. after    8 cycles
 SCF Done:  E(RB3LYP) =  -892.733239129     A.U. after    7 cycles
 Optimization completed.
    -- Stationary point found.
 Normal termination of Gaussian 16 at Sun Dec 13 20:46:06 2020.

 --------------------------------------------------------------------
 #N Geom=AllCheck Guess=TCheck SCRF=Check GenChk RB3LYP/6-31G(d) Freq
 --------------------------------------------------------------------

 Structure from the checkpoint file:  "JID_10628.chk"
 -------------------------------
 CID_63748670_JID_10628_neutraal
 -------------------------------
 Charge =  0 Multiplicity = 1

 SCF Done:  E(RB3LYP) =  -892.733239129     A.U. after    2 cycles

  Exact polarizability: 310.231   1.619 156.992  19.892  -8.519 107.908
 Approx polarizability: 415.541  13.379 269.793  35.857 -24.815 165.749

                      1                      2                      3
                      A                      A                      A
 Frequencies --     14.6718                27.1903                33.4712
 Red. masses --      6.1696                 3.5496                 4.1971
 Frc consts  --      0.0008                 0.0015                 0.0028
 IR Inten    --      0.4654                 0.5284                 0.5444

                      4                      5                      6
                      A                      A                      A
 Frequencies --     36.0396                59.3033                73.6883
 Red. masses --      4.5910                 7.2873                 3.6738
 Frc consts  --      0.0035                 0.0151                 0.0118
 IR Inten    --      0.9457                 2.7932                 1.3078

                      7                      8                      9
                      A                      A                      A
 Frequencies --     95.4957               106.6783               142.2060
 Red. masses --      6.3532                 3.6134                 4.1222
 Frc consts  --      0.0341                 0.0242                 0.0491
 IR Inten    --      1.7606                 1.3051                 2.4584

                     10                     11                     12
                      A                      A                      A
 Frequencies --    151.2704               176.8224               207.3085
 Red. masses --      3.1901                 4.0723                 2.5962
 Frc consts  --      0.0430                 0.0750                 0.0657
 IR Inten    --      2.6369                 4.2966                 0.7091

                     13                     14                     15
                      A                      A                      A
 Frequencies --    228.0047               245.5626               285.6005
 Red. masses --      2.3511                 2.5099                 4.7990
 Frc consts  --      0.0720                 0.0892                 0.2306
 IR Inten    --      2.4243                 1.0344                 0.5222

                     16                     17                     18
                      A                      A                      A
 Frequencies --    296.8403               314.4188               335.1598
 Red. masses --      5.6736                 1.6780                 3.0164
 Frc consts  --      0.2945                 0.0977                 0.1996
 IR Inten    --      0.4687                 0.8399                 1.0840

                     19                     20                     21
                      A                      A                      A
 Frequencies --    341.7929               399.5889               409.4996
 Red. masses --      2.5099                 3.0200                 3.6995
 Frc consts  --      0.1728                 0.2841                 0.3655
 IR Inten    --      3.5996                 1.5744                 4.1552

                     22                     23                     24
                      A                      A                      A
 Frequencies --    466.7357               477.5631               487.3700
 Red. masses --      2.5817                 5.8012                 4.5329
 Frc consts  --      0.3314                 0.7795                 0.6344
 IR Inten    --      0.3175                 2.7657                 0.4460

                     25                     26                     27
                      A                      A                      A
 Frequencies --    553.2759               570.2126               578.5105
 Red. masses --      6.5323                 4.9805                 4.3134
 Frc consts  --      1.1781                 0.9541                 0.8505
 IR Inten    --      2.0525                 4.0584                 4.7115

                     28                     29                     30
                      A                      A                      A
 Frequencies --    587.8592               656.7383               680.8582
 Red. masses --      3.6765                 7.8951                 5.1808
 Frc consts  --      0.7486                 2.0063                 1.4150
 IR Inten    --      4.1987                 2.3932                 5.2778

                     31                     32                     33
                      A                      A                      A
 Frequencies --    708.0773               734.6386               747.4031
 Red. masses --      5.7698                 1.9964                 1.5710
 Frc consts  --      1.7044                 0.6348                 0.5171
 IR Inten    --     11.4966                 9.7136                36.5272

                     34                     35                     36
                      A                      A                      A
 Frequencies --    781.5752               789.3268               805.7100
 Red. masses --      2.9418                 2.1359                 1.6797
 Frc consts  --      1.0588                 0.7840                 0.6425
 IR Inten    --     12.2400                18.3958                12.7017

                     37                     38                     39
                      A                      A                      A
 Frequencies --    819.8194               858.0226               870.8597
 Red. masses --      7.5150                 2.5408                 1.5313
 Frc consts  --      2.9759                 1.1021                 0.6842
 IR Inten    --      8.2360                11.9422                20.4276

                     40                     41                     42
                      A                      A                      A
 Frequencies --    896.9145               925.3000               948.9818
 Red. masses --      2.4123                 1.3394                 1.7552
 Frc consts  --      1.1433                 0.6756                 0.9313
 IR Inten    --     11.2887                 1.4072                14.4812

                     43                     44                     45
                      A                      A                      A
 Frequencies --    962.2601               981.7124               995.4427
 Red. masses --      1.4075                 8.7669                 1.3313
 Frc consts  --      0.7679                 4.9781                 0.7772
 IR Inten    --      2.6403                 7.3416                 0.1466

                     46                     47                     48
                      A                      A                      A
 Frequencies --   1001.7777              1005.7577              1034.0688
 Red. masses --      3.5939                 2.4604                 2.5669
 Frc consts  --      2.1250                 1.4664                 1.6172
 IR Inten    --      1.1088                 4.6577                16.6359

                     49                     50                     51
                      A                      A                      A
 Frequencies --   1043.3264              1067.9645              1075.8945
 Red. masses --      3.4532                 2.7678                 2.7947
 Frc consts  --      2.2147                 1.8599                 1.9060
 IR Inten    --     10.0366                54.8130                 3.8142

                     52                     53                     54
                      A                      A                      A
 Frequencies --   1083.2385              1125.7418              1159.1667
 Red. masses --      2.4278                 6.1059                 1.5868
 Frc consts  --      1.6784                 4.5591                 1.2562
 IR Inten    --      6.9183                28.1298                13.5089

                     55                     56                     57
                      A                      A                      A
 Frequencies --   1163.6326              1169.1629              1175.1232
 Red. masses --      2.0618                 1.7425                 1.3812
 Frc consts  --      1.6448                 1.4034                 1.1238
 IR Inten    --     11.6734                11.5781                 0.9843

                     58                     59                     60
                      A                      A                      A
 Frequencies --   1209.0225              1241.4102              1244.5134
 Red. masses --      2.1563                 3.6277                 1.3422
 Frc consts  --      1.8570                 3.2940                 1.2248
 IR Inten    --     25.4260                 0.4185                 3.0213

                     61                     62                     63
                      A                      A                      A
 Frequencies --   1277.4548              1292.3647              1307.1894
 Red. masses --      1.9311                 1.5277                 3.4984
 Frc consts  --      1.8567                 1.5033                 3.5220
 IR Inten    --     11.5802                 6.0292                12.0769

                     64                     65                     66
                      A                      A                      A
 Frequencies --   1311.0081              1337.8896              1344.7629
 Red. masses --      1.5520                 1.5800                 1.2707
 Frc consts  --      1.5716                 1.6663                 1.3539
 IR Inten    --      3.9657                 0.8868                 9.8199

                     67                     68                     69
                      A                      A                      A
 Frequencies --   1372.6315              1381.2347              1389.5318
 Red. masses --      1.3815                 1.5675                 1.4130
 Frc consts  --      1.5336                 1.7619                 1.6074
 IR Inten    --      1.9217                16.2634                 5.7266

                     70                     71                     72
                      A                      A                      A
 Frequencies --   1411.2568              1418.7400              1423.8933
 Red. masses --      1.6361                 1.8814                 1.3578
 Frc consts  --      1.9199                 2.2312                 1.6219
 IR Inten    --      4.1216                11.5514                 0.7834

                     73                     74                     75
                      A                      A                      A
 Frequencies --   1427.1715              1449.6019              1502.0979
 Red. masses --      2.9428                 1.2538                 1.0960
 Frc consts  --      3.5316                 1.5523                 1.4570
 IR Inten    --     32.2980                 7.8807                 6.6416

                     76                     77                     78
                      A                      A                      A
 Frequencies --   1510.3276              1511.6045              1517.3870
 Red. masses --      1.0844                 1.0882                 1.1100
 Frc consts  --      1.4574                 1.4650                 1.5058
 IR Inten    --      3.2365                11.4654                 1.4498

                     79                     80                     81
                      A                      A                      A
 Frequencies --   1524.8139              1527.8678              1535.6780
 Red. masses --      1.1215                 2.4623                 1.0798
 Frc consts  --      1.5363                 3.3866                 1.5004
 IR Inten    --     18.8509                39.0090                26.2582

                     82                     83                     84
                      A                      A                      A
 Frequencies --   1551.6459              1558.1716              1573.4037
 Red. masses --      1.0868                 1.1349                 7.9544
 Frc consts  --      1.5416                 1.6234                11.6021
 IR Inten    --     11.1984                47.9251                21.3780

                     85                     86                     87
                      A                      A                      A
 Frequencies --   1604.0542              1625.8783              1651.4895
 Red. masses --      8.0351                 7.8259                 5.9297
 Frc consts  --     12.1809                12.1888                 9.5288
 IR Inten    --     90.7647                20.4063                68.3427

                     88                     89                     90
                      A                      A                      A
 Frequencies --   2353.1168              2907.8507              3035.5999
 Red. masses --     12.6773                 1.0736                 1.0728
 Frc consts  --     41.3585                 5.3485                 5.8246
 IR Inten    --     30.2775                76.4574                 8.6708

                     91                     92                     93
                      A                      A                      A
 Frequencies --   3037.0729              3041.6188              3051.7603
 Red. masses --      1.0664                 1.0395                 1.0683
 Frc consts  --      5.7953                 5.6660                 5.8619
 IR Inten    --     46.9107                18.1824                78.1633

                     94                     95                     96
                      A                      A                      A
 Frequencies --   3055.5750              3074.5800              3078.6937
 Red. masses --      1.0616                 1.1029                 1.0655
 Frc consts  --      5.8396                 6.1427                 5.9504
 IR Inten    --     33.9381                30.2640                11.0343

                     97                     98                     99
                      A                      A                      A
 Frequencies --   3083.5375              3100.5563              3108.7221
 Red. masses --      1.1004                 1.1025                 1.1003
 Frc consts  --      6.1646                 6.2444                 6.2652
 IR Inten    --      8.8398                56.9438                52.3297

                    100                    101                    102
                      A                      A                      A
 Frequencies --   3119.3701              3136.2050              3198.8739
 Red. masses --      1.1023                 1.1000                 1.0922
 Frc consts  --      6.3195                 6.3748                 6.5846
 IR Inten    --     51.1926                 8.0747                 9.5080

                    103                    104                    105
                      A                      A                      A
 Frequencies --   3223.6498              3241.9980              3524.1075
 Red. masses --      1.0905                 1.0950                 1.0742
 Frc consts  --      6.6767                 6.7811                 7.8600
 IR Inten    --      2.1962                 0.7012                15.8552

 - Thermochemistry -
 -------------------
 Temperature   298.150 Kelvin.  Pressure   1.00000 Atm.
 Atom     1 has atomic number  6 and mass  12.00000

 Molecular mass:   271.14331 amu.
 Principal axes and moments of inertia in atomic units:
                           1         2         3
     Eigenvalues --  1637.43257********************
           X            0.99999   0.00332  -0.00132
           Y           -0.00332   0.99999   0.00129
           Z            0.00132  -0.00129   1.00000
 This molecule is an asymmetric top.
 Rotational symmetry number  1.
 Warning -- assumption of classical behavior for rotation
           may cause significant error
 Rotational temperatures (Kelvin)      0.05290     0.00564     0.00539
 Rotational constants (GHZ):           1.10218     0.11756     0.11240
 Zero-point vibrational energy     797775.3 (Joules/Mol)
                                  190.67288 (Kcal/Mol)
 Warning -- explicit consideration of  28 degrees of freedom as
           vibrations may cause significant error
 Vibrational temperatures:     21.11    39.12    48.16    51.85    85.32
          (Kelvin)            106.02   137.40   153.49   204.60   217.64
                              254.41   298.27   328.05   353.31   410.92
                              427.09   452.38   482.22   491.76   574.92
                              589.18   671.53   687.11   701.22   796.04
                              820.41   832.35   845.80   944.90   979.60
                             1018.77  1056.98  1075.35  1124.51  1135.67
                             1159.24  1179.54  1234.50  1252.97  1290.46
                             1331.30  1365.37  1384.48  1412.47  1432.22
                             1441.33  1447.06  1487.79  1501.11  1536.56
                             1547.97  1558.54  1619.69  1667.78  1674.21
                             1682.16  1690.74  1739.51  1786.11  1790.58
                             1837.97  1859.42  1880.75  1886.25  1924.92
                             1934.81  1974.91  1987.29  1999.23  2030.48
                             2041.25  2048.66  2053.38  2085.65  2161.18
                             2173.02  2174.86  2183.18  2193.87  2198.26
                             2209.50  2232.47  2241.86  2263.78  2307.88
                             2339.28  2376.13  3385.61  4183.75  4367.55
                             4369.67  4376.21  4390.80  4396.29  4423.63
                             4429.55  4436.52  4461.01  4472.76  4488.08
                             4512.30  4602.47  4638.11  4664.51  5070.40

 Zero-point correction=                           0.303857 (Hartree/Particle)
 Thermal correction to Energy=                    0.322592
 Thermal correction to Enthalpy=                  0.323536
 Thermal correction to Gibbs Free Energy=         0.253331
 Sum of electronic and zero-point Energies=           -892.429383
 Sum of electronic and thermal Energies=              -892.410647
 Sum of electronic and thermal Enthalpies=            -892.409703
 Sum of electronic and thermal Free Energies=         -892.479908

                     E (Thermal)             CV                S
                      KCal/Mol        Cal/Mol-Kelvin    Cal/Mol-Kelvin
 Total                  202.429             69.193            147.758
 Electronic               0.000              0.000              0.000
 Translational            0.889              2.981             42.691
 Rotational               0.889              2.981             34.356
 Vibrational            200.652             63.232             70.711
 Vibration     1          0.593              1.986              7.249
 Vibration     2          0.593              1.984              6.025
 Vibration     3          0.594              1.983              5.612
 Vibration     4          0.594              1.982              5.466
 Vibration     5          0.597              1.974              4.480
 Vibration     6          0.599              1.966              4.052
 Vibration     7          0.603              1.952              3.544
 Vibration     8          0.606              1.944              3.328
 Vibration     9          0.616              1.911              2.774
 Vibration    10          0.619              1.901              2.656
 Vibration    11          0.628              1.871              2.362
 Vibration    12          0.641              1.829              2.067
 Vibration    13          0.651              1.798              1.895
 Vibration    14          0.660              1.770              1.762
 Vibration    15          0.683              1.700              1.500
 Vibration    16          0.690              1.680              1.435
 Vibration    17          0.702              1.646              1.339
 Vibration    18          0.716              1.605              1.235
 Vibration    19          0.721              1.592              1.204
 Vibration    20          0.766              1.471              0.964
 Vibration    21          0.774              1.450              0.928
 Vibration    22          0.824              1.324              0.747
 Vibration    23          0.834              1.300              0.717
 Vibration    24          0.843              1.278              0.690
 Vibration    25          0.909              1.133              0.537
 Vibration    26          0.926              1.096              0.504
 Vibration    27          0.935              1.078              0.488
 Vibration    28          0.945              1.058              0.471

                           ! Non-Optimized Parameters !
 Normal termination of Gaussian 16 at Sun Dec 13 21:01:37 2020.

 ----------------------------------------------------------------------
 # B3LYP/6-311++G(d,p) empiricaldispersion=gd3bj scf=xqc pop=npa geom=c
 heck
 ----------------------------------------------------------------------

 ---------------------------------------
 CID_63748670_JID_10628_Energie_neutraal
 ---------------------------------------
 Structure from the checkpoint file:  "JID_10628.chk"
 Charge =  0 Multiplicity = 1

 SCF Done:  E(RB3LYP) =  -892.970249003     A.U. after   15 cycles
 Normal termination of Gaussian 16 at Sun Dec 13 21:07:59 2020.

 ----------------------------------------------------------------------
 # B3LYP/6-311++G(d,p) empiricaldispersion=gd3bj scf=xqc pop=npa geom=c
 heck
 ----------------------------------------------------------------------

 -------------------------------------
 CID_63748670_JID_10628_Energie_kation
 -------------------------------------
 Structure from the checkpoint file:  "JID_10628.chk"
 Charge =  1 Multiplicity = 2

 SCF Done:  E(UB3LYP) =  -892.670443098     A.U. after   26 cycles
 Normal termination of Gaussian 16 at Sun Dec 13 21:22:08 2020.
 Gaussian 16:  ES64L-G16RevA.03 25-Dec-2016

 ----------------------------------------------------------------------
 # B3LYP/6-311++G(d,p) empiricaldispersion=gd3bj scf=xqc pop=npa geom=c
 heck
 ----------------------------------------------------------------------

 ------------------------------------
 CID_63748670_JID_10628_Energie_anion
 ------------------------------------
 Structure from the checkpoint file:  "JID_10628.chk"
 Charge = -1 Multiplicity = 2

                         Standard orientation:
 ---------------------------------------------------------------------
 Center     Atomic      Atomic             Coordinates (Angstroms)
 Number     Number       Type             X           Y           Z
 ---------------------------------------------------------------------
      1          6           0        5.254055    1.889295    0.583874
      2          6           0        5.829923    0.982783   -0.510545
      3          6           0        5.083313   -0.345627   -0.652623
      4          7           0        3.743682   -0.138745   -1.185090
      5          6           0        2.906974   -1.323583   -1.279606
      6          6           0        2.647647   -2.107110    0.028760
      7          6           0        2.241198   -1.200236    1.211676
      8          6           0        1.135137   -0.269835    0.871507
      9          7           0        1.210356    0.990981    0.560955
     10          7           0       -0.079078    1.412901    0.245148
     11          6           0       -0.846213    0.373583    0.384583
     12          8           0       -0.142451   -0.737168    0.779896
     13          6           0       -2.288832    0.242397    0.188159
     14          7           0       -2.942113    1.352031   -0.197804
     15          6           0       -4.252262    1.266724   -0.386571
     16          6           0       -4.986250    0.078614   -0.203269
     17          6           0       -4.295245   -1.072541    0.199148
     18          6           0       -2.924625   -0.990644    0.398212
     19          6           0       -6.398001    0.058389   -0.424351
     20          7           0       -7.546807    0.046000   -0.605113
     21          1           0        4.216996    2.180551    0.382812
     22          1           0        5.837453    2.811608    0.677882
     23          1           0        5.273428    1.384019    1.558343
     24          1           0        5.807208    1.499657   -1.477630
     25          1           0        6.882074    0.767779   -0.284328
     26          1           0        5.622110   -1.002977   -1.349139
     27          1           0        5.099531   -0.859696    0.330208
     28          1           0        3.252875    0.590281   -0.673632
     29          1           0        1.945140   -1.006315   -1.701163
     30          1           0        3.352990   -2.012224   -2.009725
     31          1           0        1.863574   -2.852645   -0.153244
     32          1           0        3.543278   -2.660423    0.332629
     33          1           0        1.953441   -1.812335    2.073340
     34          1           0        3.088217   -0.579088    1.513955
     35          1           0       -4.761235    2.175282   -0.698583
     36          1           0       -4.828364   -2.005086    0.349743
     37          1           0       -2.352309   -1.856466    0.708966
 ---------------------------------------------------------------------

 SCF Done:  E(UB3LYP) =  -893.020676353     A.U. after   23 cycles

 The electronic state is 2-A.
 Alpha  occ. eigenvalues --  -19.08329 -14.22145 -14.20835 -14.19629 -14.17465
 Alpha  occ. eigenvalues --  -14.17441 -10.14865 -10.12904 -10.11615 -10.11066
 Alpha  occ. eigenvalues --  -10.10279 -10.09575 -10.09359 -10.08635 -10.08624
 Alpha  occ. eigenvalues --  -10.07695 -10.07626 -10.06624 -10.06409 -10.05718
 Alpha  occ. eigenvalues --   -1.03533  -0.85628  -0.82546  -0.82097  -0.77610
 Alpha  occ. eigenvalues --   -0.74109  -0.70665  -0.68953  -0.68091  -0.64991
 Alpha  occ. eigenvalues --   -0.61804  -0.58773  -0.56075  -0.53456  -0.51795
 Alpha  occ. eigenvalues --   -0.50325  -0.49302  -0.46973  -0.42843  -0.41964
 Alpha  occ. eigenvalues --   -0.41037  -0.39563  -0.38867  -0.37815  -0.36968
 Alpha  occ. eigenvalues --   -0.36208  -0.35474  -0.34350  -0.33062  -0.32897
 Alpha  occ. eigenvalues --   -0.31628  -0.30861  -0.29212  -0.28920  -0.28472
 Alpha  occ. eigenvalues --   -0.28035  -0.27437  -0.26914  -0.26712  -0.26108
 Alpha  occ. eigenvalues --   -0.25210  -0.23904  -0.23854  -0.22856  -0.21048
 Alpha  occ. eigenvalues --   -0.20308  -0.17799  -0.16912  -0.15991  -0.14119
 Alpha  occ. eigenvalues --   -0.13079  -0.12515   0.00814
 Alpha virt. eigenvalues --    0.05232   0.06485   0.07193   0.07979   0.08849
 Alpha virt. eigenvalues --    0.09021   0.09363   0.09456   0.10200   0.10890
 Alpha virt. eigenvalues --    0.11023   0.11118   0.11987   0.12252   0.13132

  Beta  occ. eigenvalues --  -19.08163 -14.22229 -14.20834 -14.19311 -14.17295
  Beta  occ. eigenvalues --  -14.17181 -10.14736 -10.12855 -10.11615 -10.11066
  Beta  occ. eigenvalues --  -10.10290 -10.09575 -10.09345 -10.08660 -10.08624
  Beta  occ. eigenvalues --  -10.07733 -10.07248 -10.06314 -10.06254 -10.05727
  Beta  occ. eigenvalues --   -1.03280  -0.85346  -0.82536  -0.81637  -0.77221
  Beta  occ. eigenvalues --   -0.73893  -0.70597  -0.68492  -0.67880  -0.64536
  Beta  occ. eigenvalues --   -0.61773  -0.58737  -0.55444  -0.53327  -0.51703
  Beta  occ. eigenvalues --   -0.50292  -0.49056  -0.46787  -0.42637  -0.41881
  Beta  occ. eigenvalues --   -0.40885  -0.39455  -0.38534  -0.37774  -0.36709
  Beta  occ. eigenvalues --   -0.35886  -0.35319  -0.34223  -0.33039  -0.32861
  Beta  occ. eigenvalues --   -0.31537  -0.30761  -0.28912  -0.28483  -0.27957
  Beta  occ. eigenvalues --   -0.27842  -0.27316  -0.26753  -0.26690  -0.26065
  Beta  occ. eigenvalues --   -0.25193  -0.23504  -0.22543  -0.22048  -0.20913
  Beta  occ. eigenvalues --   -0.20230  -0.16511  -0.15760  -0.15678  -0.14077
  Beta  occ. eigenvalues --   -0.12822  -0.10954
  Beta virt. eigenvalues --    0.05191   0.06315   0.06807   0.07197   0.07956
  Beta virt. eigenvalues --    0.08834   0.09218   0.09450   0.09506   0.10195
  Beta virt. eigenvalues --    0.10879   0.11089   0.11703   0.12043   0.12243

 Mulliken charges and spin densities:
               1          2
     1  C   -0.500737  -0.001145
     2  C   -0.354084   0.002116
     3  C   -0.275596   0.002737
     4  N   -0.090392   0.000856
     5  C   -0.266977   0.002587
     6  C   -0.259118  -0.027770
     7  C   -0.319350   0.021977
     8  C    0.115853   0.080794
     9  N   -0.053251  -0.047662
    10  N   -0.075956   0.155534
    11  C   -0.273103   0.015390
    12  O    0.066575   0.041161
    13  C   -0.236369   0.240005
    14  N    0.060810   0.076171
    15  C   -0.415870  -0.002805
    16  C    2.215530   0.231640
    17  C   -0.817113   0.147885
    18  C   -0.013910  -0.006281
    19  C   -1.818353  -0.084748
    20  N   -0.298893   0.137632
    21  H    0.178910   0.000012
    22  H    0.138417  -0.000054
    23  H    0.122076   0.000146
    24  H    0.156184  -0.000001
    25  H    0.115738   0.000430
    26  H    0.147145  -0.001306
    27  H    0.075566   0.001649
    28  H    0.218798   0.000668
    29  H    0.203897  -0.001545
    30  H    0.146458   0.003210
    31  H    0.152708  -0.004717
    32  H    0.140767   0.009890
    33  H    0.180065   0.013619
    34  H    0.166871  -0.001108
    35  H    0.172441   0.001351
    36  H    0.153255  -0.008598
    37  H    0.141008   0.000283
 Sum of Mulliken charges =  -1.00000   1.00000

 Dipole moment (field-independent basis, Debye):
    X=             15.1243    Y=             -5.1232    Z=              1.9640  Tot=             16.0888
 Quadrupole moment (field-independent basis, Debye-Ang):
   XX=           -249.7350   YY=           -132.2441   ZZ=           -129.0296
   XY=              0.2891   XZ=             -4.4675   YZ=             -0.7884

 Summary of Natural Population Analysis:

                                       Natural Population
                Natural  -----------------------------------------------
    Atom  No    Charge         Core      Valence    Rydberg      Total
 -----------------------------------------------------------------------
      C    1   -0.29178      0.99967     2.28714    0.00497     3.29178
      C    2   -0.19297      0.99964     2.18669    0.00664     3.19297
      C    3   -0.08512      0.99964     2.07599    0.00950     3.08512
      N    4   -0.35488      0.99974     2.83933    0.01582     3.85488
      C    5   -0.08908      0.99964     2.07903    0.01041     3.08908
      C    6   -0.19292      0.99963     2.18703    0.00626     3.19292
      C    7   -0.22267      0.99959     2.21524    0.00785     3.22267
      C    8    0.26895      0.99960     1.71217    0.01928     2.73105
      N    9   -0.19692      0.99966     2.68439    0.01287     3.69692
      N   10   -0.10459      0.99967     2.59199    0.01292     3.60459
      C   11    0.24594      0.99957     1.73604    0.01844     2.75406
      O   12   -0.23730      0.99985     3.22723    0.01022     4.23730
      C   13    0.13353      0.99939     1.85394    0.01315     2.86647
      N   14   -0.19246      0.99968     2.68257    0.01021     3.69246
      C   15    0.04002      0.99960     1.94654    0.01384     2.95998
      C   16   -0.05855      0.99930     2.04896    0.01028     3.05855
      C   17   -0.04523      0.99957     2.03721    0.00845     3.04523
      C   18   -0.11793      0.99956     2.10994    0.00843     3.11793
      C   19    0.13995      0.99966     1.84233    0.01805     2.86005
      N   20   -0.16502      0.99979     2.65381    0.01142     3.66502
      H   21    0.10692      0.00000     0.39192    0.00115     0.39308
      H   22    0.09620      0.00000     0.40295    0.00086     0.40380
      H   23    0.09358      0.00000     0.40543    0.00099     0.40642
      H   24    0.09771      0.00000     0.40097    0.00131     0.40229
      H   25    0.09078      0.00000     0.40809    0.00113     0.40922
      H   26    0.08771      0.00000     0.41108    0.00120     0.41229
      H   27    0.07152      0.00000     0.42629    0.00219     0.42848
      H   28    0.18949      0.00000     0.30776    0.00275     0.31051
      H   29    0.10107      0.00000     0.39798    0.00095     0.39893
      H   30    0.08800      0.00000     0.41089    0.00111     0.41200
      H   31    0.10055      0.00000     0.39832    0.00113     0.39945
      H   32    0.09209      0.00000     0.40680    0.00111     0.40791
      H   33    0.10812      0.00000     0.39076    0.00112     0.39188
      H   34    0.10975      0.00000     0.38905    0.00119     0.39025
      H   35    0.08641      0.00000     0.41246    0.00113     0.41359
      H   36    0.09651      0.00000     0.40257    0.00092     0.40349
      H   37    0.10268      0.00000     0.39628    0.00104     0.39732
 =======================================================================
   * Total *    0.00008     19.99244    51.75719    0.25029    71.99992

 Normal termination of Gaussian 16 at Sun Dec 13 21:34:49 2020.
