 Gaussian 16, Revision A.03,

 -----------------------------------------------------------
 # opt freq B3LYP/6-31G(d) empiricaldispersion=gd3bj scf=xqc
 -----------------------------------------------------------

 -------------------------------
 CID_154643032_JID_8257_neutraal
 -------------------------------
 Symbolic Z-matrix:
 Charge =  0 Multiplicity = 1

 SCF Done:  E(RB3LYP) =  -788.302889375     A.U. after   15 cycles
 SCF Done:  E(RB3LYP) =  -788.307604812     A.U. after   12 cycles
 SCF Done:  E(RB3LYP) =  -788.308316182     A.U. after   12 cycles
 SCF Done:  E(RB3LYP) =  -788.308517774     A.U. after   12 cycles
 SCF Done:  E(RB3LYP) =  -788.308691936     A.U. after   11 cycles
 SCF Done:  E(RB3LYP) =  -788.308738640     A.U. after   10 cycles
 SCF Done:  E(RB3LYP) =  -788.308746625     A.U. after    9 cycles
 SCF Done:  E(RB3LYP) =  -788.308749137     A.U. after    9 cycles
 SCF Done:  E(RB3LYP) =  -788.308751322     A.U. after    9 cycles
 SCF Done:  E(RB3LYP) =  -788.308751989     A.U. after    8 cycles
 SCF Done:  E(RB3LYP) =  -788.308752720     A.U. after    8 cycles
 SCF Done:  E(RB3LYP) =  -788.308753585     A.U. after    9 cycles
 SCF Done:  E(RB3LYP) =  -788.308753977     A.U. after    8 cycles
 SCF Done:  E(RB3LYP) =  -788.308754040     A.U. after    7 cycles
 Optimization completed.
    -- Stationary point found.
 Normal termination of Gaussian 16 at Fri Dec 11 19:43:35 2020.

 --------------------------------------------------------------------
 #N Geom=AllCheck Guess=TCheck SCRF=Check GenChk RB3LYP/6-31G(d) Freq
 --------------------------------------------------------------------

 Structure from the checkpoint file:  "JID_8257.chk"
 -------------------------------
 CID_154643032_JID_8257_neutraal
 -------------------------------
 Charge =  0 Multiplicity = 1

 SCF Done:  E(RB3LYP) =  -788.308754040     A.U. after    1 cycles

  Exact polarizability: 247.616   8.016 123.902  -6.569  10.554 135.935
 Approx polarizability: 306.367  20.630 198.041 -11.042  24.584 233.578

                      1                      2                      3
                      A                      A                      A
 Frequencies --     24.3950                34.2706                37.5862
 Red. masses --      3.3346                 3.7239                 4.0022
 Frc consts  --      0.0012                 0.0026                 0.0033
 IR Inten    --      0.0214                 0.0174                 0.2608

                      4                      5                      6
                      A                      A                      A
 Frequencies --     43.6196                61.2937                78.1984
 Red. masses --      3.7758                 4.7573                 5.1287
 Frc consts  --      0.0042                 0.0105                 0.0185
 IR Inten    --      0.9025                 2.0858                 0.4485

                      7                      8                      9
                      A                      A                      A
 Frequencies --    132.6947               138.8558               149.2978
 Red. masses --      3.8095                 3.3262                 3.0576
 Frc consts  --      0.0395                 0.0378                 0.0402
 IR Inten    --      1.4794                 1.8827                 5.1479

                     10                     11                     12
                      A                      A                      A
 Frequencies --    197.8659               216.2776               238.8011
 Red. masses --      2.2980                 2.9128                 1.7602
 Frc consts  --      0.0530                 0.0803                 0.0591
 IR Inten    --      1.6256                 0.2326                 1.1441

                     13                     14                     15
                      A                      A                      A
 Frequencies --    278.0906               292.9190               356.7828
 Red. masses --      3.5852                 4.8433                 1.7537
 Frc consts  --      0.1634                 0.2448                 0.1315
 IR Inten    --      0.6123                 1.7180                41.5186

                     16                     17                     18
                      A                      A                      A
 Frequencies --    373.2992               395.0932               411.9554
 Red. masses --      1.5947                 1.7827                 4.5982
 Frc consts  --      0.1309                 0.1640                 0.4598
 IR Inten    --     74.6715                54.7659                 5.9795

                     19                     20                     21
                      A                      A                      A
 Frequencies --    418.3201               424.6590               442.0200
 Red. masses --      2.9325                 2.8540                 3.6431
 Frc consts  --      0.3023                 0.3032                 0.4194
 IR Inten    --      1.4685                 2.5904                27.7639

                     22                     23                     24
                      A                      A                      A
 Frequencies --    502.9774               529.4807               566.8690
 Red. masses --      2.8175                 3.0880                 3.2275
 Frc consts  --      0.4200                 0.5101                 0.6111
 IR Inten    --      3.8721                 4.9020                14.8813

                     25                     26                     27
                      A                      A                      A
 Frequencies --    586.3010               609.9701               651.3908
 Red. masses --      3.9640                 2.8894                 3.7125
 Frc consts  --      0.8028                 0.6334                 0.9281
 IR Inten    --      4.7056                 1.2021                 4.8701

                     28                     29                     30
                      A                      A                      A
 Frequencies --    659.1621               699.1715               731.7767
 Red. masses --      6.3614                 2.7990                 2.6594
 Frc consts  --      1.6285                 0.8061                 0.8391
 IR Inten    --      0.1369                13.3168                 7.5148

                     31                     32                     33
                      A                      A                      A
 Frequencies --    752.9894               764.2061               799.6196
 Red. masses --      1.9881                 3.2071                 2.7965
 Frc consts  --      0.6641                 1.1035                 1.0535
 IR Inten    --      9.8401                 0.7704                 5.0320

                     34                     35                     36
                      A                      A                      A
 Frequencies --    800.9699               850.0175               859.1245
 Red. masses --      1.3288                 1.5658                 1.2640
 Frc consts  --      0.5023                 0.6665                 0.5497
 IR Inten    --      2.1064                27.0602                 1.3587

                     37                     38                     39
                      A                      A                      A
 Frequencies --    874.0988               906.5304               927.9066
 Red. masses --      3.1492                 3.0280                 2.1706
 Frc consts  --      1.4176                 1.4661                 1.1011
 IR Inten    --      4.7810                15.4894                 5.2883

                     40                     41                     42
                      A                      A                      A
 Frequencies --    940.2926               949.9775               961.4417
 Red. masses --      1.4156                 1.8634                 1.3379
 Frc consts  --      0.7374                 0.9908                 0.7287
 IR Inten    --      3.4226                13.3736                 0.1033

                     43                     44                     45
                      A                      A                      A
 Frequencies --    969.3591               982.0669              1008.6561
 Red. masses --      1.3214                 2.3479                 2.7250
 Frc consts  --      0.7316                 1.3342                 1.6335
 IR Inten    --      0.9986                 2.8123                12.6302

                     46                     47                     48
                      A                      A                      A
 Frequencies --   1040.7110              1047.6241              1079.4405
 Red. masses --      2.7295                 2.4571                 2.4079
 Frc consts  --      1.7418                 1.5889                 1.6530
 IR Inten    --     29.3416                 5.4788                54.8774

                     49                     50                     51
                      A                      A                      A
 Frequencies --   1081.7122              1093.7753              1105.4093
 Red. masses --      1.6507                 1.9060                 2.6489
 Frc consts  --      1.1380                 1.3435                 1.9070
 IR Inten    --     20.5358                13.0676                19.8757

                     52                     53                     54
                      A                      A                      A
 Frequencies --   1141.1805              1152.9023              1173.1651
 Red. masses --      2.9630                 1.3104                 1.3156
 Frc consts  --      2.2735                 1.0263                 1.0669
 IR Inten    --      6.8448                 4.6401                19.3693

                     55                     56                     57
                      A                      A                      A
 Frequencies --   1218.2970              1226.7130              1227.0747
 Red. masses --      1.1446                 1.6908                 1.2180
 Frc consts  --      1.0009                 1.4991                 1.0805
 IR Inten    --      1.2258                13.0869                29.4443

                     58                     59                     60
                      A                      A                      A
 Frequencies --   1237.3749              1241.0015              1262.2219
 Red. masses --      2.1237                 2.3558                 1.3411
 Frc consts  --      1.9158                 2.1377                 1.2588
 IR Inten    --      2.6791                 1.3463                22.0394

                     61                     62                     63
                      A                      A                      A
 Frequencies --   1283.6681              1289.2868              1300.9930
 Red. masses --      1.6808                 1.3534                 1.9413
 Frc consts  --      1.6319                 1.3255                 1.9359
 IR Inten    --      2.9379                 1.6508                73.5249

                     64                     65                     66
                      A                      A                      A
 Frequencies --   1331.5270              1355.0356              1368.4012
 Red. masses --      1.7571                 1.4301                 1.8713
 Frc consts  --      1.8355                 1.5471                 2.0645
 IR Inten    --     65.4056                 0.8740                 0.4521

                     67                     68                     69
                      A                      A                      A
 Frequencies --   1372.7692              1382.4952              1406.7718
 Red. masses --      1.5230                 1.8931                 1.3883
 Frc consts  --      1.6910                 2.1319                 1.6188
 IR Inten    --      6.5356                25.5117                 3.8378

                     70                     71                     72
                      A                      A                      A
 Frequencies --   1408.1507              1417.5031              1435.7308
 Red. masses --      1.3318                 1.7223                 1.2190
 Frc consts  --      1.5559                 2.0389                 1.4805
 IR Inten    --     38.4902                37.8603                 1.0564

                     73                     74                     75
                      A                      A                      A
 Frequencies --   1436.3724              1445.1999              1472.1656
 Red. masses --      1.4527                 1.5974                 2.4736
 Frc consts  --      1.7659                 1.9657                 3.1586
 IR Inten    --    101.7731                24.6523                 7.3432

                     76                     77                     78
                      A                      A                      A
 Frequencies --   1492.6987              1497.8979              1518.1630
 Red. masses --      1.0954                 1.1354                 1.0641
 Frc consts  --      1.4380                 1.5010                 1.4450
 IR Inten    --      6.1408                13.6038                 0.8555

                     79                     80                     81
                      A                      A                      A
 Frequencies --   1525.8804              1529.6078              1538.4585
 Red. masses --      1.0410                 1.0954                 1.0831
 Frc consts  --      1.4280                 1.5101                 1.5103
 IR Inten    --      7.5751                 1.4873                 1.5997

                     82                     83                     84
                      A                      A                      A
 Frequencies --   1566.3139              1634.1945              1678.0143
 Red. masses --      2.5007                 6.1590                 5.8738
 Frc consts  --      3.6147                 9.6910                 9.7445
 IR Inten    --     24.7119                 0.4136                 0.5981

                     85                     86                     87
                      A                      A                      A
 Frequencies --   1724.8339              1782.6895              2984.5536
 Red. masses --      6.6635                11.1509                 1.0818
 Frc consts  --     11.6801                20.8790                 5.6775
 IR Inten    --     80.0388               316.7549                20.1605

                     88                     89                     90
                      A                      A                      A
 Frequencies --   3034.4926              3045.5616              3045.8013
 Red. masses --      1.0663                 1.0692                 1.0596
 Frc consts  --      5.7850                 5.8430                 5.7913
 IR Inten    --     34.3547                 9.9060                35.1195

                     91                     92                     93
                      A                      A                      A
 Frequencies --   3048.9623              3079.5518              3080.3699
 Red. masses --      1.0348                 1.0648                 1.1039
 Frc consts  --      5.6677                 5.9496                 6.1714
 IR Inten    --     35.7695                21.4269                 9.6398

                     94                     95                     96
                      A                      A                      A
 Frequencies --   3109.0724              3119.5945              3123.2723
 Red. masses --      1.0989                 1.1029                 1.1035
 Frc consts  --      6.2584                 6.3237                 6.3422
 IR Inten    --     64.3329                51.8103                33.6025

                     97                     98                     99
                      A                      A                      A
 Frequencies --   3143.3275              3152.9591              3170.2306
 Red. masses --      1.0944                 1.1017                 1.0866
 Frc consts  --      6.3707                 6.4526                 6.4345
 IR Inten    --      6.6057                 6.2357                18.3532

                    100                    101                    102
                      A                      A                      A
 Frequencies --   3172.5906              3187.2931              3191.5924
 Red. masses --      1.0868                 1.0940                 1.0941
 Frc consts  --      6.4452                 6.5478                 6.5663
 IR Inten    --     13.7927                35.1150                 4.7204

                    103                    104                    105
                      A                      A                      A
 Frequencies --   3212.6587              3231.2201              3740.5670
 Red. masses --      1.0861                 1.0984                 1.0661
 Frc consts  --      6.6048                 6.7569                 8.7887
 IR Inten    --      0.1002                 9.4016                16.9941

 - Thermochemistry -
 -------------------
 Temperature   298.150 Kelvin.  Pressure   1.00000 Atm.
 Atom     1 has atomic number  6 and mass  12.00000

 Molecular mass:   245.14158 amu.
 Principal axes and moments of inertia in atomic units:
                           1         2         3
     Eigenvalues --  1411.13433********************
           X            0.99999  -0.00527   0.00046
           Y            0.00526   0.99973   0.02268
           Z           -0.00058  -0.02268   0.99974
 This molecule is an asymmetric top.
 Rotational symmetry number  1.
 Warning -- assumption of classical behavior for rotation
           may cause significant error
 Rotational temperatures (Kelvin)      0.06138     0.00757     0.00732
 Rotational constants (GHZ):           1.27893     0.15779     0.15258
 Zero-point vibrational energy     831570.6 (Joules/Mol)
                                  198.75015 (Kcal/Mol)
 Warning -- explicit consideration of  26 degrees of freedom as
           vibrations may cause significant error
 Vibrational temperatures:     35.10    49.31    54.08    62.76    88.19
          (Kelvin)            112.51   190.92   199.78   214.81   284.68
                              311.18   343.58   400.11   421.45   513.33
                              537.09   568.45   592.71   601.87   610.99
                              635.97   723.67   761.80   815.60   843.56
                              877.61   937.21   948.39  1005.95  1052.86
                             1083.38  1099.52  1150.47  1152.42  1222.99
                             1236.09  1257.63  1304.30  1335.05  1352.87
                             1366.81  1383.30  1394.69  1412.98  1451.23
                             1497.35  1507.30  1553.07  1556.34  1573.70
                             1590.44  1641.90  1658.77  1687.92  1752.86
                             1764.97  1765.49  1780.31  1785.52  1816.06
                             1846.91  1855.00  1871.84  1915.77  1949.59
                             1968.82  1975.11  1989.10  2024.03  2026.01
                             2039.47  2065.70  2066.62  2079.32  2118.12
                             2147.66  2155.14  2184.30  2195.40  2200.76
                             2213.50  2253.58  2351.24  2414.29  2481.65
                             2564.89  4294.11  4365.96  4381.88  4382.23
                             4386.78  4430.79  4431.97  4473.26  4488.40
                             4493.69  4522.55  4536.40  4561.25  4564.65
                             4585.80  4591.99  4622.30  4649.01  5381.84

 Zero-point correction=                           0.316729 (Hartree/Particle)
 Thermal correction to Energy=                    0.333988
 Thermal correction to Enthalpy=                  0.334933
 Thermal correction to Gibbs Free Energy=         0.269308
 Sum of electronic and zero-point Energies=           -787.992026
 Sum of electronic and thermal Energies=              -787.974766
 Sum of electronic and thermal Enthalpies=            -787.973821
 Sum of electronic and thermal Free Energies=         -788.039446

                     E (Thermal)             CV                S
                      KCal/Mol        Cal/Mol-Kelvin    Cal/Mol-Kelvin
 Total                  209.581             65.510            138.119
 Electronic               0.000              0.000              0.000
 Translational            0.889              2.981             42.391
 Rotational               0.889              2.981             33.612
 Vibrational            207.803             59.548             62.116
 Vibration     1          0.593              1.985              6.240
 Vibration     2          0.594              1.983              5.565
 Vibration     3          0.594              1.982              5.382
 Vibration     4          0.595              1.980              5.088
 Vibration     5          0.597              1.973              4.415
 Vibration     6          0.599              1.964              3.936
 Vibration     7          0.613              1.921              2.907
 Vibration     8          0.614              1.914              2.820
 Vibration     9          0.618              1.903              2.681
 Vibration    10          0.637              1.843              2.153
 Vibration    11          0.645              1.816              1.990
 Vibration    12          0.657              1.781              1.812
 Vibration    13          0.679              1.714              1.545
 Vibration    14          0.688              1.687              1.457
 Vibration    15          0.732              1.561              1.136
 Vibration    16          0.745              1.527              1.066
 Vibration    17          0.762              1.481              0.981
 Vibration    18          0.776              1.444              0.920
 Vibration    19          0.781              1.430              0.898
 Vibration    20          0.787              1.417              0.876
 Vibration    21          0.802              1.378              0.820
 Vibration    22          0.858              1.243              0.651
 Vibration    23          0.884              1.185              0.588
 Vibration    24          0.923              1.103              0.510
 Vibration    25          0.943              1.061              0.474
 Vibration    26          0.969              1.011              0.433

 Optimization completed.
    -- Stationary point found.
 Normal termination of Gaussian 16 at Fri Dec 11 19:58:33 2020.

 ----------------------------------------------------------------------
 # B3LYP/6-311++G(d,p) empiricaldispersion=gd3bj scf=xqc pop=npa geom=c
 heck
 ----------------------------------------------------------------------

 ---------------------------------------
 CID_154643032_JID_8257_Energie_neutraal
 ---------------------------------------
 Structure from the checkpoint file:  "JID_8257.chk"
 Charge =  0 Multiplicity = 1

 SCF Done:  E(RB3LYP) =  -788.532625582     A.U. after   16 cycles
 Normal termination of Gaussian 16 at Fri Dec 11 20:05:57 2020.

 ----------------------------------------------------------------------
 # B3LYP/6-311++G(d,p) empiricaldispersion=gd3bj scf=xqc pop=npa geom=c
 heck
 ----------------------------------------------------------------------

 -------------------------------------
 CID_154643032_JID_8257_Energie_kation
 -------------------------------------
 Structure from the checkpoint file:  "JID_8257.chk"
 Charge =  1 Multiplicity = 2

 SCF Done:  E(UB3LYP) =  -788.245117577     A.U. after   23 cycles
 Normal termination of Gaussian 16 at Fri Dec 11 20:20:51 2020.
 Gaussian 16:  ES64L-G16RevA.03 25-Dec-2016

 ----------------------------------------------------------------------
 # B3LYP/6-311++G(d,p) empiricaldispersion=gd3bj scf=xqc pop=npa geom=c
 heck
 ----------------------------------------------------------------------

 ------------------------------------
 CID_154643032_JID_8257_Energie_anion
 ------------------------------------
 Structure from the checkpoint file:  "JID_8257.chk"
 Charge = -1 Multiplicity = 2

                         Standard orientation:
 ---------------------------------------------------------------------
 Center     Atomic      Atomic             Coordinates (Angstroms)
 Number     Number       Type             X           Y           Z
 ---------------------------------------------------------------------
      1          6           0       -6.133589    0.976002   -0.354776
      2          6           0       -5.565689   -0.419588   -0.047713
      3          6           0       -4.060329   -0.405915    0.084183
      4          6           0       -3.446631   -0.172635    1.319558
      5          6           0       -2.058367   -0.113604    1.432374
      6          6           0       -1.239636   -0.284879    0.312690
      7          6           0       -1.850525   -0.518354   -0.925422
      8          6           0       -3.237505   -0.578282   -1.035831
      9          6           0        0.267910   -0.174938    0.429768
     10          6           0        0.749996    1.212954   -0.045283
     11          6           0        2.263554    1.345545   -0.121085
     12          8           0        2.861069    2.372436    0.168125
     13          7           0        2.923847    0.227117   -0.607593
     14          6           0        2.250930   -0.993626   -0.804249
     15          6           0        1.015468   -1.232185   -0.348099
     16          6           0        4.377447    0.282017   -0.767023
     17          6           0        5.100358   -0.199422    0.491322
     18          8           0        4.809387   -1.557788    0.793882
     19          1           0       -5.875710    1.683805    0.440723
     20          1           0       -7.225113    0.946518   -0.447125
     21          1           0       -5.720780    1.366015   -1.291714
     22          1           0       -6.013766   -0.797512    0.879493
     23          1           0       -5.860032   -1.114041   -0.844321
     24          1           0       -4.063597   -0.041665    2.205707
     25          1           0       -1.603696    0.062787    2.404640
     26          1           0       -1.231167   -0.662540   -1.807205
     27          1           0       -3.691300   -0.766880   -2.006275
     28          1           0        0.526059   -0.276703    1.496541
     29          1           0        0.376366    2.012939    0.596691
     30          1           0        0.357405    1.391215   -1.056316
     31          1           0        2.831533   -1.736231   -1.340373
     32          1           0        0.552157   -2.196175   -0.526260
     33          1           0        4.650779   -0.352023   -1.616723
     34          1           0        4.648451    1.316411   -0.986418
     35          1           0        6.182322   -0.146744    0.331911
     36          1           0        4.847769    0.466677    1.328465
     37          1           0        3.881398   -1.601405    1.073168
 ---------------------------------------------------------------------

 SCF Done:  E(UB3LYP) =  -788.523048977     A.U. after   33 cycles
 SCF Done:  E(UB3LYP) =  -788.523048977     a.u. after    1 cycles

 The electronic state is 2-A.
 Alpha  occ. eigenvalues --  -19.04308 -18.99489 -14.26239 -10.17038 -10.13797
 Alpha  occ. eigenvalues --  -10.12455 -10.11315 -10.09348 -10.08211 -10.07740
 Alpha  occ. eigenvalues --  -10.07599 -10.07270 -10.07239 -10.07208 -10.07042
 Alpha  occ. eigenvalues --  -10.07032 -10.06790 -10.06347  -0.95153  -0.94318
 Alpha  occ. eigenvalues --   -0.85904  -0.76560  -0.73007  -0.68980  -0.66363
 Alpha  occ. eigenvalues --   -0.65272  -0.64558  -0.62256  -0.57014  -0.55338
 Alpha  occ. eigenvalues --   -0.53307  -0.51385  -0.50392  -0.47096  -0.43870
 Alpha  occ. eigenvalues --   -0.42928  -0.40974  -0.40414  -0.39614  -0.37736
 Alpha  occ. eigenvalues --   -0.37173  -0.35938  -0.34968  -0.34686  -0.33329
 Alpha  occ. eigenvalues --   -0.32773  -0.32537  -0.31957  -0.31633  -0.30852
 Alpha  occ. eigenvalues --   -0.30093  -0.28955  -0.27674  -0.26795  -0.26324
 Alpha  occ. eigenvalues --   -0.25616  -0.25295  -0.24475  -0.23515  -0.23343
 Alpha  occ. eigenvalues --   -0.22572  -0.20388  -0.16698  -0.15593  -0.14149
 Alpha  occ. eigenvalues --   -0.12510   0.04228
 Alpha virt. eigenvalues --    0.05791   0.06320   0.07009   0.07356   0.07854
 Alpha virt. eigenvalues --    0.08206   0.08302   0.08695   0.08961   0.09446
 Alpha virt. eigenvalues --    0.09827   0.10420   0.10926   0.11055   0.11180

  Beta  occ. eigenvalues --  -19.04284 -18.99380 -14.26283 -10.16889 -10.13786
  Beta  occ. eigenvalues --  -10.12452 -10.11250 -10.09354 -10.08198 -10.07679
  Beta  occ. eigenvalues --  -10.07563 -10.07255 -10.07240 -10.07216 -10.06997
  Beta  occ. eigenvalues --  -10.06951 -10.06726 -10.06311  -0.95011  -0.94208
  Beta  occ. eigenvalues --   -0.85852  -0.76469  -0.72913  -0.68902  -0.66312
  Beta  occ. eigenvalues --   -0.65085  -0.64477  -0.62168  -0.56937  -0.55236
  Beta  occ. eigenvalues --   -0.53191  -0.51317  -0.50309  -0.47003  -0.43819
  Beta  occ. eigenvalues --   -0.42882  -0.40880  -0.40276  -0.39515  -0.37643
  Beta  occ. eigenvalues --   -0.37102  -0.35862  -0.34859  -0.34616  -0.33232
  Beta  occ. eigenvalues --   -0.32690  -0.32454  -0.31876  -0.31577  -0.30775
  Beta  occ. eigenvalues --   -0.29892  -0.28841  -0.27519  -0.26721  -0.26237
  Beta  occ. eigenvalues --   -0.25557  -0.25195  -0.24385  -0.23434  -0.23284
  Beta  occ. eigenvalues --   -0.22230  -0.20328  -0.16580  -0.15421  -0.13873
  Beta  occ. eigenvalues --   -0.12186
  Beta virt. eigenvalues --    0.06095   0.06593   0.07056   0.07306   0.07740
  Beta virt. eigenvalues --    0.08240   0.08303   0.08623   0.08980   0.09240
  Beta virt. eigenvalues --    0.09716   0.10087   0.10479   0.10940   0.11177

 Mulliken charges and spin densities:
               1          2
     1  C    1.039473  -1.672188
     2  C   -0.437859   0.097812
     3  C    0.368003   0.417723
     4  C   -0.616813   0.020234
     5  C   -0.018510  -0.358636
     6  C    1.283332  -0.512524
     7  C   -0.382032  -0.085477
     8  C   -0.718398   0.234729
     9  C    0.829157  -0.443961
    10  C   -0.339949  -0.338205
    11  C   -0.218239   0.107659
    12  O   -0.347417   0.040405
    13  N    0.153395  -0.022654
    14  C   -0.808415   0.011033
    15  C    0.051499   0.069723
    16  C   -0.306419   0.315945
    17  C    0.189948  -0.570446
    18  O   -0.286289   0.026894
    19  H   -0.010154   0.145677
    20  H   -0.452501   0.589073
    21  H   -0.035332   0.169379
    22  H   -0.345623   0.498026
    23  H   -0.183498   0.328144
    24  H   -0.156298   0.320136
    25  H   -0.346593   0.500578
    26  H    0.059009   0.105268
    27  H   -0.130800   0.293044
    28  H    0.099432   0.087463
    29  H    0.166820   0.040963
    30  H    0.193117   0.001770
    31  H    0.079137   0.068419
    32  H    0.135298   0.044201
    33  H    0.137567   0.033572
    34  H    0.147909   0.024497
    35  H    0.043560   0.107955
    36  H   -0.003329   0.206083
    37  H    0.167811   0.097682
 Sum of Mulliken charges =  -1.00000   1.00000

 Dipole moment (field-independent basis, Debye):
    X=              7.8626    Y=             -0.8919    Z=             -2.7923  Tot=              8.3913
 Quadrupole moment (field-independent basis, Debye-Ang):
   XX=           -249.7967   YY=           -144.0979   ZZ=           -134.5468
   XY=             -0.2075   XZ=             -7.3292   YZ=              0.5054

 Summary of Natural Population Analysis:

                                       Natural Population
                Natural  -----------------------------------------------
    Atom  No    Charge         Core      Valence    Rydberg      Total
 -----------------------------------------------------------------------
      C    1   -0.27929      0.99966     2.27459    0.00504     3.27929
      C    2   -0.19798      0.99961     2.18857    0.00980     3.19798
      C    3   -0.01199      0.99951     2.00231    0.01017     3.01199
      C    4   -0.08901      0.99951     2.08028    0.00922     3.08901
      C    5   -0.10027      0.99951     2.09145    0.00931     3.10027
      C    6   -0.00682      0.99950     1.99603    0.01129     3.00682
      C    7   -0.09717      0.99951     2.08956    0.00810     3.09717
      C    8   -0.10124      0.99951     2.09219    0.00954     3.10124
      C    9   -0.13082      0.99956     2.11954    0.01172     3.13082
      C   10   -0.22107      0.99958     2.21326    0.00822     3.22107
      C   11    0.36721      0.99964     1.60865    0.02450     2.63279
      O   12   -0.30969      0.99988     3.30450    0.00532     4.30969
      N   13   -0.26569      0.99963     2.75591    0.01015     3.76569
      C   14    0.00029      0.99951     1.98867    0.01153     2.99971
      C   15   -0.10388      0.99954     2.09449    0.00985     3.10388
      C   16   -0.09707      0.99962     2.08765    0.00980     3.09707
      C   17   -0.01566      0.99960     2.00462    0.01144     3.01566
      O   18   -0.36994      0.99990     3.36318    0.00686     4.36994
      H   19    0.09657      0.00000     0.40244    0.00099     0.40343
      H   20    0.09907      0.00000     0.39900    0.00193     0.40093
      H   21    0.09595      0.00000     0.40308    0.00096     0.40405
      H   22    0.10042      0.00000     0.39795    0.00164     0.39958
      H   23    0.09852      0.00000     0.40007    0.00140     0.40148
      H   24    0.09909      0.00000     0.39985    0.00106     0.40091
      H   25    0.09884      0.00000     0.39960    0.00156     0.40116
      H   26    0.10122      0.00000     0.39776    0.00102     0.39878
      H   27    0.09804      0.00000     0.40102    0.00094     0.40196
      H   28    0.10451      0.00000     0.39293    0.00256     0.39549
      H   29    0.11385      0.00000     0.38514    0.00100     0.38615
      H   30    0.11018      0.00000     0.38879    0.00103     0.38982
      H   31    0.09899      0.00000     0.39982    0.00119     0.40101
      H   32    0.10553      0.00000     0.39359    0.00088     0.39447
      H   33    0.09362      0.00000     0.40519    0.00119     0.40638
      H   34    0.11328      0.00000     0.38560    0.00111     0.38672
      H   35    0.08395      0.00000     0.41466    0.00139     0.41605
      H   36    0.08505      0.00000     0.41343    0.00152     0.41495
      H   37    0.23340      0.00000     0.26350    0.00310     0.26660
 =======================================================================
   * Total *   -0.00000     17.99278    47.79888    0.20834    66.00000

 Normal termination of Gaussian 16 at Fri Dec 11 20:43:19 2020.
