 Gaussian 16, Revision A.03,

 -----------------------------------------------------------
 # opt freq B3LYP/6-31G(d) empiricaldispersion=gd3bj scf=xqc
 -----------------------------------------------------------

 -----------------------------
 CID_20761870_JID_263_neutraal
 -----------------------------
 Symbolic Z-matrix:
 Charge =  0 Multiplicity = 1

 SCF Done:  E(RB3LYP) =  -459.907118089     A.U. after   13 cycles
 SCF Done:  E(RB3LYP) =  -459.910834532     A.U. after   11 cycles
 SCF Done:  E(RB3LYP) =  -459.911227586     A.U. after   10 cycles
 SCF Done:  E(RB3LYP) =  -459.911176770     A.U. after   10 cycles
 SCF Done:  E(RB3LYP) =  -459.911288760     A.U. after   10 cycles
 SCF Done:  E(RB3LYP) =  -459.911339781     A.U. after   10 cycles
 SCF Done:  E(RB3LYP) =  -459.911341101     A.U. after    7 cycles
 SCF Done:  E(RB3LYP) =  -459.911341626     A.U. after    7 cycles
 SCF Done:  E(RB3LYP) =  -459.911342019     A.U. after    7 cycles
 SCF Done:  E(RB3LYP) =  -459.911342104     A.U. after    7 cycles
 Optimization completed.
    -- Stationary point found.
 Normal termination of Gaussian 16 at Tue Dec  8 10:21:46 2020.

 --------------------------------------------------------------------
 #N Geom=AllCheck Guess=TCheck SCRF=Check GenChk RB3LYP/6-31G(d) Freq
 --------------------------------------------------------------------

 Structure from the checkpoint file:  "JID_263.chk"
 -----------------------------
 CID_20761870_JID_263_neutraal
 -----------------------------
 Charge =  0 Multiplicity = 1

 SCF Done:  E(RB3LYP) =  -459.911342104     A.U. after    1 cycles

  Exact polarizability:  92.931   1.845  84.455   0.037  -0.582  75.264
 Approx polarizability: 118.153   3.327 120.100   1.090  -1.559 117.183

                      1                      2                      3
                      A                      A                      A
 Frequencies --     48.6266               115.3795               160.3093
 Red. masses --      3.6008                 3.3282                 3.5585
 Frc consts  --      0.0050                 0.0261                 0.0539
 IR Inten    --      1.1916                 3.1405                 2.8646

                      4                      5                      6
                      A                      A                      A
 Frequencies --    236.8929               258.9868               347.0028
 Red. masses --      2.3345                 3.7901                 4.0245
 Frc consts  --      0.0772                 0.1498                 0.2855
 IR Inten    --      4.8265                 1.7198                 0.7098

                      7                      8                      9
                      A                      A                      A
 Frequencies --    363.6428               415.9095               542.7872
 Red. masses --      2.0574                 1.8042                 2.2595
 Frc consts  --      0.1603                 0.1839                 0.3922
 IR Inten    --      3.8798                 0.7442                20.7625

                     10                     11                     12
                      A                      A                      A
 Frequencies --    576.3240               602.9692               624.9106
 Red. masses --      3.5518                 1.1384                 2.4810
 Frc consts  --      0.6951                 0.2439                 0.5708
 IR Inten    --      3.4506               114.6238                12.4460

                     13                     14                     15
                      A                      A                      A
 Frequencies --    701.4642               797.5064               837.6831
 Red. masses --      2.9720                 2.8388                 4.1434
 Frc consts  --      0.8616                 1.0638                 1.7130
 IR Inten    --      1.3184                 0.7611                 2.4440

                     16                     17                     18
                      A                      A                      A
 Frequencies --    851.7233               869.0643               905.8357
 Red. masses --      2.9184                 2.0729                 1.9573
 Frc consts  --      1.2474                 0.9224                 0.9463
 IR Inten    --     37.0079                 7.8471               125.4762

                     19                     20                     21
                      A                      A                      A
 Frequencies --    914.0922               943.7598               966.4237
 Red. masses --      2.4070                 2.3062                 1.7963
 Frc consts  --      1.1850                 1.2103                 0.9884
 IR Inten    --      0.9090                22.6419                 1.9122

                     22                     23                     24
                      A                      A                      A
 Frequencies --   1000.8449              1002.6981              1029.7718
 Red. masses --      2.2849                 2.0276                 1.9165
 Frc consts  --      1.3485                 1.2011                 1.1974
 IR Inten    --      3.4029                 4.5538                 5.3356

                     25                     26                     27
                      A                      A                      A
 Frequencies --   1048.6805              1080.4713              1082.9830
 Red. masses --      1.6367                 1.6997                 1.6708
 Frc consts  --      1.0605                 1.1691                 1.1546
 IR Inten    --      1.7247                42.4621                 6.2248

                     28                     29                     30
                      A                      A                      A
 Frequencies --   1105.5646              1116.7252              1143.6774
 Red. masses --      3.6024                 3.0182                 2.1756
 Frc consts  --      2.5942                 2.2176                 1.6766
 IR Inten    --     95.7624                27.2439                 0.0169

                     31                     32                     33
                      A                      A                      A
 Frequencies --   1174.1547              1200.1356              1209.1954
 Red. masses --      1.8049                 1.1945                 1.3843
 Frc consts  --      1.4661                 1.0137                 1.1926
 IR Inten    --      0.1852                 2.3291                 6.8572

                     34                     35                     36
                      A                      A                      A
 Frequencies --   1219.6312              1254.8022              1280.8650
 Red. masses --      1.2414                 1.2971                 1.3004
 Frc consts  --      1.0880                 1.2033                 1.2570
 IR Inten    --      4.1056                 9.8759                 9.6462

                     37                     38                     39
                      A                      A                      A
 Frequencies --   1290.4917              1301.1557              1306.5166
 Red. masses --      1.4233                 1.2487                 1.4182
 Frc consts  --      1.3965                 1.2455                 1.4263
 IR Inten    --     25.9861                 6.8891                 2.5632

                     40                     41                     42
                      A                      A                      A
 Frequencies --   1334.6028              1359.8613              1370.8001
 Red. masses --      1.4416                 1.3678                 1.3585
 Frc consts  --      1.5129                 1.4903                 1.5041
 IR Inten    --      5.5354                 3.3816                 0.5850

                     43                     44                     45
                      A                      A                      A
 Frequencies --   1380.7425              1412.5440              1423.3315
 Red. masses --      1.3375                 1.3210                 1.4723
 Frc consts  --      1.5023                 1.5529                 1.7573
 IR Inten    --     25.6437                 5.0569                 0.9631

                     46                     47                     48
                      A                      A                      A
 Frequencies --   1452.3717              1474.2803              1503.3437
 Red. masses --      1.4036                 1.2161                 1.2315
 Frc consts  --      1.7444                 1.5574                 1.6398
 IR Inten    --      5.9394               120.0766                28.3000

                     49                     50                     51
                      A                      A                      A
 Frequencies --   1526.9449              1539.6654              1551.2524
 Red. masses --      1.0879                 1.0914                 1.0945
 Frc consts  --      1.4945                 1.5243                 1.5519
 IR Inten    --      2.0433                 0.1917                 2.6435

                     52                     53                     54
                      A                      A                      A
 Frequencies --   1555.2918              2942.4458              2948.8997
 Red. masses --      1.0985                 1.0740                 1.0735
 Frc consts  --      1.5656                 5.4788                 5.5004
 IR Inten    --      1.2076                49.6599               139.2124

                     55                     56                     57
                      A                      A                      A
 Frequencies --   2958.3611              3061.9239              3073.2002
 Red. masses --      1.0732                 1.0644                 1.0864
 Frc consts  --      5.5339                 5.8796                 6.0451
 IR Inten    --     60.9721                33.0359                12.6609

                     58                     59                     60
                      A                      A                      A
 Frequencies --   3080.0693              3081.8326              3084.6731
 Red. masses --      1.0876                 1.0885                 1.0901
 Frc consts  --      6.0791                 6.0910                 6.1111
 IR Inten    --     43.0854                 2.5017                30.0081

                     61                     62                     63
                      A                      A                      A
 Frequencies --   3092.2499              3101.7794              3113.3370
 Red. masses --      1.0889                 1.0867                 1.1032
 Frc consts  --      6.1349                 6.1602                 6.3005
 IR Inten    --     95.0198                32.4198                35.7642

                     64                     65                     66
                      A                      A                      A
 Frequencies --   3495.5994              3504.5137              3593.2335
 Red. masses --      1.0744                 1.0750                 1.0645
 Frc consts  --      7.7353                 7.7785                 8.0976
 IR Inten    --      2.9984                 1.5114                74.3499

 - Thermochemistry -
 -------------------
 Temperature   298.150 Kelvin.  Pressure   1.00000 Atm.
 Atom     1 has atomic number  6 and mass  12.00000

 Molecular mass:   142.11061 amu.
 Principal axes and moments of inertia in atomic units:
                           1         2         3
     Eigenvalues --   653.655801880.568202120.45425
           X            0.99999  -0.00049  -0.00319
           Y            0.00050   1.00000   0.00250
           Z            0.00319  -0.00250   0.99999
 This molecule is an asymmetric top.
 Rotational symmetry number  1.
 Warning -- assumption of classical behavior for rotation
           may cause significant error
 Rotational temperatures (Kelvin)      0.13251     0.04606     0.04085
 Rotational constants (GHZ):           2.76100     0.95968     0.85111
 Zero-point vibrational energy     573889.4 (Joules/Mol)
                                  137.16285 (Kcal/Mol)
 Warning -- explicit consideration of  11 degrees of freedom as
           vibrations may cause significant error
 Vibrational temperatures:     69.96   166.01   230.65   340.84   372.62
          (Kelvin)            499.26   523.20   598.40   780.95   829.20
                              867.54   899.11  1009.25  1147.43  1205.24
                             1225.44  1250.39  1303.30  1315.17  1357.86
                             1390.47  1439.99  1442.66  1481.61  1508.82
                             1554.56  1558.17  1590.66  1606.72  1645.50
                             1689.35  1726.73  1739.76  1754.78  1805.38
                             1842.88  1856.73  1872.07  1879.79  1920.20
                             1956.54  1972.28  1986.58  2032.34  2047.86
                             2089.64  2121.16  2162.98  2196.93  2215.24
                             2231.91  2237.72  4233.52  4242.81  4256.42
                             4405.43  4421.65  4431.53  4434.07  4438.16
                             4449.06  4462.77  4479.40  5029.39  5042.21
                             5169.86

 Zero-point correction=                           0.218583 (Hartree/Particle)
 Thermal correction to Energy=                    0.227285
 Thermal correction to Enthalpy=                  0.228229
 Thermal correction to Gibbs Free Energy=         0.184532
 Sum of electronic and zero-point Energies=           -459.692759
 Sum of electronic and thermal Energies=              -459.684057
 Sum of electronic and thermal Enthalpies=            -459.683113
 Sum of electronic and thermal Free Energies=         -459.726810

                     E (Thermal)             CV                S
                      KCal/Mol        Cal/Mol-Kelvin    Cal/Mol-Kelvin
 Total                  142.623             34.703             91.968
 Electronic               0.000              0.000              0.000
 Translational            0.889              2.981             40.766
 Rotational               0.889              2.981             29.345
 Vibrational            140.846             28.741             21.857
 Vibration     1          0.595              1.978              4.872
 Vibration     2          0.608              1.937              3.176
 Vibration     3          0.622              1.891              2.546
 Vibration     4          0.656              1.784              1.826
 Vibration     5          0.668              1.748              1.669
 Vibration     6          0.725              1.581              1.180
 Vibration     7          0.737              1.547              1.106
 Vibration     8          0.779              1.436              0.906
 Vibration     9          0.898              1.155              0.559
 Vibration    10          0.933              1.082              0.492
 Vibration    11          0.961              1.025              0.445

 Optimization completed.
    -- Stationary point found.
 Normal termination of Gaussian 16 at Tue Dec  8 10:26:48 2020.

 ----------------------------------------------------------------------
 # B3LYP/6-311++G(d,p) empiricaldispersion=gd3bj scf=xqc pop=npa geom=c
 heck
 ----------------------------------------------------------------------

 -------------------------------------
 CID_20761870_JID_263_Energie_neutraal
 -------------------------------------
 Structure from the checkpoint file:  "JID_263.chk"
 Charge =  0 Multiplicity = 1

 SCF Done:  E(RB3LYP) =  -460.055816347     A.U. after   13 cycles
 Normal termination of Gaussian 16 at Tue Dec  8 10:28:50 2020.

 ----------------------------------------------------------------------
 # B3LYP/6-311++G(d,p) empiricaldispersion=gd3bj scf=xqc pop=npa geom=c
 heck
 ----------------------------------------------------------------------

 -----------------------------------
 CID_20761870_JID_263_Energie_kation
 -----------------------------------
 Structure from the checkpoint file:  "JID_263.chk"
 Charge =  1 Multiplicity = 2

 SCF Done:  E(UB3LYP) =  -459.752405114     A.U. after   20 cycles
 Normal termination of Gaussian 16 at Tue Dec  8 10:34:16 2020.
 Gaussian 16:  ES64L-G16RevA.03 25-Dec-2016

 ----------------------------------------------------------------------
 # B3LYP/6-311++G(d,p) empiricaldispersion=gd3bj scf=xqc pop=npa geom=c
 heck
 ----------------------------------------------------------------------

 ----------------------------------
 CID_20761870_JID_263_Energie_anion
 ----------------------------------
 Structure from the checkpoint file:  "JID_263.chk"
 Charge = -1 Multiplicity = 2

                         Standard orientation:
 ---------------------------------------------------------------------
 Center     Atomic      Atomic             Coordinates (Angstroms)
 Number     Number       Type             X           Y           Z
 ---------------------------------------------------------------------
      1          6           0        2.323305    0.664189    0.153655
      2          6           0        0.944116    0.721145    0.845251
      3          6           0       -0.074312    1.631713    0.120970
      4          7           0       -0.757744    0.801628   -0.885427
      5          6           0       -0.880292   -0.526878   -0.246403
      6          6           0        0.366927   -0.726370    0.650654
      7          6           0        1.504123   -1.484312   -0.056961
      8          7           0        2.163431   -0.420450   -0.821293
      9          6           0       -2.196432   -0.549638    0.541990
     10          8           0       -3.263558   -0.120643   -0.275009
     11          1           0        2.589150    1.601937   -0.346894
     12          1           0        3.105691    0.448821    0.904899
     13          1           0        1.049798    1.000457    1.897166
     14          1           0        0.388565    2.499844   -0.357936
     15          1           0       -0.816944    2.009212    0.833049
     16          1           0       -0.125678    0.696469   -1.677620
     17          1           0       -0.945071   -1.282069   -1.036646
     18          1           0        0.100805   -1.208281    1.596998
     19          1           0        1.143010   -2.277167   -0.720663
     20          1           0        2.171028   -1.947148    0.694658
     21          1           0        3.056287   -0.722536   -1.205761
     22          1           0       -2.411907   -1.569280    0.882092
     23          1           0       -2.100192    0.079632    1.445715
     24          1           0       -2.860498    0.587913   -0.816892
 ---------------------------------------------------------------------

 SCF Done:  E(UB3LYP) =  -460.042752258     A.U. after   26 cycles

 The electronic state is 2-A.
 Alpha  occ. eigenvalues --  -19.01100 -14.20000 -14.18748 -10.10844 -10.09317
 Alpha  occ. eigenvalues --  -10.08657 -10.08040 -10.07757 -10.06769 -10.06524
 Alpha  occ. eigenvalues --   -0.91861  -0.83023  -0.79658  -0.66012  -0.64980
 Alpha  occ. eigenvalues --   -0.59777  -0.55611  -0.50173  -0.46557  -0.44925
 Alpha  occ. eigenvalues --   -0.42192  -0.40877  -0.37960  -0.37080  -0.33417
 Alpha  occ. eigenvalues --   -0.33090  -0.31419  -0.30893  -0.27742  -0.27351
 Alpha  occ. eigenvalues --   -0.26798  -0.24681  -0.23280  -0.22959  -0.22021
 Alpha  occ. eigenvalues --   -0.20819  -0.17125  -0.15321  -0.11655   0.04718
 Alpha virt. eigenvalues --    0.07587   0.07824   0.08406   0.09854   0.10203
 Alpha virt. eigenvalues --    0.10619   0.10757   0.11314   0.13002   0.13520
 Alpha virt. eigenvalues --    0.13731   0.14073   0.15233   0.16312   0.17239

  Beta  occ. eigenvalues --  -19.01097 -14.19997 -14.18712 -10.10831 -10.09314
  Beta  occ. eigenvalues --  -10.08639 -10.08008 -10.07720 -10.06758 -10.06509
  Beta  occ. eigenvalues --   -0.91853  -0.82996  -0.79622  -0.65974  -0.64937
  Beta  occ. eigenvalues --   -0.59726  -0.55557  -0.50107  -0.46492  -0.44881
  Beta  occ. eigenvalues --   -0.42159  -0.40779  -0.37925  -0.37049  -0.33395
  Beta  occ. eigenvalues --   -0.33036  -0.31368  -0.30860  -0.27696  -0.27321
  Beta  occ. eigenvalues --   -0.26754  -0.24648  -0.23246  -0.22904  -0.21976
  Beta  occ. eigenvalues --   -0.20797  -0.17112  -0.15296  -0.11584
  Beta virt. eigenvalues --    0.07380   0.08513   0.08666   0.08998   0.10474
  Beta virt. eigenvalues --    0.10783   0.11235   0.11343   0.11798   0.13516
  Beta virt. eigenvalues --    0.13933   0.14194   0.14571   0.15465   0.16447

 Mulliken charges and spin densities:
               1          2
     1  C    1.783874  -2.358221
     2  C   -1.210814   1.429706
     3  C    0.914373  -1.433244
     4  N   -0.213611  -0.007489
     5  C   -0.308790   0.000368
     6  C   -0.273921   0.456743
     7  C    1.289122  -1.886461
     8  N   -0.421657   0.221589
     9  C    0.094521  -0.533282
    10  O   -0.277387   0.014854
    11  H   -0.405914   0.552633
    12  H   -0.584212   0.733977
    13  H   -0.648405   0.880168
    14  H   -0.103628   0.279643
    15  H   -0.001176   0.146498
    16  H    0.197413   0.084691
    17  H    0.196570   0.030989
    18  H   -0.193928   0.450965
    19  H   -0.265101   0.403192
    20  H   -0.578190   0.720359
    21  H   -0.189501   0.449961
    22  H   -0.002217   0.155328
    23  H   -0.067903   0.213003
    24  H    0.270482  -0.005974
 Sum of Mulliken charges =  -1.00000   1.00000

 Dipole moment (field-independent basis, Debye):
    X=             -5.4334    Y=              0.8549    Z=             -2.5828  Tot=              6.0764
 Quadrupole moment (field-independent basis, Debye-Ang):
   XX=           -129.5812   YY=            -96.9837   ZZ=            -96.9577
   XY=              2.0585   XZ=             -4.1921   YZ=             -0.4407

 Summary of Natural Population Analysis:

                                       Natural Population
                Natural  -----------------------------------------------
    Atom  No    Charge         Core      Valence    Rydberg      Total
 -----------------------------------------------------------------------
      C    1   -0.08716      0.99961     2.07494    0.01261     3.08716
      C    2   -0.12077      0.99959     2.10842    0.01276     3.12077
      C    3   -0.09080      0.99962     2.07853    0.01266     3.09080
      N    4   -0.35694      0.99975     2.84558    0.01162     3.85694
      C    5   -0.02385      0.99958     2.01027    0.01400     3.02385
      C    6   -0.12018      0.99957     2.10754    0.01306     3.12018
      C    7   -0.08516      0.99961     2.07291    0.01264     3.08516
      N    8   -0.34853      0.99975     2.83559    0.01319     3.84853
      C    9   -0.01037      0.99957     1.99716    0.01364     3.01037
      O   10   -0.37872      0.99990     3.37200    0.00682     4.37872
      H   11    0.09362      0.00000     0.40442    0.00196     0.40638
      H   12    0.08695      0.00000     0.40852    0.00453     0.41305
      H   13    0.10822      0.00000     0.38911    0.00266     0.39178
      H   14    0.09750      0.00000     0.40155    0.00096     0.40250
      H   15    0.09096      0.00000     0.40767    0.00138     0.40904
      H   16    0.18391      0.00000     0.31274    0.00335     0.31609
      H   17    0.09719      0.00000     0.40160    0.00121     0.40281
      H   18    0.10757      0.00000     0.39058    0.00185     0.39243
      H   19    0.09270      0.00000     0.40579    0.00151     0.40730
      H   20    0.08582      0.00000     0.41087    0.00331     0.41418
      H   21    0.18126      0.00000     0.31359    0.00515     0.31874
      H   22    0.08548      0.00000     0.41332    0.00120     0.41452
      H   23    0.07403      0.00000     0.42456    0.00140     0.42597
      H   24    0.23726      0.00000     0.25939    0.00335     0.26274
 =======================================================================
   * Total *    0.00000      9.99656    28.84664    0.15680    39.00000

 Normal termination of Gaussian 16 at Tue Dec  8 10:42:32 2020.
