 Gaussian 16, Revision A.03,

 -----------------------------------------------------------
 # opt freq B3LYP/6-31G(d) empiricaldispersion=gd3bj scf=xqc
 -----------------------------------------------------------

 -------------------------------
 CID_149272951_JID_1957_neutraal
 -------------------------------
 Symbolic Z-matrix:
 Charge =  0 Multiplicity = 1

 SCF Done:  E(RB3LYP) =  -517.873917394     A.U. after   15 cycles
 SCF Done:  E(RB3LYP) =  -517.877436273     A.U. after   13 cycles
 SCF Done:  E(RB3LYP) =  -517.878076145     A.U. after   13 cycles
 SCF Done:  E(RB3LYP) =  -517.878206183     A.U. after   13 cycles
 SCF Done:  E(RB3LYP) =  -517.878827163     A.U. after   13 cycles
 SCF Done:  E(RB3LYP) =  -517.878823085     A.U. after   12 cycles
 SCF Done:  E(RB3LYP) =  -517.878916633     A.U. after   11 cycles
 SCF Done:  E(RB3LYP) =  -517.878935109     A.U. after   10 cycles
 SCF Done:  E(RB3LYP) =  -517.878942857     A.U. after   10 cycles
 SCF Done:  E(RB3LYP) =  -517.878944527     A.U. after    9 cycles
 SCF Done:  E(RB3LYP) =  -517.878946138     A.U. after   10 cycles
 SCF Done:  E(RB3LYP) =  -517.878946539     A.U. after    8 cycles
 SCF Done:  E(RB3LYP) =  -517.878946612     A.U. after    7 cycles
 SCF Done:  E(RB3LYP) =  -517.878946628     A.U. after    7 cycles
 Optimization completed.
    -- Stationary point found.
 Normal termination of Gaussian 16 at Tue Dec  8 21:44:36 2020.

 --------------------------------------------------------------------
 #N Geom=AllCheck Guess=TCheck SCRF=Check GenChk RB3LYP/6-31G(d) Freq
 --------------------------------------------------------------------

 Structure from the checkpoint file:  "JID_1957.chk"
 -------------------------------
 CID_149272951_JID_1957_neutraal
 -------------------------------
 Charge =  0 Multiplicity = 1

 SCF Done:  E(RB3LYP) =  -517.878946628     A.U. after    1 cycles

  Exact polarizability: 122.599  23.306  97.296   4.679  11.936  76.195
 Approx polarizability: 165.601  52.196 154.447  17.069  30.475 117.835

                      1                      2                      3
                      A                      A                      A
 Frequencies --     36.1813                44.9357               103.2788
 Red. masses --      4.2418                 3.9878                 3.1118
 Frc consts  --      0.0033                 0.0047                 0.0196
 IR Inten    --      1.0076                 3.4551                 0.4451

                      4                      5                      6
                      A                      A                      A
 Frequencies --    131.8698               138.3414               153.2865
 Red. masses --      3.0162                 1.7871                 2.9509
 Frc consts  --      0.0309                 0.0202                 0.0409
 IR Inten    --      0.6919                 0.0991                 1.2211

                      7                      8                      9
                      A                      A                      A
 Frequencies --    173.9277               190.3595               223.1485
 Red. masses --      1.1987                 2.6498                 1.5191
 Frc consts  --      0.0214                 0.0566                 0.0446
 IR Inten    --      0.8611                 4.6978                 0.2289

                     10                     11                     12
                      A                      A                      A
 Frequencies --    253.7272               302.1546               322.7891
 Red. masses --      3.7988                 2.8448                 2.9868
 Frc consts  --      0.1441                 0.1530                 0.1834
 IR Inten    --      3.0947                 4.5879                 1.7550

                     13                     14                     15
                      A                      A                      A
 Frequencies --    388.7659               459.6398               477.1935
 Red. masses --      3.6100                 2.6575                 3.2737
 Frc consts  --      0.3215                 0.3308                 0.4392
 IR Inten    --      4.2138                 4.2647                 6.7011

                     16                     17                     18
                      A                      A                      A
 Frequencies --    509.7910               606.4541               606.5486
 Red. masses --      1.9511                 2.5895                 2.0758
 Frc consts  --      0.2988                 0.5611                 0.4500
 IR Inten    --     32.3954                10.7710                30.2054

                     19                     20                     21
                      A                      A                      A
 Frequencies --    648.1603               710.5218               728.8657
 Red. masses --      2.7967                 4.5244                 1.2276
 Frc consts  --      0.6922                 1.3458                 0.3842
 IR Inten    --     48.4771                10.7821                 0.7419

                     22                     23                     24
                      A                      A                      A
 Frequencies --    824.3435               837.9248               850.0061
 Red. masses --      2.9310                 1.6537                 2.8631
 Frc consts  --      1.1735                 0.6841                 1.2188
 IR Inten    --     42.2215                 4.6962                21.8272

                     25                     26                     27
                      A                      A                      A
 Frequencies --    850.1540               946.0852              1006.9469
 Red. masses --      1.7195                 1.6197                 1.0747
 Frc consts  --      0.7322                 0.8542                 0.6420
 IR Inten    --     32.9191                 5.9727                28.6894

                     28                     29                     30
                      A                      A                      A
 Frequencies --   1012.3724              1034.2952              1077.1892
 Red. masses --      1.6323                 2.0063                 1.5266
 Frc consts  --      0.9857                 1.2646                 1.0437
 IR Inten    --     11.4844                14.7455                 0.1910

                     31                     32                     33
                      A                      A                      A
 Frequencies --   1092.6473              1120.6554              1147.3203
 Red. masses --      2.1683                 3.1794                 3.0676
 Frc consts  --      1.5252                 2.3526                 2.3792
 IR Inten    --     35.4911                31.0340                59.2024

                     34                     35                     36
                      A                      A                      A
 Frequencies --   1157.6065              1206.2372              1295.6306
 Red. masses --      1.2817                 2.1279                 1.1656
 Frc consts  --      1.0119                 1.8242                 1.1528
 IR Inten    --      6.8899                 2.3012                19.0970

                     37                     38                     39
                      A                      A                      A
 Frequencies --   1315.1503              1342.9566              1346.4985
 Red. masses --      1.2571                 1.8242                 1.5847
 Frc consts  --      1.2811                 1.9385                 1.6928
 IR Inten    --      1.2716               105.4083                27.4373

                     40                     41                     42
                      A                      A                      A
 Frequencies --   1398.3456              1408.7794              1441.6304
 Red. masses --      1.8949                 2.0384                 1.2516
 Frc consts  --      2.1831                 2.3835                 1.5326
 IR Inten    --     55.6452                70.8839                 2.2872

                     43                     44                     45
                      A                      A                      A
 Frequencies --   1469.8617              1486.4681              1503.6251
 Red. masses --      1.2502                 1.6600                 1.2347
 Frc consts  --      1.5914                 2.1611                 1.6447
 IR Inten    --      2.1623                20.0634                 9.0435

                     46                     47                     48
                      A                      A                      A
 Frequencies --   1508.1064              1517.5194              1519.3539
 Red. masses --      1.0455                 1.0471                 1.0901
 Frc consts  --      1.4010                 1.4208                 1.4827
 IR Inten    --      5.6872                12.4483                 7.0984

                     49                     50                     51
                      A                      A                      A
 Frequencies --   1522.5488              1549.3842              1683.3913
 Red. masses --      1.0961                 1.1474                 4.5406
 Frc consts  --      1.4971                 1.6228                 7.5812
 IR Inten    --      7.6984                40.2505                65.2770

                     52                     53                     54
                      A                      A                      A
 Frequencies --   1746.3133              1786.8015              3030.3217
 Red. masses --      5.6874                 7.8497                 1.0376
 Frc consts  --     10.2190                14.7658                 5.6138
 IR Inten    --     15.1948               298.6430                40.5551

                     55                     56                     57
                      A                      A                      A
 Frequencies --   3059.7955              3074.3680              3075.1606
 Red. masses --      1.0373                 1.0574                 1.0996
 Frc consts  --      5.7219                 5.8882                 6.1266
 IR Inten    --     33.1038                25.6838                24.8418

                     58                     59                     60
                      A                      A                      A
 Frequencies --   3117.9002              3124.4172              3125.6449
 Red. masses --      1.1001                 1.1019                 1.1083
 Frc consts  --      6.3011                 6.3377                 6.3795
 IR Inten    --     17.9264                31.6186                 5.1170

                     61                     62                     63
                      A                      A                      A
 Frequencies --   3156.1495              3174.4625              3187.9024
 Red. masses --      1.1033                 1.0911                 1.0869
 Frc consts  --      6.4756                 6.4781                 6.5078
 IR Inten    --     17.7443                 5.7371                16.7835

                     64                     65                     66
                      A                      A                      A
 Frequencies --   3204.3484              3289.7604              3603.7017
 Red. masses --      1.0609                 1.1161                 1.0760
 Frc consts  --      6.4182                 7.1168                 8.2330
 IR Inten    --      3.4309                 3.8165                25.0533

 - Thermochemistry -
 -------------------
 Temperature   298.150 Kelvin.  Pressure   1.00000 Atm.
 Atom     1 has atomic number  6 and mass  12.00000

 Molecular mass:   155.09463 amu.
 Principal axes and moments of inertia in atomic units:
                           1         2         3
     Eigenvalues --   897.909702939.439963374.63611
           X            0.99999   0.00361  -0.00367
           Y           -0.00357   0.99992   0.01196
           Z            0.00371  -0.01195   0.99992
 This molecule is an asymmetric top.
 Rotational symmetry number  1.
 Warning -- assumption of classical behavior for rotation
           may cause significant error
 Rotational temperatures (Kelvin)      0.09646     0.02947     0.02567
 Rotational constants (GHZ):           2.00994     0.61397     0.53480
 Zero-point vibrational energy     534970.1 (Joules/Mol)
                                  127.86093 (Kcal/Mol)
 Warning -- explicit consideration of  18 degrees of freedom as
           vibrations may cause significant error
 Vibrational temperatures:     52.06    64.65   148.60   189.73   199.04
          (Kelvin)            220.55   250.24   273.88   321.06   365.06
                              434.73   464.42   559.35   661.32   686.58
                              733.48   872.55   872.69   932.56  1022.28
                             1048.68  1186.05  1205.59  1222.97  1223.18
                             1361.21  1448.77  1456.58  1488.12  1549.83
                             1572.08  1612.37  1650.74  1665.54  1735.51
                             1864.12  1892.21  1932.21  1937.31  2011.91
                             2026.92  2074.18  2114.80  2138.70  2163.38
                             2169.83  2183.37  2186.01  2190.61  2229.22
                             2422.02  2512.56  2570.81  4359.96  4402.36
                             4423.33  4424.47  4485.96  4495.34  4497.11
                             4541.00  4567.34  4586.68  4610.34  4733.23
                             5184.92

 Zero-point correction=                           0.203759 (Hartree/Particle)
 Thermal correction to Energy=                    0.216351
 Thermal correction to Enthalpy=                  0.217295
 Thermal correction to Gibbs Free Energy=         0.164359
 Sum of electronic and zero-point Energies=           -517.675187
 Sum of electronic and thermal Energies=              -517.662595
 Sum of electronic and thermal Enthalpies=            -517.661651
 Sum of electronic and thermal Free Energies=         -517.714587

                     E (Thermal)             CV                S
                      KCal/Mol        Cal/Mol-Kelvin    Cal/Mol-Kelvin
 Total                  135.762             45.021            111.414
 Electronic               0.000              0.000              0.000
 Translational            0.889              2.981             41.026
 Rotational               0.889              2.981             30.566
 Vibrational            133.985             39.060             39.821
 Vibration     1          0.594              1.982              5.458
 Vibration     2          0.595              1.979              5.029
 Vibration     3          0.605              1.947              3.391
 Vibration     4          0.612              1.921              2.919
 Vibration     5          0.614              1.915              2.827
 Vibration     6          0.619              1.899              2.631
 Vibration     7          0.627              1.875              2.393
 Vibration     8          0.634              1.853              2.224
 Vibration     9          0.649              1.806              1.933
 Vibration    10          0.665              1.756              1.705
 Vibration    11          0.694              1.670              1.405
 Vibration    12          0.708              1.630              1.296
 Vibration    13          0.757              1.494              1.005
 Vibration    14          0.818              1.340              0.767
 Vibration    15          0.834              1.301              0.718
 Vibration    16          0.865              1.228              0.634
 Vibration    17          0.965              1.018              0.439
 Vibration    18          0.965              1.018              0.439

 Optimization completed.
    -- Stationary point found.
 Normal termination of Gaussian 16 at Tue Dec  8 21:49:26 2020.

 ----------------------------------------------------------------------
 # B3LYP/6-311++G(d,p) empiricaldispersion=gd3bj scf=xqc pop=npa geom=c
 heck
 ----------------------------------------------------------------------

 ---------------------------------------
 CID_149272951_JID_1957_Energie_neutraal
 ---------------------------------------
 Structure from the checkpoint file:  "JID_1957.chk"
 Charge =  0 Multiplicity = 1

 SCF Done:  E(RB3LYP) =  -518.035729145     A.U. after   14 cycles
 Normal termination of Gaussian 16 at Tue Dec  8 21:52:57 2020.

 ----------------------------------------------------------------------
 # B3LYP/6-311++G(d,p) empiricaldispersion=gd3bj scf=xqc pop=npa geom=c
 heck
 ----------------------------------------------------------------------

 -------------------------------------
 CID_149272951_JID_1957_Energie_kation
 -------------------------------------
 Structure from the checkpoint file:  "JID_1957.chk"
 Charge =  1 Multiplicity = 2

 SCF Done:  E(UB3LYP) =  -517.737754805     A.U. after   22 cycles
 Normal termination of Gaussian 16 at Tue Dec  8 21:56:41 2020.
 Gaussian 16:  ES64L-G16RevA.03 25-Dec-2016

 ----------------------------------------------------------------------
 # B3LYP/6-311++G(d,p) empiricaldispersion=gd3bj scf=xqc pop=npa geom=c
 heck
 ----------------------------------------------------------------------

 ------------------------------------
 CID_149272951_JID_1957_Energie_anion
 ------------------------------------
 Structure from the checkpoint file:  "JID_1957.chk"
 Charge = -1 Multiplicity = 2

                         Standard orientation:
 ---------------------------------------------------------------------
 Center     Atomic      Atomic             Coordinates (Angstroms)
 Number     Number       Type             X           Y           Z
 ---------------------------------------------------------------------
      1          6           0        4.159174    0.571035   -0.010497
      2          6           0        2.721719    0.257677    0.271858
      3          6           0        2.006060   -0.669475   -0.379440
      4          6           0        0.601255   -0.984267   -0.119767
      5          6           0       -0.078617   -1.911090   -0.818167
      6          8           0        0.078317   -0.219707    0.894072
      7          6           0       -1.294438   -0.391465    1.205427
      8          6           0       -2.276489    0.039316    0.107001
      9          8           0       -3.271029   -0.639794   -0.124472
     10          7           0       -2.029517    1.208687   -0.545021
     11          6           0       -0.900790    2.117916   -0.406068
     12          1           0        4.556757   -0.048243   -0.821378
     13          1           0        4.781788    0.408070    0.879702
     14          1           0        4.288299    1.625193   -0.291506
     15          1           0        2.240016    0.824741    1.065429
     16          1           0        2.467362   -1.252687   -1.174035
     17          1           0       -1.124749   -2.139215   -0.662898
     18          1           0        0.437257   -2.459399   -1.597569
     19          1           0       -1.523213   -1.435283    1.441282
     20          1           0       -1.463066    0.215206    2.101258
     21          1           0       -2.697623    1.392484   -1.282657
     22          1           0       -0.019341    1.781257   -0.963208
     23          1           0       -1.205565    3.098935   -0.780443
     24          1           0       -0.616854    2.226257    0.642299
 ---------------------------------------------------------------------

 SCF Done:  E(UB3LYP) =  -518.022781061     A.U. after   33 cycles
 SCF Done:  E(UB3LYP) =  -518.022781061     a.u. after    1 cycles

 The electronic state is 2-A.
 Alpha  occ. eigenvalues --  -19.06197 -18.99220 -14.23969 -10.17717 -10.14019
 Alpha  occ. eigenvalues --  -10.13964 -10.09607 -10.07628 -10.07262 -10.06789
 Alpha  occ. eigenvalues --  -10.05988  -0.98074  -0.94101  -0.82232  -0.71751
 Alpha  occ. eigenvalues --   -0.66826  -0.63528  -0.60288  -0.58915  -0.50806
 Alpha  occ. eigenvalues --   -0.48027  -0.46398  -0.41569  -0.39390  -0.39205
 Alpha  occ. eigenvalues --   -0.37221  -0.35566  -0.34367  -0.32711  -0.32180
 Alpha  occ. eigenvalues --   -0.31518  -0.30692  -0.29959  -0.28554  -0.27526
 Alpha  occ. eigenvalues --   -0.26668  -0.25667  -0.24779  -0.18644  -0.15927
 Alpha  occ. eigenvalues --   -0.15763  -0.12658   0.04487
 Alpha virt. eigenvalues --    0.06582   0.06838   0.07737   0.08057   0.09154
 Alpha virt. eigenvalues --    0.09729   0.10070   0.10541   0.11173   0.11724
 Alpha virt. eigenvalues --    0.12506   0.13080   0.13486   0.14355   0.14754

  Beta  occ. eigenvalues --  -19.06190 -18.99211 -14.23950 -10.17710 -10.14007
  Beta  occ. eigenvalues --  -10.13947 -10.09547 -10.07595 -10.07249 -10.06749
  Beta  occ. eigenvalues --  -10.05972  -0.98058  -0.94080  -0.82193  -0.71702
  Beta  occ. eigenvalues --   -0.66773  -0.63484  -0.60195  -0.58849  -0.50759
  Beta  occ. eigenvalues --   -0.47945  -0.46353  -0.41527  -0.39314  -0.39157
  Beta  occ. eigenvalues --   -0.37185  -0.35520  -0.34324  -0.32656  -0.32138
  Beta  occ. eigenvalues --   -0.31449  -0.30659  -0.29903  -0.28505  -0.27485
  Beta  occ. eigenvalues --   -0.26622  -0.25610  -0.24742  -0.18584  -0.15891
  Beta  occ. eigenvalues --   -0.15721  -0.12556
  Beta virt. eigenvalues --    0.06924   0.07030   0.07779   0.08223   0.08749
  Beta virt. eigenvalues --    0.09459   0.10288   0.10531   0.11073   0.11504
  Beta virt. eigenvalues --    0.12144   0.13020   0.13385   0.13642   0.14523

 Mulliken charges and spin densities:
               1          2
     1  C    1.856872  -2.544446
     2  C   -1.081104   1.196746
     3  C    0.172534  -0.553074
     4  C    0.720178   0.064450
     5  C   -0.933584   0.112975
     6  O   -0.096530   0.057733
     7  C    0.541307  -0.945336
     8  C   -0.235049   0.386872
     9  O   -0.351668   0.017234
    10  N   -0.350338   0.146168
    11  C    1.187469  -1.648384
    12  H   -0.372080   0.504005
    13  H   -0.304286   0.449238
    14  H   -0.279372   0.432497
    15  H   -0.211045   0.378491
    16  H   -0.015791   0.167221
    17  H    0.167671  -0.017903
    18  H   -0.005024   0.134841
    19  H    0.235087  -0.025897
    20  H   -0.232003   0.424828
    21  H   -0.076633   0.380314
    22  H    0.129449   0.058319
    23  H   -1.131047   1.300464
    24  H   -0.335013   0.522642
 Sum of Mulliken charges =  -1.00000   1.00000

 Dipole moment (field-independent basis, Debye):
    X=             -1.3165    Y=             -5.8471    Z=              0.7396  Tot=              6.0389
 Quadrupole moment (field-independent basis, Debye-Ang):
   XX=           -142.3047   YY=           -116.0203   ZZ=            -94.2415
   XY=             -0.1138   XZ=             -4.5383   YZ=              3.5760

 Summary of Natural Population Analysis:

                                       Natural Population
                Natural  -----------------------------------------------
    Atom  No    Charge         Core      Valence    Rydberg      Total
 -----------------------------------------------------------------------
      C    1   -0.29852      0.99965     2.29397    0.00490     3.29852
      C    2   -0.06177      0.99954     2.05196    0.01026     3.06177
      C    3   -0.12881      0.99947     2.11832    0.01102     3.12881
      C    4    0.15481      0.99939     1.83062    0.01518     2.84519
      C    5   -0.25058      0.99953     2.24536    0.00568     3.25058
      O    6   -0.28082      0.99986     3.26980    0.01116     4.28082
      C    7   -0.05238      0.99952     2.04073    0.01213     3.05238
      C    8    0.32634      0.99967     1.65028    0.02370     2.67366
      O    9   -0.32840      0.99988     3.32282    0.00570     4.32840
      N   10   -0.31005      0.99967     2.79953    0.01084     3.81005
      C   11   -0.17884      0.99964     2.17031    0.00889     3.17884
      H   12    0.09842      0.00000     0.40014    0.00144     0.40158
      H   13    0.10447      0.00000     0.39333    0.00220     0.39553
      H   14    0.10580      0.00000     0.39267    0.00153     0.39420
      H   15    0.09957      0.00000     0.39831    0.00211     0.40043
      H   16    0.09594      0.00000     0.40239    0.00167     0.40406
      H   17    0.10507      0.00000     0.39374    0.00119     0.39493
      H   18    0.09964      0.00000     0.39957    0.00079     0.40036
      H   19    0.09758      0.00000     0.40125    0.00116     0.40242
      H   20    0.10515      0.00000     0.39366    0.00119     0.39485
      H   21    0.19565      0.00000     0.30165    0.00270     0.30435
      H   22    0.09841      0.00000     0.39951    0.00208     0.40159
      H   23    0.10251      0.00000     0.39301    0.00448     0.39749
      H   24    0.10081      0.00000     0.39684    0.00236     0.39919
 =======================================================================
   * Total *   -0.00000     10.99583    30.85979    0.14438    42.00000

 Normal termination of Gaussian 16 at Tue Dec  8 22:02:19 2020.
