 Gaussian 16, Revision A.03,

 -----------------------------------------------------------
 # opt freq B3LYP/6-31G(d) empiricaldispersion=gd3bj scf=xqc
 -----------------------------------------------------------

 ------------------------------
 CID_63624089_JID_4000_neutraal
 ------------------------------
 Symbolic Z-matrix:
 Charge =  0 Multiplicity = 1

 SCF Done:  E(RB3LYP) =  -940.167563747     A.U. after   14 cycles
 SCF Done:  E(RB3LYP) =  -940.173450794     A.U. after   12 cycles
 SCF Done:  E(RB3LYP) =  -940.174085504     A.U. after   12 cycles
 SCF Done:  E(RB3LYP) =  -940.174081530     A.U. after   12 cycles
 SCF Done:  E(RB3LYP) =  -940.174429322     A.U. after   12 cycles
 SCF Done:  E(RB3LYP) =  -940.174444595     A.U. after   10 cycles
 SCF Done:  E(RB3LYP) =  -940.174452868     A.U. after    8 cycles
 SCF Done:  E(RB3LYP) =  -940.174455372     A.U. after    9 cycles
 SCF Done:  E(RB3LYP) =  -940.174456792     A.U. after    8 cycles
 SCF Done:  E(RB3LYP) =  -940.174457364     A.U. after    8 cycles
 SCF Done:  E(RB3LYP) =  -940.174457639     A.U. after    7 cycles
 SCF Done:  E(RB3LYP) =  -940.174457760     A.U. after    7 cycles
 Optimization completed.
    -- Stationary point found.
 Normal termination of Gaussian 16 at Thu Dec 10 09:16:56 2020.

 --------------------------------------------------------------------
 #N Geom=AllCheck Guess=TCheck SCRF=Check GenChk RB3LYP/6-31G(d) Freq
 --------------------------------------------------------------------

 Structure from the checkpoint file:  "JID_4000.chk"
 ------------------------------
 CID_63624089_JID_4000_neutraal
 ------------------------------
 Charge =  0 Multiplicity = 1

 SCF Done:  E(RB3LYP) =  -940.174457760     A.U. after    1 cycles

  Exact polarizability: 157.892  -2.584 138.275  -1.269  -4.625 135.929
 Approx polarizability: 186.608  -7.845 194.395  -2.152 -15.509 248.154

                      1                      2                      3
                      A                      A                      A
 Frequencies --     38.0569                42.3750                77.0471
 Red. masses --      3.9604                 3.6443                 4.3241
 Frc consts  --      0.0034                 0.0039                 0.0151
 IR Inten    --      2.2843                 2.3778                 5.6715

                      4                      5                      6
                      A                      A                      A
 Frequencies --     97.5196               107.9403               147.8565
 Red. masses --      3.0424                 2.8120                 2.2023
 Frc consts  --      0.0170                 0.0193                 0.0284
 IR Inten    --      0.8992                 0.0310                 0.1099

                      7                      8                      9
                      A                      A                      A
 Frequencies --    181.2203               200.4698               215.6976
 Red. masses --      2.9529                 2.2532                 2.8772
 Frc consts  --      0.0571                 0.0534                 0.0789
 IR Inten    --      0.8034                 2.1968                 0.7676

                     10                     11                     12
                      A                      A                      A
 Frequencies --    249.0608               264.4065               269.4653
 Red. masses --      1.4508                 1.6205                 1.4550
 Frc consts  --      0.0530                 0.0668                 0.0622
 IR Inten    --      0.1934                 0.0989                 0.7293

                     13                     14                     15
                      A                      A                      A
 Frequencies --    299.6598               332.9397               334.7617
 Red. masses --      2.3581                 1.2892                 2.5017
 Frc consts  --      0.1248                 0.0842                 0.1652
 IR Inten    --      0.6131               167.2290                19.6250

                     16                     17                     18
                      A                      A                      A
 Frequencies --    356.2682               362.8155               389.5866
 Red. masses --      2.3382                 2.5721                 2.7503
 Frc consts  --      0.1749                 0.1995                 0.2459
 IR Inten    --      1.8991                 1.0774                 0.9881

                     19                     20                     21
                      A                      A                      A
 Frequencies --    410.7138               427.8401               474.2474
 Red. masses --      2.4326                 2.6058                 2.2819
 Frc consts  --      0.2418                 0.2810                 0.3024
 IR Inten    --      1.0814                 0.5492                 0.5456

                     22                     23                     24
                      A                      A                      A
 Frequencies --    510.6637               546.1272               592.8734
 Red. masses --      2.6746                 2.3408                 2.4651
 Frc consts  --      0.4109                 0.4113                 0.5105
 IR Inten    --      1.9062                 0.7332                 2.9019

                     25                     26                     27
                      A                      A                      A
 Frequencies --    641.3971               666.5828               704.1778
 Red. masses --      1.1843                 3.4645                 3.0643
 Frc consts  --      0.2870                 0.9070                 0.8952
 IR Inten    --      8.7594                 3.5987                 7.3201

                     28                     29                     30
                      A                      A                      A
 Frequencies --    742.2723               819.9740               839.3980
 Red. masses --      2.6330                 2.8825                 1.3730
 Frc consts  --      0.8547                 1.1419                 0.5700
 IR Inten    --      2.2012                 6.5553                16.7548

                     31                     32                     33
                      A                      A                      A
 Frequencies --    850.3082               890.2530               919.1662
 Red. masses --      1.8438                 1.6279                 1.8557
 Frc consts  --      0.7854                 0.7602                 0.9237
 IR Inten    --      0.5428                 3.6837                 0.7536

                     34                     35                     36
                      A                      A                      A
 Frequencies --    945.1060               968.2473               978.5767
 Red. masses --      2.1867                 1.9197                 2.0957
 Frc consts  --      1.1508                 1.0603                 1.1824
 IR Inten    --     10.0508                 5.0220                 1.4418

                     37                     38                     39
                      A                      A                      A
 Frequencies --    983.1414              1002.2988              1022.0740
 Red. masses --      1.7143                 1.5548                 2.0768
 Frc consts  --      0.9763                 0.9203                 1.2782
 IR Inten    --      6.6046                 2.1993                11.5044

                     40                     41                     42
                      A                      A                      A
 Frequencies --   1046.9755              1061.7018              1085.9226
 Red. masses --      1.7066                 2.5250                 2.2859
 Frc consts  --      1.1022                 1.6769                 1.5882
 IR Inten    --      2.9247                 1.2704                 7.0776

                     43                     44                     45
                      A                      A                      A
 Frequencies --   1089.9575              1117.2152              1138.1836
 Red. masses --      2.1867                 1.5780                 2.2242
 Frc consts  --      1.5306                 1.1605                 1.6977
 IR Inten    --      8.1461                 2.4010                12.5277

                     46                     47                     48
                      A                      A                      A
 Frequencies --   1150.5117              1168.3852              1189.3307
 Red. masses --      2.0158                 2.5685                 1.8027
 Frc consts  --      1.5721                 2.0659                 1.5024
 IR Inten    --      0.8911                54.5589                 8.8965

                     49                     50                     51
                      A                      A                      A
 Frequencies --   1216.2259              1251.6720              1269.1091
 Red. masses --      2.8540                 1.4591                 1.1556
 Frc consts  --      2.4873                 1.3468                 1.0966
 IR Inten    --     14.4731                 1.0705                 6.0527

                     52                     53                     54
                      A                      A                      A
 Frequencies --   1280.2784              1293.4797              1315.7309
 Red. masses --      1.3121                 1.4501                 2.0016
 Frc consts  --      1.2671                 1.4294                 2.0416
 IR Inten    --      7.1434                11.6909                15.7014

                     55                     56                     57
                      A                      A                      A
 Frequencies --   1330.5771              1332.4423              1357.8808
 Red. masses --      1.3362                 1.4243                 1.2648
 Frc consts  --      1.3938                 1.4899                 1.3740
 IR Inten    --     23.1902                62.8536                13.4778

                     58                     59                     60
                      A                      A                      A
 Frequencies --   1358.8050              1368.5718              1382.7684
 Red. masses --      1.3401                 1.3733                 1.4057
 Frc consts  --      1.4578                 1.5155                 1.5836
 IR Inten    --      4.5898                13.1955                 6.0684

                     61                     62                     63
                      A                      A                      A
 Frequencies --   1396.1369              1397.3780              1411.8536
 Red. masses --      1.4941                 1.4174                 1.4069
 Frc consts  --      1.7159                 1.6307                 1.6524
 IR Inten    --      3.7603                 8.9015                 6.1211

                     64                     65                     66
                      A                      A                      A
 Frequencies --   1423.9761              1428.2188              1439.4871
 Red. masses --      1.4842                 1.2943                 1.2776
 Frc consts  --      1.7732                 1.5555                 1.5598
 IR Inten    --      1.9055                 3.9292                22.5320

                     67                     68                     69
                      A                      A                      A
 Frequencies --   1439.8056              1448.7313              1462.9693
 Red. masses --      1.3445                 1.5389                 1.4214
 Frc consts  --      1.6421                 1.9029                 1.7924
 IR Inten    --     10.9947                60.7843                21.0776

                     70                     71                     72
                      A                      A                      A
 Frequencies --   1507.5769              1518.2083              1519.4777
 Red. masses --      1.0867                 1.0723                 1.0830
 Frc consts  --      1.4552                 1.4562                 1.4732
 IR Inten    --      4.0736                 2.3512                 0.7863

                     73                     74                     75
                      A                      A                      A
 Frequencies --   1522.4593              1524.2703              1528.6052
 Red. masses --      1.0786                 1.0925                 1.0541
 Frc consts  --      1.4730                 1.4956                 1.4511
 IR Inten    --      2.9064                 4.3077                 1.4037

                     76                     77                     78
                      A                      A                      A
 Frequencies --   1530.2492              1532.3493              1539.7494
 Red. masses --      1.0588                 1.0623                 1.0505
 Frc consts  --      1.4608                 1.4696                 1.4673
 IR Inten    --      2.7508                 5.6360                 6.1483

                     79                     80                     81
                      A                      A                      A
 Frequencies --   1541.5880              1655.4861              2835.5834
 Red. masses --      1.0970                 1.2792                 1.0793
 Frc consts  --      1.5361                 2.0656                 5.1128
 IR Inten    --     15.0509               179.1448                80.5570

                     82                     83                     84
                      A                      A                      A
 Frequencies --   2883.1593              2930.0228              3015.5365
 Red. masses --      1.0737                 1.0738                 1.0807
 Frc consts  --      5.2588                 5.4314                 5.7903
 IR Inten    --     79.9697                70.0884                 9.4437

                     85                     86                     87
                      A                      A                      A
 Frequencies --   3022.3593              3035.9205              3042.0632
 Red. masses --      1.0665                 1.0377                 1.0660
 Frc consts  --      5.7400                 5.6349                 5.8123
 IR Inten    --     29.0294                37.6194                19.7508

                     88                     89                     90
                      A                      A                      A
 Frequencies --   3046.8654              3048.4916              3066.8911
 Red. masses --      1.0413                 1.0689                 1.0932
 Frc consts  --      5.6957                 5.8526                 6.0584
 IR Inten    --     32.3315                27.8385                70.4330

                     91                     92                     93
                      A                      A                      A
 Frequencies --   3069.2833              3085.0685              3098.8550
 Red. masses --      1.0609                 1.1014                 1.1007
 Frc consts  --      5.8886                 6.1763                 6.2276
 IR Inten    --      7.3669                28.7102                59.2983

                     94                     95                     96
                      A                      A                      A
 Frequencies --   3105.4995              3107.0564              3108.8308
 Red. masses --      1.0958                 1.0970                 1.1023
 Frc consts  --      6.2268                 6.2394                 6.2771
 IR Inten    --     24.9674                 5.4088                34.8833

                     97                     98                     99
                      A                      A                      A
 Frequencies --   3119.2332              3119.8314              3129.6646
 Red. masses --      1.0990                 1.0869                 1.0895
 Frc consts  --      6.3003                 6.2332                 6.2873
 IR Inten    --     44.6100                25.9229                10.9937

                    100                    101                    102
                      A                      A                      A
 Frequencies --   3140.5236              3559.6035              3687.7539
 Red. masses --      1.1013                 1.0445                 1.1049
 Frc consts  --      6.3994                 7.7973                 8.8530
 IR Inten    --     39.5407                38.1154                32.7965

 - Thermochemistry -
 -------------------
 Temperature   298.150 Kelvin.  Pressure   1.00000 Atm.
 Atom     1 has atomic number  6 and mass  12.00000

 Molecular mass:   214.15037 amu.
 Principal axes and moments of inertia in atomic units:
                           1         2         3
     Eigenvalues --  1783.529995147.430095955.43294
           X            0.99968   0.02436  -0.00746
           Y           -0.02407   0.99906   0.03600
           Z            0.00833  -0.03581   0.99932
 This molecule is an asymmetric top.
 Rotational symmetry number  1.
 Warning -- assumption of classical behavior for rotation
           may cause significant error
 Rotational temperatures (Kelvin)      0.04856     0.01683     0.01454
 Rotational constants (GHZ):           1.01189     0.35061     0.30304
 Zero-point vibrational energy     859726.1 (Joules/Mol)
                                  205.47948 (Kcal/Mol)
 Warning -- explicit consideration of  24 degrees of freedom as
           vibrations may cause significant error
 Vibrational temperatures:     54.76    60.97   110.85   140.31   155.30
          (Kelvin)            212.73   260.74   288.43   310.34   358.34
                              380.42   387.70   431.14   479.03   481.65
                              512.59   522.01   560.53   590.93   615.57
                              682.34   734.73   785.76   853.01   922.83
                              959.06  1013.15  1067.96  1179.76  1207.71
                             1223.40  1280.88  1322.48  1359.80  1393.09
                             1407.95  1414.52  1442.08  1470.54  1506.36
                             1527.55  1562.40  1568.21  1607.42  1637.59
                             1655.33  1681.05  1711.18  1749.88  1800.88
                             1825.96  1842.04  1861.03  1893.04  1914.40
                             1917.09  1953.69  1955.02  1969.07  1989.50
                             2008.73  2010.52  2031.34  2048.78  2054.89
                             2071.10  2071.56  2084.40  2104.89  2169.07
                             2184.36  2186.19  2190.48  2193.08  2199.32
                             2201.69  2204.71  2215.36  2218.00  2381.88
                             4079.77  4148.22  4215.65  4338.68  4348.50
                             4368.01  4376.85  4383.76  4386.10  4412.57
                             4416.01  4438.73  4458.56  4468.12  4470.36
                             4472.91  4487.88  4488.74  4502.89  4518.51
                             5121.48  5305.86

 Zero-point correction=                           0.327452 (Hartree/Particle)
 Thermal correction to Energy=                    0.343055
 Thermal correction to Enthalpy=                  0.343999
 Thermal correction to Gibbs Free Energy=         0.284668
 Sum of electronic and zero-point Energies=           -939.847005
 Sum of electronic and thermal Energies=              -939.831403
 Sum of electronic and thermal Enthalpies=            -939.830459
 Sum of electronic and thermal Free Energies=         -939.889790

                     E (Thermal)             CV                S
                      KCal/Mol        Cal/Mol-Kelvin    Cal/Mol-Kelvin
 Total                  215.270             59.814            124.872
 Electronic               0.000              0.000              0.000
 Translational            0.889              2.981             41.988
 Rotational               0.889              2.981             32.369
 Vibrational            213.493             53.852             50.515
 Vibration     1          0.594              1.982              5.358
 Vibration     2          0.595              1.980              5.145
 Vibration     3          0.599              1.964              3.965
 Vibration     4          0.603              1.951              3.503
 Vibration     5          0.606              1.943              3.306
 Vibration     6          0.617              1.905              2.700
 Vibration     7          0.630              1.865              2.316
 Vibration     8          0.638              1.839              2.129
 Vibration     9          0.645              1.817              1.995
 Vibration    10          0.662              1.764              1.737
 Vibration    11          0.671              1.738              1.632
 Vibration    12          0.674              1.729              1.600
 Vibration    13          0.692              1.674              1.419
 Vibration    14          0.715              1.610              1.246
 Vibration    15          0.716              1.606              1.237
 Vibration    16          0.732              1.562              1.138
 Vibration    17          0.737              1.549              1.110
 Vibration    18          0.758              1.492              1.002
 Vibration    19          0.775              1.447              0.924
 Vibration    20          0.789              1.410              0.866
 Vibration    21          0.831              1.307              0.726
 Vibration    22          0.866              1.226              0.632
 Vibration    23          0.901              1.148              0.552
 Vibration    24          0.950              1.047              0.462

                           ! Non-Optimized Parameters !
 Normal termination of Gaussian 16 at Thu Dec 10 09:28:38 2020.

 ----------------------------------------------------------------------
 # B3LYP/6-311++G(d,p) empiricaldispersion=gd3bj scf=xqc pop=npa geom=c
 heck
 ----------------------------------------------------------------------

 --------------------------------------
 CID_63624089_JID_4000_Energie_neutraal
 --------------------------------------
 Structure from the checkpoint file:  "JID_4000.chk"
 Charge =  0 Multiplicity = 1

 SCF Done:  E(RB3LYP) =  -940.355375719     A.U. after   15 cycles
 Normal termination of Gaussian 16 at Thu Dec 10 09:34:02 2020.

 ----------------------------------------------------------------------
 # B3LYP/6-311++G(d,p) empiricaldispersion=gd3bj scf=xqc pop=npa geom=c
 heck
 ----------------------------------------------------------------------

 ------------------------------------
 CID_63624089_JID_4000_Energie_kation
 ------------------------------------
 Structure from the checkpoint file:  "JID_4000.chk"
 Charge =  1 Multiplicity = 2

 SCF Done:  E(UB3LYP) =  -940.079553978     A.U. after   25 cycles
 Normal termination of Gaussian 16 at Thu Dec 10 09:46:13 2020.
 Gaussian 16:  ES64L-G16RevA.03 25-Dec-2016

 ----------------------------------------------------------------------
 # B3LYP/6-311++G(d,p) empiricaldispersion=gd3bj scf=xqc pop=npa geom=c
 heck
 ----------------------------------------------------------------------

 -----------------------------------
 CID_63624089_JID_4000_Energie_anion
 -----------------------------------
 Structure from the checkpoint file:  "JID_4000.chk"
 Charge = -1 Multiplicity = 2

                         Standard orientation:
 ---------------------------------------------------------------------
 Center     Atomic      Atomic             Coordinates (Angstroms)
 Number     Number       Type             X           Y           Z
 ---------------------------------------------------------------------
      1          6           0        3.633004    1.584879   -0.450016
      2          6           0        2.182748    1.627937    0.039249
      3          6           0        1.315059    0.469208   -0.495999
      4          6           0        2.049078   -0.849696   -0.207684
      5         16           0        2.239406   -1.486029    1.312073
      6          7           0        2.580361   -1.425074   -1.302744
      7          7           0       -0.029406    0.422726    0.074949
      8          6           0       -0.709333    1.714855    0.084063
      9          6           0       -2.071904    1.733012    0.790724
     10          6           0       -3.206331    1.022181    0.040518
     11          6           0       -3.301496   -0.497311    0.272990
     12          6           0       -1.923889   -1.182291    0.391947
     13          6           0       -0.823102   -0.652765   -0.537540
     14          6           0       -4.155751   -1.140971   -0.826754
     15          1           0        4.165363    0.711591   -0.062364
     16          1           0        4.169263    2.479063   -0.116309
     17          1           0        3.685585    1.558329   -1.545951
     18          1           0        2.150521    1.591180    1.133438
     19          1           0        1.739765    2.575601   -0.280928
     20          1           0        1.266361    0.588666   -1.603108
     21          1           0        2.452774   -1.029249   -2.224475
     22          1           0        3.135644   -2.264437   -1.202099
     23          1           0       -0.069882    2.425752    0.609534
     24          1           0       -0.849177    2.107246   -0.946853
     25          1           0       -2.338096    2.791618    0.904594
     26          1           0       -1.960122    1.330303    1.804868
     27          1           0       -3.085392    1.219346   -1.034782
     28          1           0       -4.168908    1.471825    0.315243
     29          1           0       -3.818022   -0.655077    1.230423
     30          1           0       -2.057140   -2.255582    0.205581
     31          1           0       -1.534853   -1.095722    1.411126
     32          1           0       -1.237382   -0.338075   -1.515818
     33          1           0       -0.140971   -1.478743   -0.747669
     34          1           0       -4.345266   -2.200014   -0.617088
     35          1           0       -5.124822   -0.637003   -0.925334
     36          1           0       -3.650915   -1.077956   -1.799613
 ---------------------------------------------------------------------

 SCF Done:  E(UB3LYP) =  -940.348187979     A.U. after   33 cycles
 SCF Done:  E(UB3LYP) =  -940.348187979     a.u. after    1 cycles

 The electronic state is 2-A.
 Alpha  occ. eigenvalues --  -88.66566 -14.22554 -14.19397 -10.12234 -10.09893
 Alpha  occ. eigenvalues --  -10.08783 -10.08041 -10.07743 -10.07059 -10.06975
 Alpha  occ. eigenvalues --  -10.06750 -10.06185 -10.05764 -10.05407  -7.75348
 Alpha  occ. eigenvalues --   -5.71695  -5.71262  -5.70875  -0.83547  -0.81168
 Alpha  occ. eigenvalues --   -0.72152  -0.67993  -0.67098  -0.62248  -0.61474
 Alpha  occ. eigenvalues --   -0.58253  -0.55602  -0.53524  -0.50277  -0.47658
 Alpha  occ. eigenvalues --   -0.44632  -0.44025  -0.41805  -0.39526  -0.37855
 Alpha  occ. eigenvalues --   -0.36860  -0.36493  -0.34966  -0.33054  -0.31853
 Alpha  occ. eigenvalues --   -0.30858  -0.30277  -0.29903  -0.29386  -0.27800
 Alpha  occ. eigenvalues --   -0.26586  -0.25999  -0.25043  -0.24966  -0.24731
 Alpha  occ. eigenvalues --   -0.23445  -0.22577  -0.21710  -0.21654  -0.21338
 Alpha  occ. eigenvalues --   -0.20789  -0.11646  -0.10561  -0.08686   0.04377
 Alpha virt. eigenvalues --    0.06186   0.07146   0.07179   0.08191   0.08243
 Alpha virt. eigenvalues --    0.09233   0.09621   0.10628   0.10703   0.11011
 Alpha virt. eigenvalues --    0.11548   0.12033   0.12432   0.12983   0.13550

  Beta  occ. eigenvalues --  -88.66551 -14.22455 -14.19359 -10.11925 -10.09898
  Beta  occ. eigenvalues --  -10.08773 -10.08034 -10.07741 -10.07053 -10.06969
  Beta  occ. eigenvalues --  -10.06738 -10.06168 -10.05759 -10.05388  -7.75334
  Beta  occ. eigenvalues --   -5.71696  -5.71211  -5.70862  -0.83315  -0.81020
  Beta  occ. eigenvalues --   -0.72129  -0.67911  -0.67076  -0.62078  -0.61331
  Beta  occ. eigenvalues --   -0.58185  -0.55560  -0.53475  -0.50170  -0.47551
  Beta  occ. eigenvalues --   -0.44561  -0.43899  -0.41709  -0.39471  -0.37742
  Beta  occ. eigenvalues --   -0.36811  -0.36466  -0.34874  -0.33013  -0.31781
  Beta  occ. eigenvalues --   -0.30813  -0.30229  -0.29817  -0.29351  -0.27772
  Beta  occ. eigenvalues --   -0.26551  -0.25914  -0.24914  -0.24896  -0.24172
  Beta  occ. eigenvalues --   -0.23371  -0.22478  -0.21661  -0.21570  -0.21298
  Beta  occ. eigenvalues --   -0.20723  -0.11349  -0.10277  -0.08609
  Beta virt. eigenvalues --    0.06226   0.07337   0.07603   0.08242   0.08565
  Beta virt. eigenvalues --    0.08850   0.09493   0.10049   0.10751   0.10856
  Beta virt. eigenvalues --    0.11164   0.11834   0.12131   0.12795   0.13177

 Mulliken charges and spin densities:
               1          2
     1  C   -0.317102  -0.503143
     2  C   -0.484035   0.322912
     3  C    0.134256  -0.109882
     4  C    1.510053  -1.155624
     5  S   -0.409320  -0.315476
     6  N   -0.557747   0.412392
     7  N    0.441576   0.092498
     8  C   -0.006242  -0.325952
     9  C   -0.248236  -0.154923
    10  C    0.076722  -0.391775
    11  C   -0.143631   0.544267
    12  C   -0.114365  -0.123214
    13  C   -0.721465  -0.243402
    14  C   -0.107277  -0.614866
    15  H    0.220007  -0.038838
    16  H   -0.153759   0.287188
    17  H    0.001453   0.144080
    18  H    0.153263  -0.009270
    19  H   -0.154917   0.309523
    20  H   -0.166828   0.317236
    21  H   -0.390396   0.655157
    22  H    0.037004   0.242014
    23  H    0.113384   0.045007
    24  H   -0.141217   0.248534
    25  H    0.014257   0.131403
    26  H    0.175146  -0.022772
    27  H    0.077220   0.070528
    28  H    0.058328   0.092599
    29  H    0.087229   0.083976
    30  H    0.173016  -0.031993
    31  H    0.101443   0.050388
    32  H    0.017763   0.117127
    33  H   -0.270352   0.472668
    34  H    0.038628   0.082955
    35  H   -0.046069   0.171027
    36  H    0.002208   0.147649
 Sum of Mulliken charges =  -1.00000   1.00000

 Dipole moment (field-independent basis, Debye):
    X=             -4.2833    Y=              1.9424    Z=              2.9568  Tot=              5.5554
 Quadrupole moment (field-independent basis, Debye-Ang):
   XX=           -150.6464   YY=           -134.4212   ZZ=           -137.7121
   XY=              3.1488   XZ=             -0.7111   YZ=              2.8915

 Summary of Natural Population Analysis:

                                       Natural Population
                Natural  -----------------------------------------------
    Atom  No    Charge         Core      Valence    Rydberg      Total
 -----------------------------------------------------------------------
      C    1   -0.28662      0.99966     2.28164    0.00532     3.28662
      C    2   -0.19316      0.99961     2.18457    0.00898     3.19316
      C    3   -0.02888      0.99949     2.01297    0.01642     3.02888
      C    4    0.10074      0.99961     1.87471    0.02494     2.89926
      S    5   -0.11374      4.99947     3.10141    0.01286     8.11374
      N    6   -0.37320      0.99964     2.85946    0.01410     3.87320
      N    7   -0.27334      0.99968     2.76144    0.01221     3.77334
      C    8   -0.07951      0.99960     2.06917    0.01074     3.07951
      C    9   -0.19472      0.99963     2.18659    0.00850     3.19472
      C   10   -0.19206      0.99961     2.18392    0.00852     3.19206
      C   11   -0.10932      0.99960     2.10035    0.00937     3.10932
      C   12   -0.19623      0.99960     2.18733    0.00929     3.19623
      C   13   -0.09113      0.99960     2.07915    0.01238     3.09113
      C   14   -0.28245      0.99965     2.27812    0.00468     3.28245
      H   15    0.10367      0.00000     0.39543    0.00090     0.39633
      H   16    0.09652      0.00000     0.40284    0.00065     0.40348
      H   17    0.09715      0.00000     0.40185    0.00100     0.40285
      H   18    0.10585      0.00000     0.39298    0.00118     0.39415
      H   19    0.09808      0.00000     0.40056    0.00135     0.40192
      H   20    0.08196      0.00000     0.41414    0.00390     0.41804
      H   21    0.19717      0.00000     0.29479    0.00804     0.30283
      H   22    0.19566      0.00000     0.30227    0.00207     0.30434
      H   23    0.09751      0.00000     0.40096    0.00153     0.40249
      H   24    0.07612      0.00000     0.42238    0.00150     0.42388
      H   25    0.09730      0.00000     0.40194    0.00077     0.40270
      H   26    0.09876      0.00000     0.40007    0.00117     0.40124
      H   27    0.09481      0.00000     0.40390    0.00129     0.40519
      H   28    0.09664      0.00000     0.40246    0.00090     0.40336
      H   29    0.08985      0.00000     0.40855    0.00160     0.41015
      H   30    0.09823      0.00000     0.40088    0.00090     0.40177
      H   31    0.10913      0.00000     0.38963    0.00124     0.39087
      H   32    0.08148      0.00000     0.41683    0.00168     0.41852
      H   33    0.10755      0.00000     0.39068    0.00178     0.39245
      H   34    0.09647      0.00000     0.40266    0.00087     0.40353
      H   35    0.09531      0.00000     0.40377    0.00092     0.40469
      H   36    0.09841      0.00000     0.40059    0.00100     0.40159
 =======================================================================
   * Total *   -0.00000     17.99447    40.81098    0.19455    59.00000

 Normal termination of Gaussian 16 at Thu Dec 10 10:02:23 2020.
