 Gaussian 16, Revision A.03,

 -----------------------------------------------------------
 # opt freq B3LYP/6-31G(d) empiricaldispersion=gd3bj scf=xqc
 -----------------------------------------------------------

 ------------------------------
 CID_66937256_JID_9596_neutraal
 ------------------------------
 Symbolic Z-matrix:
 Charge =  0 Multiplicity = 1

 SCF Done:  E(RB3LYP) =  -858.453182438     A.U. after   15 cycles
 SCF Done:  E(RB3LYP) =  -858.452727999     A.U. after   14 cycles
 SCF Done:  E(RB3LYP) =  -858.458211632     A.U. after   13 cycles
 SCF Done:  E(RB3LYP) =  -858.456238315     A.U. after   15 cycles
 SCF Done:  E(RB3LYP) =  -858.461130439     A.U. after   12 cycles
 SCF Done:  E(RB3LYP) =  -858.464620206     A.U. after   13 cycles
 SCF Done:  E(RB3LYP) =  -858.455562283     A.U. after   13 cycles
 SCF Done:  E(RB3LYP) =  -858.463977530     A.U. after   13 cycles
 SCF Done:  E(RB3LYP) =  -858.465650749     A.U. after   11 cycles
 SCF Done:  E(RB3LYP) =  -858.466345419     A.U. after   12 cycles
 SCF Done:  E(RB3LYP) =  -858.469892579     A.U. after    9 cycles
 SCF Done:  E(RB3LYP) =  -858.469893827     A.U. after    9 cycles
 SCF Done:  E(RB3LYP) =  -858.469894049     A.U. after    8 cycles
 SCF Done:  E(RB3LYP) =  -858.469894313     A.U. after    8 cycles
 SCF Done:  E(RB3LYP) =  -858.469894375     A.U. after    7 cycles
 Optimization completed.
    -- Stationary point found.
 Normal termination of Gaussian 16 at Sat Dec 12 10:07:00 2020.

 --------------------------------------------------------------------
 #N Geom=AllCheck Guess=TCheck SCRF=Check GenChk RB3LYP/6-31G(d) Freq
 --------------------------------------------------------------------

 Structure from the checkpoint file:  "JID_9596.chk"
 ------------------------------
 CID_66937256_JID_9596_neutraal
 ------------------------------
 Charge =  0 Multiplicity = 1

 SCF Done:  E(RB3LYP) =  -858.469894375     A.U. after    1 cycles

  Exact polarizability: 266.601  13.541 177.913   0.949 -12.324  93.165
 Approx polarizability: 387.827  28.531 312.864  -0.548 -32.774 138.957

                      1                      2                      3
                      A                      A                      A
 Frequencies --     27.1738                37.0076                59.4763
 Red. masses --      5.1636                 4.5974                 5.8682
 Frc consts  --      0.0022                 0.0037                 0.0122
 IR Inten    --      0.0844                 0.5979                 1.0219

                      4                      5                      6
                      A                      A                      A
 Frequencies --     74.1778                89.1378               117.3215
 Red. masses --      4.7593                 4.7790                 2.8596
 Frc consts  --      0.0154                 0.0224                 0.0232
 IR Inten    --      3.0050                 1.2452                 9.7294

                      7                      8                      9
                      A                      A                      A
 Frequencies --    122.6647               167.8930               187.3780
 Red. masses --      5.3313                 3.5186                 3.7338
 Frc consts  --      0.0473                 0.0584                 0.0772
 IR Inten    --      0.0554                13.4508                 1.0382

                     10                     11                     12
                      A                      A                      A
 Frequencies --    190.1638               223.7754               259.5806
 Red. masses --      5.7269                 4.7952                 3.2329
 Frc consts  --      0.1220                 0.1415                 0.1283
 IR Inten    --      2.0956                10.4019                 0.5076

                     13                     14                     15
                      A                      A                      A
 Frequencies --    297.1491               313.1485               348.1206
 Red. masses --      4.4205                 3.9472                 4.7295
 Frc consts  --      0.2300                 0.2281                 0.3377
 IR Inten    --      2.9649                 0.6308                 4.5497

                     16                     17                     18
                      A                      A                      A
 Frequencies --    391.3569               396.2172               413.0093
 Red. masses --      3.5096                 1.2717                 3.4207
 Frc consts  --      0.3167                 0.1176                 0.3438
 IR Inten    --     21.1153                93.9877                 0.9062

                     19                     20                     21
                      A                      A                      A
 Frequencies --    440.8089               484.4846               491.4335
 Red. masses --      4.1394                 2.5653                 5.6258
 Frc consts  --      0.4739                 0.3548                 0.8005
 IR Inten    --      5.9417                20.2536                 2.1841

                     22                     23                     24
                      A                      A                      A
 Frequencies --    505.0076               526.7437               545.5000
 Red. masses --      1.3858                 5.0986                 3.5287
 Frc consts  --      0.2082                 0.8335                 0.6187
 IR Inten    --    268.3692                11.7720                 4.0780

                     25                     26                     27
                      A                      A                      A
 Frequencies --    561.8824               583.1440               628.5111
 Red. masses --      2.8061                 2.6830                 4.4058
 Frc consts  --      0.5220                 0.5376                 1.0254
 IR Inten    --     23.1791                11.2992                10.9974

                     28                     29                     30
                      A                      A                      A
 Frequencies --    643.4102               652.4681               662.9432
 Red. masses --      4.5679                 2.1127                 1.6583
 Frc consts  --      1.1141                 0.5299                 0.4294
 IR Inten    --     22.8195                11.9016                16.1136

                     31                     32                     33
                      A                      A                      A
 Frequencies --    711.7236               759.3811               762.0547
 Red. masses --      2.4466                 1.3759                 1.8626
 Frc consts  --      0.7302                 0.4675                 0.6373
 IR Inten    --     26.4692                11.9841                85.6236

                     34                     35                     36
                      A                      A                      A
 Frequencies --    765.9126               769.9840               788.9968
 Red. masses --      4.7088                 2.7210                 3.3224
 Frc consts  --      1.6275                 0.9505                 1.2186
 IR Inten    --      0.6273                 0.9732                 4.1027

                     37                     38                     39
                      A                      A                      A
 Frequencies --    794.2852               819.1541               844.3473
 Red. masses --      2.6300                 1.4127                 1.5403
 Frc consts  --      0.9776                 0.5585                 0.6470
 IR Inten    --      4.8689                19.1347                54.3927

                     40                     41                     42
                      A                      A                      A
 Frequencies --    880.1818               882.6500               915.4565
 Red. masses --      2.6193                 1.8731                 2.5657
 Frc consts  --      1.1956                 0.8598                 1.2669
 IR Inten    --      4.6571                 7.2259                 2.5729

                     43                     44                     45
                      A                      A                      A
 Frequencies --    941.0696               941.9373               954.5351
 Red. masses --      4.1630                 1.3011                 1.3256
 Frc consts  --      2.1722                 0.6802                 0.7116
 IR Inten    --      2.1325                 1.1675                 1.8005

                     46                     47                     48
                      A                      A                      A
 Frequencies --    981.9666               988.3452               994.7737
 Red. masses --      1.2613                 2.8382                 2.2059
 Frc consts  --      0.7166                 1.6335                 1.2861
 IR Inten    --      0.0307                 3.1098                92.9848

                     49                     50                     51
                      A                      A                      A
 Frequencies --   1028.9552              1055.4298              1082.5792
 Red. masses --      1.8119                 2.2435                 2.1458
 Frc consts  --      1.1302                 1.4724                 1.4817
 IR Inten    --    112.1317                 3.3559                32.0291

                     52                     53                     54
                      A                      A                      A
 Frequencies --   1092.2387              1154.6193              1161.8141
 Red. masses --      2.7727                 1.9793                 2.8665
 Frc consts  --      1.9489                 1.5547                 2.2797
 IR Inten    --     38.4715                 7.0893                85.4020

                     55                     56                     57
                      A                      A                      A
 Frequencies --   1167.2267              1188.6674              1192.4790
 Red. masses --      2.1940                 1.1622                 1.2016
 Frc consts  --      1.7612                 0.9675                 1.0068
 IR Inten    --     20.9850                 6.1591                 3.7945

                     58                     59                     60
                      A                      A                      A
 Frequencies --   1231.3847              1241.1173              1254.6398
 Red. masses --      1.6039                 1.2778                 1.4278
 Frc consts  --      1.4329                 1.1597                 1.3242
 IR Inten    --     16.3067                11.2788                 0.8684

                     61                     62                     63
                      A                      A                      A
 Frequencies --   1271.8779              1304.8715              1307.5051
 Red. masses --      1.7170                 1.7213                 1.8953
 Frc consts  --      1.6365                 1.7268                 1.9090
 IR Inten    --     41.0127                23.0311                16.6606

                     64                     65                     66
                      A                      A                      A
 Frequencies --   1323.2662              1336.3560              1366.6526
 Red. masses --      1.2871                 1.1952                 1.4089
 Frc consts  --      1.3279                 1.2576                 1.5505
 IR Inten    --     34.5602                14.0756                 6.5733

                     67                     68                     69
                      A                      A                      A
 Frequencies --   1385.8091              1396.8655              1409.9047
 Red. masses --      2.4386                 1.4184                 1.9543
 Frc consts  --      2.7593                 1.6307                 2.2888
 IR Inten    --     96.7453                 2.1686                23.4998

                     70                     71                     72
                      A                      A                      A
 Frequencies --   1417.1707              1432.7650              1438.7245
 Red. masses --      4.8854                 1.2754                 1.7805
 Frc consts  --      5.7809                 1.5425                 2.1715
 IR Inten    --      0.6340                58.6776                80.6616

                     73                     74                     75
                      A                      A                      A
 Frequencies --   1449.8079              1485.9727              1490.0496
 Red. masses --      2.1019                 2.0722                 1.6212
 Frc consts  --      2.6031                 2.6958                 2.1207
 IR Inten    --     34.3511                11.2328                14.5138

                     76                     77                     78
                      A                      A                      A
 Frequencies --   1519.9006              1528.2781              1534.5221
 Red. masses --      1.1248                 2.1008                 1.0900
 Frc consts  --      1.5310                 2.8910                 1.5123
 IR Inten    --     13.3602                 7.2992                 0.6662

                     79                     80                     81
                      A                      A                      A
 Frequencies --   1544.3885              1580.9269              1632.1964
 Red. masses --      2.0798                 2.4419                 5.9858
 Frc consts  --      2.9227                 3.5959                 9.3955
 IR Inten    --    105.0448               253.5513                 2.4335

                     82                     83                     84
                      A                      A                      A
 Frequencies --   1669.7174              1693.5043              1707.4780
 Red. masses --      5.2738                 5.9014                 1.1229
 Frc consts  --      8.6628                 9.9719                 1.9288
 IR Inten    --     31.7732               181.5282                34.6052

                     85                     86                     87
                      A                      A                      A
 Frequencies --   1786.0596              3022.4891              3042.9171
 Red. masses --      7.1803                 1.0825                 1.0658
 Frc consts  --     13.4954                 5.8264                 5.8143
 IR Inten    --    210.5009                17.9658                41.2479

                     88                     89                     90
                      A                      A                      A
 Frequencies --   3072.2472              3105.2674              3128.9300
 Red. masses --      1.0654                 1.0998                 1.1002
 Frc consts  --      5.9248                 6.2485                 6.3461
 IR Inten    --     23.9992                35.2937                32.9440

                     91                     92                     93
                      A                      A                      A
 Frequencies --   3169.4389              3174.3535              3178.3335
 Red. masses --      1.0862                 1.0857                 1.0883
 Frc consts  --      6.4287                 6.4458                 6.4771
 IR Inten    --      9.8377                 9.2918                 0.1032

                     94                     95                     96
                      A                      A                      A
 Frequencies --   3190.1441              3193.6179              3208.0489
 Red. masses --      1.0947                 1.0929                 1.0967
 Frc consts  --      6.5642                 6.5674                 6.6497
 IR Inten    --     21.8702                38.9379                42.9336

                     97                     98                     99
                      A                      A                      A
 Frequencies --   3211.8706              3443.7185              3498.5921
 Red. masses --      1.0889                 1.0502                 1.0756
 Frc consts  --      6.6187                 7.3380                 7.7566
 IR Inten    --     13.2289                 5.9007                 7.5303

                    100                    101                    102
                      A                      A                      A
 Frequencies --   3549.5398              3569.2400              3721.4662
 Red. masses --      1.0945                 1.0771                 1.0651
 Frc consts  --      8.1244                 8.0842                 8.6909
 IR Inten    --      6.9498               230.9487                63.5709

 - Thermochemistry -
 -------------------
 Temperature   298.150 Kelvin.  Pressure   1.00000 Atm.
 Atom     1 has atomic number  6 and mass  12.00000

 Molecular mass:   259.13208 amu.
 Principal axes and moments of inertia in atomic units:
                           1         2         3
     Eigenvalues --  2171.144089841.78640**********
           X            0.99998   0.00528  -0.00419
           Y           -0.00519   0.99974   0.02202
           Z            0.00431  -0.02200   0.99975
 This molecule is an asymmetric top.
 Rotational symmetry number  1.
 Warning -- assumption of classical behavior for rotation
           may cause significant error
 Rotational temperatures (Kelvin)      0.03989     0.00880     0.00831
 Rotational constants (GHZ):           0.83124     0.18338     0.17323
 Zero-point vibrational energy     791232.7 (Joules/Mol)
                                  189.10916 (Kcal/Mol)
 Warning -- explicit consideration of  26 degrees of freedom as
           vibrations may cause significant error
 Vibrational temperatures:     39.10    53.25    85.57   106.73   128.25
          (Kelvin)            168.80   176.49   241.56   269.60   273.60
                              321.96   373.48   427.53   450.55   500.87
                              563.08   570.07   594.23   634.23   697.07
                              707.06   726.59   757.87   784.85   808.42
                              839.01   904.29   925.72   938.76   953.83
                             1024.01  1092.58  1096.43  1101.98  1107.84
                             1135.19  1142.80  1178.58  1214.83  1266.39
                             1269.94  1317.14  1353.99  1355.24  1373.36
                             1412.83  1422.01  1431.26  1480.44  1518.53
                             1557.59  1571.49  1661.24  1671.59  1679.38
                             1710.23  1715.71  1771.69  1785.69  1805.15
                             1829.95  1877.42  1881.21  1903.88  1922.72
                             1966.31  1993.87  2009.78  2028.54  2038.99
                             2061.43  2070.00  2085.95  2137.98  2143.85
                             2186.80  2198.85  2207.83  2222.03  2274.60
                             2348.37  2402.35  2436.58  2456.68  2569.74
                             4348.69  4378.08  4420.28  4467.79  4501.83
                             4560.12  4567.19  4572.91  4589.91  4594.90
                             4615.67  4621.17  4954.74  5033.69  5107.00
                             5135.34  5354.36

 Zero-point correction=                           0.301365 (Hartree/Particle)
 Thermal correction to Energy=                    0.318421
 Thermal correction to Enthalpy=                  0.319365
 Thermal correction to Gibbs Free Energy=         0.255632
 Sum of electronic and zero-point Energies=           -858.168530
 Sum of electronic and thermal Energies=              -858.151473
 Sum of electronic and thermal Enthalpies=            -858.150529
 Sum of electronic and thermal Free Energies=         -858.214262

                     E (Thermal)             CV                S
                      KCal/Mol        Cal/Mol-Kelvin    Cal/Mol-Kelvin
 Total                  199.812             66.895            134.138
 Electronic               0.000              0.000              0.000
 Translational            0.889              2.981             42.556
 Rotational               0.889              2.981             33.764
 Vibrational            198.035             60.934             57.817
 Vibration     1          0.593              1.984              6.026
 Vibration     2          0.594              1.982              5.413
 Vibration     3          0.597              1.974              4.474
 Vibration     4          0.599              1.966              4.039
 Vibration     5          0.602              1.957              3.679
 Vibration     6          0.608              1.935              3.144
 Vibration     7          0.610              1.930              3.058
 Vibration     8          0.625              1.882              2.459
 Vibration     9          0.632              1.857              2.254
 Vibration    10          0.633              1.853              2.226
 Vibration    11          0.649              1.805              1.928
 Vibration    12          0.668              1.747              1.665
 Vibration    13          0.691              1.679              1.433
 Vibration    14          0.701              1.649              1.346
 Vibration    15          0.726              1.579              1.175
 Vibration    16          0.759              1.489              0.995
 Vibration    17          0.763              1.478              0.977
 Vibration    18          0.777              1.442              0.916
 Vibration    19          0.801              1.381              0.824
 Vibration    20          0.841              1.284              0.698
 Vibration    21          0.847              1.269              0.680
 Vibration    22          0.860              1.239              0.646
 Vibration    23          0.882              1.191              0.595
 Vibration    24          0.901              1.150              0.554
 Vibration    25          0.918              1.114              0.520
 Vibration    26          0.940              1.068              0.480

                           ! Non-Optimized Parameters !
 Normal termination of Gaussian 16 at Sat Dec 12 10:23:25 2020.

 ----------------------------------------------------------------------
 # B3LYP/6-311++G(d,p) empiricaldispersion=gd3bj scf=xqc pop=npa geom=c
 heck
 ----------------------------------------------------------------------

 --------------------------------------
 CID_66937256_JID_9596_Energie_neutraal
 --------------------------------------
 Structure from the checkpoint file:  "JID_9596.chk"
 Charge =  0 Multiplicity = 1

 SCF Done:  E(RB3LYP) =  -858.724008155     A.U. after   15 cycles
 Normal termination of Gaussian 16 at Sat Dec 12 10:29:45 2020.

 ----------------------------------------------------------------------
 # B3LYP/6-311++G(d,p) empiricaldispersion=gd3bj scf=xqc pop=npa geom=c
 heck
 ----------------------------------------------------------------------

 ------------------------------------
 CID_66937256_JID_9596_Energie_kation
 ------------------------------------
 Structure from the checkpoint file:  "JID_9596.chk"
 Charge =  1 Multiplicity = 2

 SCF Done:  E(UB3LYP) =  -858.463351661     A.U. after   23 cycles
 Normal termination of Gaussian 16 at Sat Dec 12 10:42:52 2020.
 Gaussian 16:  ES64L-G16RevA.03 25-Dec-2016

 ----------------------------------------------------------------------
 # B3LYP/6-311++G(d,p) empiricaldispersion=gd3bj scf=xqc pop=npa geom=c
 heck
 ----------------------------------------------------------------------

 -----------------------------------
 CID_66937256_JID_9596_Energie_anion
 -----------------------------------
 Structure from the checkpoint file:  "JID_9596.chk"
 Charge = -1 Multiplicity = 2

                         Standard orientation:
 ---------------------------------------------------------------------
 Center     Atomic      Atomic             Coordinates (Angstroms)
 Number     Number       Type             X           Y           Z
 ---------------------------------------------------------------------
      1          6           0       -5.366963   -0.159790    0.114113
      2          6           0       -4.772063   -1.425749    0.327437
      3          6           0       -3.401610   -1.560656    0.350506
      4          6           0       -2.553647   -0.436953    0.161888
      5          6           0       -1.140122   -0.551980    0.181976
      6          6           0       -0.328191    0.556409   -0.003084
      7          6           0       -0.941882    1.828399   -0.220682
      8          6           0       -2.304488    1.961996   -0.242880
      9          6           0       -3.158927    0.841988   -0.053496
     10          6           0       -4.571225    0.949280   -0.072237
     11          7           0        1.059189    0.503067   -0.019029
     12          6           0        1.788744   -0.662072    0.458937
     13          6           0        1.973881   -1.750361   -0.633081
     14          6           0        2.288413   -1.152372   -2.008330
     15          8           0        3.228565   -0.079726   -1.938947
     16          6           0        3.153020   -0.383885    1.111214
     17          8           0        3.719101   -1.301452    1.685546
     18          7           0        3.726155    0.875578    1.174649
     19          7           0        3.516899    1.873082    0.196367
     20          1           0       -6.448980   -0.067006    0.097966
     21          1           0       -5.404074   -2.297415    0.474075
     22          1           0       -2.947966   -2.535030    0.515210
     23          1           0       -0.710799   -1.535039    0.339972
     24          1           0       -0.303363    2.695992   -0.371886
     25          1           0       -2.750939    2.939831   -0.406483
     26          1           0       -5.017595    1.927292   -0.236938
     27          1           0        1.540241    1.384438    0.107016
     28          1           0        1.231586   -1.120638    1.288176
     29          1           0        2.771543   -2.418207   -0.296767
     30          1           0        1.061762   -2.352387   -0.715569
     31          1           0        2.729260   -1.916056   -2.656433
     32          1           0        1.361022   -0.807008   -2.483003
     33          1           0        2.711426    0.675785   -1.614424
     34          1           0        4.659503    0.810184    1.577231
     35          1           0        3.604297    2.781828    0.645481
     36          1           0        4.226401    1.795258   -0.534019
 ---------------------------------------------------------------------

 SCF Done:  E(UB3LYP) =  -858.725766458     A.U. after   33 cycles
 SCF Done:  E(UB3LYP) =  -858.725766458     a.u. after    1 cycles

 The electronic state is 2-A.
 Alpha  occ. eigenvalues --  -19.02420 -19.00038 -14.26760 -14.24809 -14.22001
 Alpha  occ. eigenvalues --  -10.18647 -10.12895 -10.12370 -10.11016 -10.07936
 Alpha  occ. eigenvalues --  -10.07731 -10.07119 -10.06771 -10.06716 -10.06458
 Alpha  occ. eigenvalues --  -10.06428 -10.06269 -10.06229 -10.05532  -0.95957
 Alpha  occ. eigenvalues --   -0.92756  -0.88794  -0.83977  -0.76401  -0.71658
 Alpha  occ. eigenvalues --   -0.70545  -0.68295  -0.66605  -0.63349  -0.61603
 Alpha  occ. eigenvalues --   -0.59567  -0.52562  -0.52307  -0.50296  -0.49598
 Alpha  occ. eigenvalues --   -0.47866  -0.45074  -0.43101  -0.42746  -0.41735
 Alpha  occ. eigenvalues --   -0.40943  -0.40476  -0.38842  -0.38418  -0.35336
 Alpha  occ. eigenvalues --   -0.34594  -0.34211  -0.32973  -0.32157  -0.31911
 Alpha  occ. eigenvalues --   -0.31175  -0.30724  -0.29938  -0.28933  -0.28846
 Alpha  occ. eigenvalues --   -0.27635  -0.26661  -0.24530  -0.24414  -0.23216
 Alpha  occ. eigenvalues --   -0.22664  -0.20258  -0.19273  -0.18318  -0.17767
 Alpha  occ. eigenvalues --   -0.17408  -0.16592  -0.12724  -0.09702   0.03650
 Alpha virt. eigenvalues --    0.05165   0.06917   0.07623   0.08085   0.08514
 Alpha virt. eigenvalues --    0.08839   0.09105   0.09557   0.10102   0.10522
 Alpha virt. eigenvalues --    0.10575   0.11029   0.11090   0.12185   0.12967

  Beta  occ. eigenvalues --  -19.02404 -19.00029 -14.26736 -14.24700 -14.21988
  Beta  occ. eigenvalues --  -10.18640 -10.12893 -10.12366 -10.11016 -10.07932
  Beta  occ. eigenvalues --  -10.07753 -10.07146 -10.06749 -10.06686 -10.06320
  Beta  occ. eigenvalues --  -10.06310 -10.06183 -10.06125 -10.05443  -0.95925
  Beta  occ. eigenvalues --   -0.92729  -0.88699  -0.83935  -0.76281  -0.71516
  Beta  occ. eigenvalues --   -0.70364  -0.68236  -0.66401  -0.63264  -0.61415
  Beta  occ. eigenvalues --   -0.59504  -0.52517  -0.52086  -0.50244  -0.49471
  Beta  occ. eigenvalues --   -0.47798  -0.44946  -0.43034  -0.42634  -0.41634
  Beta  occ. eigenvalues --   -0.40836  -0.40446  -0.38791  -0.38363  -0.35275
  Beta  occ. eigenvalues --   -0.34551  -0.34149  -0.32936  -0.32122  -0.31870
  Beta  occ. eigenvalues --   -0.31101  -0.30645  -0.29805  -0.28861  -0.28779
  Beta  occ. eigenvalues --   -0.27480  -0.26588  -0.24407  -0.24304  -0.23057
  Beta  occ. eigenvalues --   -0.22616  -0.20169  -0.18923  -0.18163  -0.17631
  Beta  occ. eigenvalues --   -0.17193  -0.16505  -0.12114  -0.09294
  Beta virt. eigenvalues --    0.06720   0.06815   0.07125   0.07645   0.08211
  Beta virt. eigenvalues --    0.08656   0.09022   0.09203   0.09613   0.10612
  Beta virt. eigenvalues --    0.10772   0.10918   0.10996   0.11491   0.12390

 Mulliken charges and spin densities:
               1          2
     1  C   -0.354981  -0.020542
     2  C   -0.230747   0.080551
     3  C   -0.204065   0.064972
     4  C    0.157791   0.030771
     5  C   -0.187314  -0.023228
     6  C    0.361423  -0.305849
     7  C   -0.178947   0.034143
     8  C   -0.474822   0.368498
     9  C   -0.067832  -0.142100
    10  C   -0.203544   0.120473
    11  N    0.192742  -0.120505
    12  C    0.374516  -0.366049
    13  C   -0.320329   0.195575
    14  C   -0.341572  -0.119562
    15  O   -0.177872  -0.030257
    16  C   -0.203342   0.085305
    17  O   -0.297295   0.014219
    18  N   -0.129331  -0.043666
    19  N   -0.142797  -0.331563
    20  H    0.124014  -0.001460
    21  H    0.122337  -0.000107
    22  H    0.107614  -0.008673
    23  H   -0.037925   0.000492
    24  H   -0.288999   0.410342
    25  H    0.122039  -0.012826
    26  H    0.080299   0.000516
    27  H    0.817725  -0.507443
    28  H    0.198356   0.030746
    29  H    0.232296  -0.018596
    30  H    0.106394   0.017451
    31  H    0.124188   0.024472
    32  H    0.160304   0.002204
    33  H    0.206588   0.066971
    34  H   -0.066682   0.366200
    35  H   -0.590106   0.899648
    36  H    0.009874   0.238871
 Sum of Mulliken charges =  -1.00000   1.00000

 Dipole moment (field-independent basis, Debye):
    X=             -5.7654    Y=             -4.5025    Z=             -2.1942  Tot=              7.6372
 Quadrupole moment (field-independent basis, Debye-Ang):
   XX=           -204.3551   YY=           -146.7878   ZZ=           -139.6513
   XY=            -17.4042   XZ=             -7.0248   YZ=             -0.5983

 Summary of Natural Population Analysis:

                                       Natural Population
                Natural  -----------------------------------------------
    Atom  No    Charge         Core      Valence    Rydberg      Total
 -----------------------------------------------------------------------
      C    1   -0.12233      0.99957     2.11319    0.00957     3.12233
      C    2   -0.09771      0.99958     2.08862    0.00951     3.09771
      C    3   -0.08284      0.99954     2.07483    0.00848     3.08284
      C    4   -0.02173      0.99950     2.01411    0.00812     3.02173
      C    5   -0.11998      0.99946     2.11400    0.00652     3.11998
      C    6    0.09355      0.99950     1.89559    0.01136     2.90645
      C    7   -0.10009      0.99953     2.09049    0.01006     3.10009
      C    8   -0.06331      0.99954     2.05598    0.00780     3.06331
      C    9   -0.04651      0.99949     2.03897    0.00806     3.04651
      C   10   -0.06540      0.99954     2.05733    0.00853     3.06540
      N   11   -0.33737      0.99966     2.82690    0.01082     3.83737
      C   12   -0.05091      0.99954     2.03696    0.01440     3.05091
      C   13   -0.20294      0.99961     2.19605    0.00727     3.20294
      C   14   -0.01282      0.99960     2.00067    0.01255     3.01282
      O   15   -0.37930      0.99990     3.37260    0.00679     4.37930
      C   16    0.35080      0.99964     1.62561    0.02394     2.64920
      O   17   -0.32278      0.99987     3.31712    0.00578     4.32278
      N   18   -0.23497      0.99966     2.72003    0.01529     3.73497
      N   19   -0.33385      0.99975     2.81983    0.01426     3.83385
      H   20    0.09340      0.00000     0.40559    0.00101     0.40660
      H   21    0.09400      0.00000     0.40539    0.00061     0.40600
      H   22    0.09250      0.00000     0.40611    0.00139     0.40750
      H   23    0.09478      0.00000     0.40371    0.00151     0.40522
      H   24    0.09917      0.00000     0.39986    0.00098     0.40083
      H   25    0.09346      0.00000     0.40527    0.00127     0.40654
      H   26    0.09193      0.00000     0.40674    0.00133     0.40807
      H   27    0.20788      0.00000     0.28878    0.00334     0.29212
      H   28    0.11106      0.00000     0.38694    0.00200     0.38894
      H   29    0.10809      0.00000     0.39076    0.00115     0.39191
      H   30    0.09971      0.00000     0.39918    0.00111     0.40029
      H   31    0.08420      0.00000     0.41479    0.00101     0.41580
      H   32    0.08128      0.00000     0.41744    0.00129     0.41872
      H   33    0.23783      0.00000     0.25849    0.00369     0.26217
      H   34    0.18578      0.00000     0.31109    0.00313     0.31422
      H   35    0.19167      0.00000     0.28534    0.02300     0.30833
      H   36    0.18376      0.00000     0.31200    0.00423     0.31624
 =======================================================================
   * Total *    0.00001     18.99249    49.75634    0.25116    68.99999

 Normal termination of Gaussian 16 at Sat Dec 12 11:01:37 2020.
