 Gaussian 16, Revision A.03,

 -----------------------------------------------------------
 # opt freq B3LYP/6-31G(d) empiricaldispersion=gd3bj scf=xqc
 -----------------------------------------------------------

 -------------------------------
 CID_137424288_JID_7483_neutraal
 -------------------------------
 Symbolic Z-matrix:
 Charge =  0 Multiplicity = 1

 SCF Done:  E(RB3LYP) =  -804.537579785     A.U. after   14 cycles
 SCF Done:  E(RB3LYP) =  -804.543054856     A.U. after   12 cycles
 SCF Done:  E(RB3LYP) =  -804.543915667     A.U. after   12 cycles
 SCF Done:  E(RB3LYP) =  -804.544240399     A.U. after   13 cycles
 SCF Done:  E(RB3LYP) =  -804.544597373     A.U. after   12 cycles
 SCF Done:  E(RB3LYP) =  -804.545153541     A.U. after   12 cycles
 SCF Done:  E(RB3LYP) =  -804.545369624     A.U. after   12 cycles
 SCF Done:  E(RB3LYP) =  -804.545554670     A.U. after   11 cycles
 SCF Done:  E(RB3LYP) =  -804.545655365     A.U. after   11 cycles
 SCF Done:  E(RB3LYP) =  -804.545742342     A.U. after   11 cycles
 SCF Done:  E(RB3LYP) =  -804.546385830     A.U. after    8 cycles
 SCF Done:  E(RB3LYP) =  -804.546386121     A.U. after    8 cycles
 SCF Done:  E(RB3LYP) =  -804.546386226     A.U. after    7 cycles
 SCF Done:  E(RB3LYP) =  -804.546386276     A.U. after    7 cycles
 SCF Done:  E(RB3LYP) =  -804.546386295     A.U. after    7 cycles
 Optimization completed.
    -- Stationary point found.
 Normal termination of Gaussian 16 at Fri Dec 11 12:47:59 2020.

 --------------------------------------------------------------------
 #N Geom=AllCheck Guess=TCheck SCRF=Check GenChk RB3LYP/6-31G(d) Freq
 --------------------------------------------------------------------

 Structure from the checkpoint file:  "JID_7483.chk"
 -------------------------------
 CID_137424288_JID_7483_neutraal
 -------------------------------
 Charge =  0 Multiplicity = 1

 SCF Done:  E(RB3LYP) =  -804.546386295     A.U. after    1 cycles

  Exact polarizability: 153.873  -6.294 139.482   3.546   4.207 124.931
 Approx polarizability: 204.351 -10.790 202.762   8.073   7.004 201.708

                      1                      2                      3
                      A                      A                      A
 Frequencies --     13.9955                26.1437                28.4586
 Red. masses --      4.3203                 7.1034                 5.4023
 Frc consts  --      0.0005                 0.0029                 0.0026
 IR Inten    --      0.2201                 5.0702                 3.4627

                      4                      5                      6
                      A                      A                      A
 Frequencies --     39.1402                46.1506                55.4013
 Red. masses --      5.5050                 3.9954                 3.8288
 Frc consts  --      0.0050                 0.0050                 0.0069
 IR Inten    --      1.1598                 2.4849                 0.8696

                      7                      8                      9
                      A                      A                      A
 Frequencies --     62.9692                71.9838                99.8162
 Red. masses --      4.4389                 4.1930                 5.6140
 Frc consts  --      0.0104                 0.0128                 0.0330
 IR Inten    --      2.6879                 0.4780                 5.4831

                     10                     11                     12
                      A                      A                      A
 Frequencies --    131.7106               138.3850               188.0128
 Red. masses --      3.9418                 1.2781                 4.0467
 Frc consts  --      0.0403                 0.0144                 0.0843
 IR Inten    --     22.3741               194.2391                 0.9544

                     13                     14                     15
                      A                      A                      A
 Frequencies --    196.5036               265.0690               272.7330
 Red. masses --      3.8777                 3.7192                 1.7780
 Frc consts  --      0.0882                 0.1540                 0.0779
 IR Inten    --      5.7109                 1.8427                 0.1475

                     16                     17                     18
                      A                      A                      A
 Frequencies --    325.0924               366.7365               388.3808
 Red. masses --      3.0985                 4.7075                 2.2363
 Frc consts  --      0.1929                 0.3730                 0.1987
 IR Inten    --      3.9428                 5.9568                 5.7813

                     19                     20                     21
                      A                      A                      A
 Frequencies --    444.6089               459.0518               482.7461
 Red. masses --      1.9773                 1.1949                 1.7671
 Frc consts  --      0.2303                 0.1484                 0.2426
 IR Inten    --      4.0962                37.2262                 2.1635

                     22                     23                     24
                      A                      A                      A
 Frequencies --    495.7990               521.6374               544.8290
 Red. masses --      2.5321                 2.9703                 2.3843
 Frc consts  --      0.3667                 0.4762                 0.4170
 IR Inten    --      5.0792                18.6156                24.2510

                     25                     26                     27
                      A                      A                      A
 Frequencies --    609.9343               646.4563               655.3289
 Red. masses --      1.3464                 2.0394                 1.6466
 Frc consts  --      0.2951                 0.5021                 0.4166
 IR Inten    --     17.3706                40.7126                41.4546

                     28                     29                     30
                      A                      A                      A
 Frequencies --    678.9546               739.2440               745.5403
 Red. masses --      4.0988                 1.4634                 2.6227
 Frc consts  --      1.1132                 0.4712                 0.8589
 IR Inten    --      0.5137                65.6156                16.2302

                     31                     32                     33
                      A                      A                      A
 Frequencies --    781.4342               783.9300               792.3385
 Red. masses --      4.2697                 2.8755                 3.3458
 Frc consts  --      1.5361                 1.0412                 1.2376
 IR Inten    --      4.0396                27.7876                37.0128

                     34                     35                     36
                      A                      A                      A
 Frequencies --    808.0015               831.0815               831.9438
 Red. masses --      3.7769                 1.5016                 3.2390
 Frc consts  --      1.4528                 0.6111                 1.3208
 IR Inten    --      1.7709                 0.5422                19.9029

                     37                     38                     39
                      A                      A                      A
 Frequencies --    845.9686               889.1869               890.4964
 Red. masses --      2.3679                 2.2709                 2.0509
 Frc consts  --      0.9984                 1.0579                 0.9582
 IR Inten    --      2.3255                 5.5395               108.8557

                     40                     41                     42
                      A                      A                      A
 Frequencies --    917.7222               933.4719               944.6772
 Red. masses --      2.3611                 1.8534                 2.3155
 Frc consts  --      1.1716                 0.9515                 1.2175
 IR Inten    --      1.2997                 3.8183                16.6130

                     43                     44                     45
                      A                      A                      A
 Frequencies --    956.0910               959.9828               970.3787
 Red. masses --      3.0749                 1.5382                 1.6616
 Frc consts  --      1.6561                 0.8352                 0.9219
 IR Inten    --      1.1363                 0.5414                 0.0596

                     46                     47                     48
                      A                      A                      A
 Frequencies --    983.8731               990.2971              1006.8380
 Red. masses --      2.0351                 1.5667                 2.2881
 Frc consts  --      1.1607                 0.9052                 1.3666
 IR Inten    --      1.6662                39.3473                41.4132

                     49                     50                     51
                      A                      A                      A
 Frequencies --   1052.8467              1065.5812              1082.8609
 Red. masses --      1.5543                 1.5240                 1.9500
 Frc consts  --      1.0151                 1.0195                 1.3472
 IR Inten    --      1.2104                 1.2302                20.5638

                     52                     53                     54
                      A                      A                      A
 Frequencies --   1098.7127              1126.4750              1149.1799
 Red. masses --      2.6552                 1.1658                 1.9133
 Frc consts  --      1.8885                 0.8716                 1.4887
 IR Inten    --      7.5559                 0.4140                16.9295

                     55                     56                     57
                      A                      A                      A
 Frequencies --   1150.6891              1164.6325              1176.0393
 Red. masses --      1.1736                 1.1312                 1.9428
 Frc consts  --      0.9156                 0.9040                 1.5831
 IR Inten    --      5.2034                 2.8862               221.9954

                     58                     59                     60
                      A                      A                      A
 Frequencies --   1193.3639              1201.4485              1209.2916
 Red. masses --      1.2340                 1.8985                 1.4380
 Frc consts  --      1.0354                 1.6146                 1.2390
 IR Inten    --     68.8076                 1.2359                 0.5082

                     61                     62                     63
                      A                      A                      A
 Frequencies --   1233.2712              1254.4235              1282.3061
 Red. masses --      1.3092                 1.2266                 1.4372
 Frc consts  --      1.1732                 1.1372                 1.3924
 IR Inten    --      9.7537                 0.6462                35.9932

                     64                     65                     66
                      A                      A                      A
 Frequencies --   1296.5607              1306.1132              1320.9503
 Red. masses --      1.3612                 1.2881                 1.6091
 Frc consts  --      1.3482                 1.2947                 1.6543
 IR Inten    --      0.8150                 0.0125                 1.4678

                     67                     68                     69
                      A                      A                      A
 Frequencies --   1328.4757              1331.2257              1353.0818
 Red. masses --      1.4690                 1.5969                 1.4309
 Frc consts  --      1.5275                 1.6673                 1.5435
 IR Inten    --     25.0103                 0.7165                 0.7557

                     70                     71                     72
                      A                      A                      A
 Frequencies --   1360.7585              1373.0884              1384.4353
 Red. masses --      1.6547                 1.4314                 1.7282
 Frc consts  --      1.8052                 1.5901                 1.9515
 IR Inten    --     47.7447                13.9208                 6.4533

                     73                     74                     75
                      A                      A                      A
 Frequencies --   1406.2945              1428.1028              1465.2221
 Red. masses --      1.6741                 1.6366                 1.7393
 Frc consts  --      1.9507                 1.9666                 2.2000
 IR Inten    --     64.6341                42.2052                17.5419

                     76                     77                     78
                      A                      A                      A
 Frequencies --   1514.3543              1519.8572              1524.5271
 Red. masses --      1.0939                 1.1078                 1.1216
 Frc consts  --      1.4780                 1.5078                 1.5359
 IR Inten    --     12.8097                 5.4148                 2.5785

                     79                     80                     81
                      A                      A                      A
 Frequencies --   1526.5124              1549.7975              1645.3870
 Red. masses --      1.0865                 1.1038                 1.2786
 Frc consts  --      1.4917                 1.5620                 2.0395
 IR Inten    --      1.4142                 2.0519               105.0406

                     82                     83                     84
                      A                      A                      A
 Frequencies --   1648.9681              1692.9307              1785.7799
 Red. masses --      5.3645                 1.1153                 7.2989
 Frc consts  --      8.5942                 1.8832                13.7140
 IR Inten    --      2.3879                67.2159               267.2036

                     85                     86                     87
                      A                      A                      A
 Frequencies --   1835.0598              3042.0926              3061.0866
 Red. masses --      8.4916                 1.0665                 1.0622
 Frc consts  --     16.8477                 5.8152                 5.8642
 IR Inten    --    258.7442                25.8365                43.5960

                     88                     89                     90
                      A                      A                      A
 Frequencies --   3061.6439              3065.7683              3074.7880
 Red. masses --      1.0654                 1.0653                 1.0648
 Frc consts  --      5.8840                 5.8995                 5.9314
 IR Inten    --     15.9489                22.5365                55.5366

                     91                     92                     93
                      A                      A                      A
 Frequencies --   3101.6988              3113.8978              3119.5117
 Red. masses --      1.0939                 1.1004                 1.0936
 Frc consts  --      6.2005                 6.2865                 6.2704
 IR Inten    --      6.7881                44.1518                50.3782

                     94                     95                     96
                      A                      A                      A
 Frequencies --   3121.9222              3123.0505              3126.4203
 Red. masses --      1.0982                 1.0931                 1.0942
 Frc consts  --      6.3066                 6.2814                 6.3013
 IR Inten    --     44.6029                11.6872                28.7710

                     97                     98                     99
                      A                      A                      A
 Frequencies --   3129.0600              3142.3101              3199.8163
 Red. masses --      1.0896                 1.1005                 1.0869
 Frc consts  --      6.2856                 6.4022                 6.5567
 IR Inten    --     31.0089                 9.3522                 9.5279

                    100                    101                    102
                      A                      A                      A
 Frequencies --   3226.5146              3472.0137              3565.6148
 Red. masses --      1.1041                 1.0486                 1.0943
 Frc consts  --      6.7721                 7.4474                 8.1970
 IR Inten    --     13.4677                27.1010                74.3447

                    103                    104                    105
                      A                      A                      A
 Frequencies --   3595.6779              3668.2810              3724.8246
 Red. masses --      1.0453                 1.0636                 1.1051
 Frc consts  --      7.9626                 8.4326                 9.0337
 IR Inten    --     41.1433                37.1264                32.5995

 - Thermochemistry -
 -------------------
 Temperature   298.150 Kelvin.  Pressure   1.00000 Atm.
 Atom     1 has atomic number  6 and mass  12.00000

 Molecular mass:   240.14739 amu.
 Principal axes and moments of inertia in atomic units:
                           1         2         3
     Eigenvalues --  3130.289406431.048158168.78814
           X            0.99999  -0.00235  -0.00271
           Y            0.00240   0.99987   0.01625
           Z            0.00267  -0.01626   0.99986
 This molecule is an asymmetric top.
 Rotational symmetry number  1.
 Warning -- assumption of classical behavior for rotation
           may cause significant error
 Rotational temperatures (Kelvin)      0.02767     0.01347     0.01060
 Rotational constants (GHZ):           0.57654     0.28063     0.22093
 Zero-point vibrational energy     841172.9 (Joules/Mol)
                                  201.04515 (Kcal/Mol)
 Warning -- explicit consideration of  25 degrees of freedom as
           vibrations may cause significant error
 Vibrational temperatures:     20.14    37.61    40.95    56.31    66.40
          (Kelvin)             79.71    90.60   103.57   143.61   189.50
                              199.11   270.51   282.72   381.38   392.40
                              467.74   527.65   558.79   639.69   660.47
                              694.56   713.34   750.52   783.89   877.56
                              930.11   942.87   976.86  1063.61  1072.67
                             1124.31  1127.90  1140.00  1162.53  1195.74
                             1196.98  1217.16  1279.34  1281.23  1320.40
                             1343.06  1359.18  1375.60  1381.20  1396.16
                             1415.57  1424.82  1448.62  1514.81  1533.13
                             1558.00  1580.80  1620.75  1653.41  1655.58
                             1675.65  1692.06  1716.98  1728.62  1739.90
                             1774.40  1804.84  1844.95  1865.46  1879.21
                             1900.55  1911.38  1915.34  1946.78  1957.83
                             1975.57  1991.89  2023.34  2054.72  2108.13
                             2178.82  2186.74  2193.45  2196.31  2229.81
                             2367.34  2372.50  2435.75  2569.34  2640.24
                             4376.89  4404.22  4405.02  4410.96  4423.93
                             4462.65  4480.20  4488.28  4491.75  4493.37
                             4498.22  4502.02  4521.08  4603.82  4642.23
                             4995.45  5130.12  5173.38  5277.84  5359.19

 Zero-point correction=                           0.320386 (Hartree/Particle)
 Thermal correction to Energy=                    0.338809
 Thermal correction to Enthalpy=                  0.339754
 Thermal correction to Gibbs Free Energy=         0.269136
 Sum of electronic and zero-point Energies=           -804.226000
 Sum of electronic and thermal Energies=              -804.207577
 Sum of electronic and thermal Enthalpies=            -804.206633
 Sum of electronic and thermal Free Energies=         -804.277251

                     E (Thermal)             CV                S
                      KCal/Mol        Cal/Mol-Kelvin    Cal/Mol-Kelvin
 Total                  212.606             67.003            148.628
 Electronic               0.000              0.000              0.000
 Translational            0.889              2.981             42.329
 Rotational               0.889              2.981             33.464
 Vibrational            210.829             61.041             72.835
 Vibration     1          0.593              1.986              7.343
 Vibration     2          0.593              1.985              6.102
 Vibration     3          0.593              1.984              5.934
 Vibration     4          0.594              1.981              5.302
 Vibration     5          0.595              1.979              4.976
 Vibration     6          0.596              1.975              4.615
 Vibration     7          0.597              1.972              4.362
 Vibration     8          0.598              1.967              4.098
 Vibration     9          0.604              1.949              3.458
 Vibration    10          0.612              1.922              2.921
 Vibration    11          0.614              1.915              2.826
 Vibration    12          0.633              1.856              2.247
 Vibration    13          0.636              1.845              2.166
 Vibration    14          0.671              1.737              1.628
 Vibration    15          0.676              1.724              1.579
 Vibration    16          0.709              1.625              1.284
 Vibration    17          0.740              1.541              1.093
 Vibration    18          0.757              1.495              1.006
 Vibration    19          0.804              1.373              0.812
 Vibration    20          0.817              1.341              0.769
 Vibration    21          0.839              1.288              0.703
 Vibration    22          0.851              1.259              0.669
 Vibration    23          0.877              1.202              0.606
 Vibration    24          0.900              1.151              0.555
 Vibration    25          0.969              1.011              0.433

 Optimization completed on the basis of negligible forces.
    -- Stationary point found.
 Normal termination of Gaussian 16 at Fri Dec 11 13:03:57 2020.

 ----------------------------------------------------------------------
 # B3LYP/6-311++G(d,p) empiricaldispersion=gd3bj scf=xqc pop=npa geom=c
 heck
 ----------------------------------------------------------------------

 ---------------------------------------
 CID_137424288_JID_7483_Energie_neutraal
 ---------------------------------------
 Structure from the checkpoint file:  "JID_7483.chk"
 Charge =  0 Multiplicity = 1

 SCF Done:  E(RB3LYP) =  -804.799656678     A.U. after   16 cycles
 Normal termination of Gaussian 16 at Fri Dec 11 13:12:14 2020.

 ----------------------------------------------------------------------
 # B3LYP/6-311++G(d,p) empiricaldispersion=gd3bj scf=xqc pop=npa geom=c
 heck
 ----------------------------------------------------------------------

 -------------------------------------
 CID_137424288_JID_7483_Energie_kation
 -------------------------------------
 Structure from the checkpoint file:  "JID_7483.chk"
 Charge =  1 Multiplicity = 2

 SCF Done:  E(UB3LYP) =  -804.499116119     A.U. after   22 cycles
 Normal termination of Gaussian 16 at Fri Dec 11 13:28:33 2020.
 Gaussian 16:  ES64L-G16RevA.03 25-Dec-2016

 ----------------------------------------------------------------------
 # B3LYP/6-311++G(d,p) empiricaldispersion=gd3bj scf=xqc pop=npa geom=c
 heck
 ----------------------------------------------------------------------

 ------------------------------------
 CID_137424288_JID_7483_Energie_anion
 ------------------------------------
 Structure from the checkpoint file:  "JID_7483.chk"
 Charge = -1 Multiplicity = 2

                         Standard orientation:
 ---------------------------------------------------------------------
 Center     Atomic      Atomic             Coordinates (Angstroms)
 Number     Number       Type             X           Y           Z
 ---------------------------------------------------------------------
      1          6           0       -2.652617    0.534797   -1.109700
      2          6           0       -2.310245   -0.978618   -1.271950
      3          6           0       -2.987837   -1.628884   -0.018104
      4          6           0       -4.273077   -0.772868    0.073936
      5          6           0       -3.495433    0.557153    0.211091
      6          6           0       -2.534561    0.192493    1.332764
      7          6           0       -2.231686   -1.108154    1.196211
      8          6           0        1.567855    0.079754   -0.995560
      9          6           0        1.682022   -1.421570   -0.668259
     10          6           0        2.956354   -1.755553    0.092671
     11          8           0        3.065768   -1.573197    1.301855
     12          7           0        3.989494   -2.228867   -0.660391
     13          6           0        1.698092    0.998213    0.241926
     14          6           0        1.246443    2.402322   -0.135853
     15          8           0        0.165281    2.675710   -0.616059
     16          8           0        2.176384    3.343881    0.133521
     17          7           0        0.915585    0.614867    1.415947
     18          1           0       -1.771352    1.175849   -1.036648
     19          1           0       -3.259230    0.890861   -1.949746
     20          1           0       -2.741846   -1.388225   -2.192029
     21          1           0       -1.234552   -1.174355   -1.298264
     22          1           0       -3.110590   -2.712471   -0.082050
     23          1           0       -4.877904   -1.007924    0.954949
     24          1           0       -4.894830   -0.822748   -0.828083
     25          1           0       -4.079499    1.468183    0.355758
     26          1           0       -2.097193    0.901525    2.028205
     27          1           0       -1.503898   -1.678765    1.765291
     28          1           0        0.592138    0.254855   -1.460747
     29          1           0        2.329967    0.359909   -1.735352
     30          1           0        0.844248   -1.717457   -0.031109
     31          1           0        1.608579   -1.999392   -1.596917
     32          1           0        3.906668   -2.399462   -1.650324
     33          1           0        4.867480   -2.430103   -0.202633
     34          1           0        2.742824    1.047657    0.555794
     35          1           0        1.770921    4.199893   -0.104694
     36          1           0        1.355737   -0.207082    1.827748
     37          1           0       -0.034539    0.371600    1.142378
 ---------------------------------------------------------------------

 SCF Done:  E(UB3LYP) =  -804.794836241     A.U. after   33 cycles
 SCF Done:  E(UB3LYP) =  -804.794836241     a.u. after    1 cycles

 The electronic state is 2-A.
 Alpha  occ. eigenvalues --  -19.08971 -19.03015 -18.99244 -14.23091 -14.19525
 Alpha  occ. eigenvalues --  -10.21781 -10.17803 -10.11836 -10.09415 -10.09408
 Alpha  occ. eigenvalues --  -10.08473 -10.08418 -10.08319 -10.08251 -10.08228
 Alpha  occ. eigenvalues --  -10.07924 -10.07571  -1.02809  -0.94176  -0.93654
 Alpha  occ. eigenvalues --   -0.80487  -0.79992  -0.79782  -0.68899  -0.65886
 Alpha  occ. eigenvalues --   -0.63275  -0.62994  -0.61271  -0.55961  -0.50148
 Alpha  occ. eigenvalues --   -0.49783  -0.47903  -0.47609  -0.44020  -0.43472
 Alpha  occ. eigenvalues --   -0.43343  -0.43112  -0.40620  -0.39225  -0.38814
 Alpha  occ. eigenvalues --   -0.37720  -0.36305  -0.35532  -0.34717  -0.33563
 Alpha  occ. eigenvalues --   -0.32739  -0.31642  -0.31050  -0.30336  -0.29971
 Alpha  occ. eigenvalues --   -0.27211  -0.26810  -0.26732  -0.26414  -0.26163
 Alpha  occ. eigenvalues --   -0.25323  -0.25015  -0.24212  -0.24129  -0.22130
 Alpha  occ. eigenvalues --   -0.19998  -0.17605  -0.17024  -0.16177  -0.14622
 Alpha  occ. eigenvalues --    0.03819
 Alpha virt. eigenvalues --    0.05666   0.05766   0.07307   0.07686   0.07953
 Alpha virt. eigenvalues --    0.08131   0.08435   0.09046   0.09798   0.10213
 Alpha virt. eigenvalues --    0.10469   0.10565   0.11084   0.11251   0.12325

  Beta  occ. eigenvalues --  -19.08953 -19.03007 -18.99235 -14.22994 -14.19519
  Beta  occ. eigenvalues --  -10.21771 -10.17798 -10.11832 -10.09410 -10.09407
  Beta  occ. eigenvalues --  -10.08465 -10.08414 -10.08315 -10.08232 -10.08195
  Beta  occ. eigenvalues --  -10.07910 -10.07568  -1.02778  -0.94151  -0.93630
  Beta  occ. eigenvalues --   -0.80358  -0.79978  -0.79770  -0.68849  -0.65872
  Beta  occ. eigenvalues --   -0.63262  -0.62949  -0.61254  -0.55895  -0.50073
  Beta  occ. eigenvalues --   -0.49754  -0.47853  -0.47526  -0.43985  -0.43414
  Beta  occ. eigenvalues --   -0.43312  -0.43078  -0.40601  -0.39206  -0.38777
  Beta  occ. eigenvalues --   -0.37678  -0.36269  -0.35514  -0.34692  -0.33519
  Beta  occ. eigenvalues --   -0.32710  -0.31630  -0.31024  -0.30305  -0.29958
  Beta  occ. eigenvalues --   -0.27178  -0.26781  -0.26720  -0.26397  -0.26141
  Beta  occ. eigenvalues --   -0.25289  -0.24999  -0.24196  -0.24103  -0.22118
  Beta  occ. eigenvalues --   -0.19984  -0.17522  -0.17001  -0.16161  -0.14604
  Beta virt. eigenvalues --    0.05685   0.06199   0.07094   0.07787   0.07815
  Beta virt. eigenvalues --    0.07990   0.08249   0.08817   0.09550   0.09933
  Beta virt. eigenvalues --    0.10370   0.10729   0.10845   0.11306   0.11617

 Mulliken charges and spin densities:
               1          2
     1  C   -0.406842  -0.165057
     2  C    0.088521  -0.443374
     3  C   -0.278646   0.673096
     4  C   -0.493950  -0.313085
     5  C    0.254991   0.167376
     6  C   -0.414034   0.067965
     7  C    0.259239  -0.692847
     8  C   -1.481857   1.662904
     9  C    1.728017  -2.303563
    10  C    0.586917  -0.672872
    11  O   -0.342570  -0.019101
    12  N   -0.386096   0.103572
    13  C    1.139543  -1.279351
    14  C   -0.745739   0.481432
    15  O   -0.281110  -0.015779
    16  O   -0.128906   0.016247
    17  N   -0.402459   0.023874
    18  H    0.253962  -0.072746
    19  H    0.109533   0.053238
    20  H   -0.145276   0.328803
    21  H    0.340347  -0.213197
    22  H   -0.120464   0.369610
    23  H    0.068141   0.064364
    24  H    0.013592   0.116751
    25  H    0.146600   0.088326
    26  H    0.123976   0.063352
    27  H    0.139447   0.020853
    28  H   -0.017384   0.176468
    29  H   -0.279462   0.458831
    30  H    0.385240  -0.277831
    31  H   -0.775532   0.990223
    32  H   -0.488163   0.770287
    33  H   -0.235322   0.537531
    34  H    0.250039   0.036283
    35  H   -0.014773   0.269562
    36  H    0.295043   0.005381
    37  H    0.255438  -0.077526
 Sum of Mulliken charges =  -1.00000   1.00000

 Dipole moment (field-independent basis, Debye):
    X=             -7.7677    Y=              4.7350    Z=              3.3894  Tot=              9.7080
 Quadrupole moment (field-independent basis, Debye-Ang):
   XX=           -182.3257   YY=           -151.7973   ZZ=           -147.6977
   XY=             16.4109   XZ=              8.5407   YZ=            -11.7247

 Summary of Natural Population Analysis:

                                       Natural Population
                Natural  -----------------------------------------------
    Atom  No    Charge         Core      Valence    Rydberg      Total
 -----------------------------------------------------------------------
      C    1   -0.19697      0.99963     2.18911    0.00824     3.19697
      C    2   -0.19096      0.99963     2.18302    0.00831     3.19096
      C    3   -0.12961      0.99960     2.11758    0.01243     3.12961
      C    4   -0.17908      0.99963     2.17162    0.00783     3.17908
      C    5   -0.12775      0.99960     2.11688    0.01127     3.12775
      C    6   -0.10010      0.99953     2.09062    0.00995     3.10010
      C    7   -0.10110      0.99952     2.09159    0.00999     3.10110
      C    8   -0.19386      0.99960     2.18483    0.00942     3.19386
      C    9   -0.23469      0.99958     2.22421    0.01089     3.23469
      C   10    0.33909      0.99969     1.63755    0.02367     2.66091
      O   11   -0.33751      0.99987     3.33154    0.00610     4.33751
      N   12   -0.39297      0.99970     2.88506    0.00820     3.89297
      C   13   -0.05816      0.99955     2.04514    0.01347     3.05816
      C   14    0.41556      0.99969     1.55764    0.02711     2.58444
      O   15   -0.31539      0.99986     3.30931    0.00622     4.31539
      O   16   -0.33939      0.99987     3.33358    0.00594     4.33939
      N   17   -0.42787      0.99976     2.91924    0.00887     3.92787
      H   18    0.11470      0.00000     0.38388    0.00142     0.38530
      H   19    0.09672      0.00000     0.40235    0.00093     0.40328
      H   20    0.09961      0.00000     0.39923    0.00115     0.40039
      H   21    0.10128      0.00000     0.39720    0.00151     0.39872
      H   22    0.10415      0.00000     0.39493    0.00092     0.39585
      H   23    0.09981      0.00000     0.39919    0.00100     0.40019
      H   24    0.09623      0.00000     0.40267    0.00110     0.40377
      H   25    0.10238      0.00000     0.39683    0.00079     0.39762
      H   26    0.10638      0.00000     0.39267    0.00095     0.39362
      H   27    0.10374      0.00000     0.39523    0.00104     0.39626
      H   28    0.10538      0.00000     0.39270    0.00192     0.39462
      H   29    0.10330      0.00000     0.39512    0.00159     0.39670
      H   30    0.10714      0.00000     0.39117    0.00170     0.39286
      H   31    0.11208      0.00000     0.38531    0.00261     0.38792
      H   32    0.20509      0.00000     0.26645    0.02846     0.29491
      H   33    0.19682      0.00000     0.30015    0.00303     0.30318
      H   34    0.10790      0.00000     0.39043    0.00167     0.39210
      H   35    0.23717      0.00000     0.25859    0.00424     0.26283
      H   36    0.19227      0.00000     0.30567    0.00207     0.30773
      H   37    0.17862      0.00000     0.31829    0.00309     0.32138
 =======================================================================
   * Total *    0.00000     16.99434    47.75655    0.24911    65.00000

 Normal termination of Gaussian 16 at Fri Dec 11 13:53:10 2020.
