 Gaussian 16, Revision A.03,

 -----------------------------------------------------------
 # opt freq B3LYP/6-31G(d) empiricaldispersion=gd3bj scf=xqc
 -----------------------------------------------------------

 -------------------------------
 CID_130020150_JID_4389_neutraal
 -------------------------------
 Symbolic Z-matrix:
 Charge =  0 Multiplicity = 1

 SCF Done:  E(RB3LYP) =  -614.830631399     A.U. after   14 cycles
 SCF Done:  E(RB3LYP) =  -614.835339434     A.U. after   12 cycles
 SCF Done:  E(RB3LYP) =  -614.836564149     A.U. after   11 cycles
 SCF Done:  E(RB3LYP) =  -614.837454491     A.U. after   11 cycles
 SCF Done:  E(RB3LYP) =  -614.837790812     A.U. after   11 cycles
 SCF Done:  E(RB3LYP) =  -614.838046454     A.U. after   10 cycles
 SCF Done:  E(RB3LYP) =  -614.838117475     A.U. after   10 cycles
 SCF Done:  E(RB3LYP) =  -614.838139869     A.U. after   10 cycles
 SCF Done:  E(RB3LYP) =  -614.838143711     A.U. after   10 cycles
 SCF Done:  E(RB3LYP) =  -614.838170379     A.U. after   10 cycles
 SCF Done:  E(RB3LYP) =  -614.838171226     A.U. after    7 cycles
 SCF Done:  E(RB3LYP) =  -614.838171333     A.U. after    7 cycles
 SCF Done:  E(RB3LYP) =  -614.838171524     A.U. after    7 cycles
 Optimization completed.
    -- Stationary point found.
 Normal termination of Gaussian 16 at Thu Dec 10 09:26:58 2020.

 --------------------------------------------------------------------
 #N Geom=AllCheck Guess=TCheck SCRF=Check GenChk RB3LYP/6-31G(d) Freq
 --------------------------------------------------------------------

 Structure from the checkpoint file:  "JID_4389.chk"
 -------------------------------
 CID_130020150_JID_4389_neutraal
 -------------------------------
 Charge =  0 Multiplicity = 1

 SCF Done:  E(RB3LYP) =  -614.838171524     A.U. after    1 cycles

  Exact polarizability: 151.310  -1.724 117.714  -5.004  -1.131  95.832
 Approx polarizability: 186.917  -3.988 169.829 -10.596  -4.984 159.909

                      1                      2                      3
                      A                      A                      A
 Frequencies --     60.8646               101.4655               117.4957
 Red. masses --      4.1414                 3.6392                 4.0888
 Frc consts  --      0.0090                 0.0221                 0.0333
 IR Inten    --      1.1972                 0.4764                 2.0377

                      4                      5                      6
                      A                      A                      A
 Frequencies --    162.0108               207.2209               257.5573
 Red. masses --      3.3332                 2.4996                 3.2852
 Frc consts  --      0.0515                 0.0632                 0.1284
 IR Inten    --      0.8669                 1.0000                 0.9668

                      7                      8                      9
                      A                      A                      A
 Frequencies --    305.9877               324.7751               331.4321
 Red. masses --      2.5887                 2.1571                 2.7538
 Frc consts  --      0.1428                 0.1341                 0.1782
 IR Inten    --      0.5389                 0.1343                 1.2808

                     10                     11                     12
                      A                      A                      A
 Frequencies --    354.2992               402.9798               444.0879
 Red. masses --      2.7927                 2.8971                 3.1451
 Frc consts  --      0.2065                 0.2772                 0.3654
 IR Inten    --      0.4807                 0.2644                 0.2791

                     13                     14                     15
                      A                      A                      A
 Frequencies --    465.8593               484.6413               530.0573
 Red. masses --      2.7569                 1.8567                 1.5693
 Frc consts  --      0.3525                 0.2569                 0.2598
 IR Inten    --      3.5785               121.0814               102.2845

                     16                     17                     18
                      A                      A                      A
 Frequencies --    547.3004               557.1399               567.1167
 Red. masses --      3.0811                 1.5335                 2.1385
 Frc consts  --      0.5438                 0.2805                 0.4052
 IR Inten    --      4.7603                13.4715                23.7890

                     19                     20                     21
                      A                      A                      A
 Frequencies --    634.1458               719.0769               744.8468
 Red. masses --      2.4418                 3.2305                 3.7915
 Frc consts  --      0.5785                 0.9842                 1.2393
 IR Inten    --      8.7112                 7.6641                18.9578

                     22                     23                     24
                      A                      A                      A
 Frequencies --    761.1918               778.7883               800.9384
 Red. masses --      9.7330                 2.4111                 2.3976
 Frc consts  --      3.3226                 0.8616                 0.9062
 IR Inten    --     42.2794                 0.5653                 0.1812

                     25                     26                     27
                      A                      A                      A
 Frequencies --    849.3749               861.6830               894.3299
 Red. masses --      1.6704                 2.3804                 1.7667
 Frc consts  --      0.7100                 1.0413                 0.8325
 IR Inten    --      0.6994                 0.9322                 0.6097

                     28                     29                     30
                      A                      A                      A
 Frequencies --    933.5276               934.4928               960.4938
 Red. masses --      1.9962                 2.4031                 1.5759
 Frc consts  --      1.0250                 1.2364                 0.8566
 IR Inten    --      0.3908                 2.3002                 3.2473

                     31                     32                     33
                      A                      A                      A
 Frequencies --    990.1505               997.6834              1028.9087
 Red. masses --      3.1892                 2.2164                 1.8070
 Frc consts  --      1.8422                 1.2998                 1.1271
 IR Inten    --     12.3651                 9.4543                 1.2247

                     34                     35                     36
                      A                      A                      A
 Frequencies --   1057.9571              1076.0476              1093.1564
 Red. masses --      2.2382                 1.4434                 2.5194
 Frc consts  --      1.4760                 0.9847                 1.7738
 IR Inten    --      1.2750                 1.3405                 3.0876

                     37                     38                     39
                      A                      A                      A
 Frequencies --   1097.8126              1099.8936              1105.8126
 Red. masses --      1.9306                 2.0364                 2.2236
 Frc consts  --      1.3709                 1.4515                 1.6021
 IR Inten    --      1.0103                 5.3387                36.2219

                     40                     41                     42
                      A                      A                      A
 Frequencies --   1120.8941              1149.0091              1155.0305
 Red. masses --      1.8225                 2.0553                 2.5319
 Frc consts  --      1.3491                 1.5987                 1.9901
 IR Inten    --      9.0220                 2.2140                 2.4132

                     43                     44                     45
                      A                      A                      A
 Frequencies --   1170.8199              1191.2851              1243.2693
 Red. masses --      2.3048                 1.3357                 1.4066
 Frc consts  --      1.8615                 1.1168                 1.2810
 IR Inten    --      0.1998                 0.8882                 2.0396

                     46                     47                     48
                      A                      A                      A
 Frequencies --   1249.9160              1276.4109              1285.5837
 Red. masses --      1.3784                 1.5192                 1.5675
 Frc consts  --      1.2688                 1.4583                 1.5263
 IR Inten    --      7.7328                32.9861                28.9290

                     49                     50                     51
                      A                      A                      A
 Frequencies --   1297.9797              1317.1645              1328.5436
 Red. masses --      1.2942                 1.3109                 1.4608
 Frc consts  --      1.2846                 1.3400                 1.5191
 IR Inten    --      5.9042                18.8281                18.5624

                     52                     53                     54
                      A                      A                      A
 Frequencies --   1335.5039              1346.5255              1362.4689
 Red. masses --      1.3652                 1.3351                 1.2689
 Frc consts  --      1.4346                 1.4263                 1.3878
 IR Inten    --      5.1147                 3.5574                 2.6912

                     55                     56                     57
                      A                      A                      A
 Frequencies --   1368.9758              1375.5434              1391.8309
 Red. masses --      1.4235                 1.3114                 1.4336
 Frc consts  --      1.5718                 1.4620                 1.6363
 IR Inten    --     13.9323                 0.4728                 2.8060

                     58                     59                     60
                      A                      A                      A
 Frequencies --   1398.5041              1406.2618              1408.7115
 Red. masses --      1.3592                 1.5026                 1.4435
 Frc consts  --      1.5663                 1.7507                 1.6877
 IR Inten    --      1.3875                 4.4410                26.4726

                     61                     62                     63
                      A                      A                      A
 Frequencies --   1412.6656              1424.9839              1430.0754
 Red. masses --      1.4212                 1.5606                 1.5050
 Frc consts  --      1.6711                 1.8671                 1.8134
 IR Inten    --      2.1938                16.7761                 7.3756

                     64                     65                     66
                      A                      A                      A
 Frequencies --   1443.0786              1447.9685              1514.7152
 Red. masses --      1.8305                 1.8580                 1.0933
 Frc consts  --      2.2460                 2.2951                 1.4780
 IR Inten    --     37.3075                30.0191                 0.7322

                     67                     68                     69
                      A                      A                      A
 Frequencies --   1516.4799              1518.9928              1520.3971
 Red. masses --      1.0886                 1.0884                 1.0893
 Frc consts  --      1.4750                 1.4796                 1.4836
 IR Inten    --      4.6729                 1.4923                 5.2846

                     70                     71                     72
                      A                      A                      A
 Frequencies --   1532.4409              1534.5532              1856.0811
 Red. masses --      1.0943                 1.0918                 9.5515
 Frc consts  --      1.5141                 1.5148                19.3872
 IR Inten    --      2.6988                 2.4185               652.1926

                     73                     74                     75
                      A                      A                      A
 Frequencies --   2979.4313              2992.3047              3001.1134
 Red. masses --      1.0801                 1.0847                 1.0817
 Frc consts  --      5.6489                 5.7222                 5.7402
 IR Inten    --      4.7186                42.8990                 9.7011

                     76                     77                     78
                      A                      A                      A
 Frequencies --   3019.8467              3023.7404              3024.4187
 Red. masses --      1.0672                 1.0692                 1.0640
 Frc consts  --      5.7341                 5.7596                 5.7345
 IR Inten    --     22.8596                24.3339                18.0269

                     79                     80                     81
                      A                      A                      A
 Frequencies --   3029.6002              3044.7212              3047.7875
 Red. masses --      1.0614                 1.0613                 1.0619
 Frc consts  --      5.7396                 5.7968                 5.8118
 IR Inten    --     41.6044                46.0965                13.9004

                     82                     83                     84
                      A                      A                      A
 Frequencies --   3066.0421              3067.2079              3068.4749
 Red. masses --      1.0931                 1.0995                 1.0920
 Frc consts  --      6.0545                 6.0943                 6.0579
 IR Inten    --     46.0979                11.0902                46.7099

                     85                     86                     87
                      A                      A                      A
 Frequencies --   3075.7157              3080.9100              3086.8572
 Red. masses --      1.0938                 1.1043                 1.1046
 Frc consts  --      6.0965                 6.1756                 6.2015
 IR Inten    --     64.5863                68.3527                42.8066

                     88                     89                     90
                      A                      A                      A
 Frequencies --   3094.5234              3615.9961              3626.1995
 Red. masses --      1.1010                 1.0771                 1.0773
 Frc consts  --      6.2121                 8.2981                 8.3465
 IR Inten    --     63.1057                18.1439                25.2663

 - Thermochemistry -
 -------------------
 Temperature   298.150 Kelvin.  Pressure   1.00000 Atm.
 Atom     1 has atomic number  6 and mass  12.00000

 Molecular mass:   194.14191 amu.
 Principal axes and moments of inertia in atomic units:
                           1         2         3
     Eigenvalues --   945.958364717.483545328.80998
           X            1.00000   0.00219   0.00170
           Y           -0.00220   0.99999   0.00264
           Z           -0.00169  -0.00265   1.00000
 This molecule is an asymmetric top.
 Rotational symmetry number  1.
 Warning -- assumption of classical behavior for rotation
           may cause significant error
 Rotational temperatures (Kelvin)      0.09156     0.01836     0.01625
 Rotational constants (GHZ):           1.90784     0.38256     0.33868
 Zero-point vibrational energy     759151.1 (Joules/Mol)
                                  181.44148 (Kcal/Mol)
 Warning -- explicit consideration of  18 degrees of freedom as
           vibrations may cause significant error
 Vibrational temperatures:     87.57   145.99   169.05   233.10   298.14
          (Kelvin)            370.57   440.25   467.28   476.86   509.76
                              579.80   638.94   670.27   697.29   762.63
                              787.44   801.60   815.95   912.39  1034.59
                             1071.67  1095.19  1120.50  1152.37  1222.06
                             1239.77  1286.74  1343.14  1344.53  1381.94
                             1424.61  1435.44  1480.37  1522.16  1548.19
                             1572.81  1579.51  1582.50  1591.02  1612.72
                             1653.17  1661.83  1684.55  1713.99  1788.79
                             1798.35  1836.47  1849.67  1867.50  1895.11
                             1911.48  1921.49  1937.35  1960.29  1969.65
                             1979.10  2002.53  2012.14  2023.30  2026.82
                             2032.51  2050.23  2057.56  2076.27  2083.30
                             2179.34  2181.88  2185.49  2187.51  2204.84
                             2207.88  2670.49  4286.74  4305.26  4317.93
                             4344.89  4350.49  4351.46  4358.92  4380.67
                             4385.09  4411.35  4413.03  4414.85  4425.27
                             4432.74  4441.30  4452.33  5202.61  5217.29

 Zero-point correction=                           0.289145 (Hartree/Particle)
 Thermal correction to Energy=                    0.300734
 Thermal correction to Enthalpy=                  0.301678
 Thermal correction to Gibbs Free Energy=         0.251861
 Sum of electronic and zero-point Energies=           -614.549026
 Sum of electronic and thermal Energies=              -614.537438
 Sum of electronic and thermal Enthalpies=            -614.536493
 Sum of electronic and thermal Free Energies=         -614.586310

                     E (Thermal)             CV                S
                      KCal/Mol        Cal/Mol-Kelvin    Cal/Mol-Kelvin
 Total                  188.713             48.345            104.848
 Electronic               0.000              0.000              0.000
 Translational            0.889              2.981             41.696
 Rotational               0.889              2.981             31.542
 Vibrational            186.936             42.383             31.610
 Vibration     1          0.597              1.973              4.429
 Vibration     2          0.604              1.948              3.426
 Vibration     3          0.608              1.935              3.141
 Vibration     4          0.622              1.889              2.526
 Vibration     5          0.641              1.830              2.068
 Vibration     6          0.667              1.750              1.678
 Vibration     7          0.696              1.662              1.384
 Vibration     8          0.709              1.626              1.286
 Vibration     9          0.714              1.613              1.253
 Vibration    10          0.730              1.566              1.147
 Vibration    11          0.768              1.464              0.952
 Vibration    12          0.804              1.374              0.814
 Vibration    13          0.823              1.326              0.749
 Vibration    14          0.841              1.284              0.698
 Vibration    15          0.885              1.183              0.587
 Vibration    16          0.903              1.146              0.550
 Vibration    17          0.913              1.124              0.530
 Vibration    18          0.923              1.102              0.510

 Optimization completed.
    -- Stationary point found.
 Normal termination of Gaussian 16 at Thu Dec 10 09:38:01 2020.

 ----------------------------------------------------------------------
 # B3LYP/6-311++G(d,p) empiricaldispersion=gd3bj scf=xqc pop=npa geom=c
 heck
 ----------------------------------------------------------------------

 ---------------------------------------
 CID_130020150_JID_4389_Energie_neutraal
 ---------------------------------------
 Structure from the checkpoint file:  "JID_4389.chk"
 Charge =  0 Multiplicity = 1

 SCF Done:  E(RB3LYP) =  -615.012532670     A.U. after   14 cycles
 Normal termination of Gaussian 16 at Thu Dec 10 09:43:05 2020.

 ----------------------------------------------------------------------
 # B3LYP/6-311++G(d,p) empiricaldispersion=gd3bj scf=xqc pop=npa geom=c
 heck
 ----------------------------------------------------------------------

 -------------------------------------
 CID_130020150_JID_4389_Energie_kation
 -------------------------------------
 Structure from the checkpoint file:  "JID_4389.chk"
 Charge =  1 Multiplicity = 2

 SCF Done:  E(UB3LYP) =  -614.690321041     A.U. after   30 cycles
 Normal termination of Gaussian 16 at Thu Dec 10 09:58:26 2020.
 Gaussian 16:  ES64L-G16RevA.03 25-Dec-2016

 ----------------------------------------------------------------------
 # B3LYP/6-311++G(d,p) empiricaldispersion=gd3bj scf=xqc pop=npa geom=c
 heck
 ----------------------------------------------------------------------

 ------------------------------------
 CID_130020150_JID_4389_Energie_anion
 ------------------------------------
 Structure from the checkpoint file:  "JID_4389.chk"
 Charge = -1 Multiplicity = 2

                         Standard orientation:
 ---------------------------------------------------------------------
 Center     Atomic      Atomic             Coordinates (Angstroms)
 Number     Number       Type             X           Y           Z
 ---------------------------------------------------------------------
      1          6           0       -3.635220   -0.893431   -0.219767
      2          6           0       -3.718958    0.535154    0.340639
      3          6           0       -2.556426    1.415702   -0.144524
      4          6           0       -1.215887    0.747727    0.173840
      5          6           0        0.029305    1.562236   -0.190894
      6          6           0        1.259410    0.939628    0.491517
      7          6           0        1.136810   -0.603998    0.674547
      8          6           0        0.281214   -1.242128   -0.428591
      9          6           0       -1.142957   -0.634142   -0.512001
     10          6           0       -2.260997   -1.535513    0.026745
     11          7           0        2.540427   -0.999388    0.634477
     12          6           0        3.305121   -0.078163   -0.075788
     13          8           0        4.458039   -0.215900   -0.442107
     14          7           0        2.489772    1.029163   -0.286821
     15          1           0       -3.817178   -0.863778   -1.303786
     16          1           0       -4.429617   -1.513941    0.212673
     17          1           0       -4.680156    0.989090    0.070397
     18          1           0       -3.691739    0.492102    1.439099
     19          1           0       -2.609113    2.405605    0.327158
     20          1           0       -2.635142    1.577991   -1.229571
     21          1           0       -1.197164    0.586658    1.264705
     22          1           0       -0.081138    2.610740    0.110923
     23          1           0        0.175090    1.552581   -1.278340
     24          1           0        1.389783    1.391886    1.487119
     25          1           0        0.709450   -0.830139    1.656856
     26          1           0        0.228637   -2.326690   -0.268478
     27          1           0        0.806505   -1.091056   -1.378364
     28          1           0       -1.358959   -0.460793   -1.577163
     29          1           0       -2.111236   -1.701674    1.104241
     30          1           0       -2.215565   -2.522065   -0.452364
     31          1           0        2.796541   -1.971781    0.524127
     32          1           0        2.956797    1.915616   -0.420307
 ---------------------------------------------------------------------

 SCF Done:  E(UB3LYP) =  -615.000562745     A.U. after   33 cycles
 SCF Done:  E(UB3LYP) =  -615.000562745     a.u. after    1 cycles

 The electronic state is 2-A.
 Alpha  occ. eigenvalues --  -18.98842 -14.23236 -14.23194 -10.19454 -10.11779
 Alpha  occ. eigenvalues --  -10.11738 -10.07757 -10.07502 -10.07338 -10.07180
 Alpha  occ. eigenvalues --  -10.06800 -10.06709 -10.06639 -10.06634  -0.95362
 Alpha  occ. eigenvalues --   -0.86905  -0.78856  -0.75500  -0.69774  -0.66759
 Alpha  occ. eigenvalues --   -0.63358  -0.61716  -0.55006  -0.52470  -0.51928
 Alpha  occ. eigenvalues --   -0.50007  -0.47252  -0.45413  -0.42280  -0.39743
 Alpha  occ. eigenvalues --   -0.38734  -0.37228  -0.36006  -0.35162  -0.34231
 Alpha  occ. eigenvalues --   -0.33219  -0.32275  -0.31553  -0.30011  -0.29083
 Alpha  occ. eigenvalues --   -0.28455  -0.27738  -0.27697  -0.26601  -0.24335
 Alpha  occ. eigenvalues --   -0.23733  -0.23235  -0.22077  -0.20759  -0.19684
 Alpha  occ. eigenvalues --   -0.17534  -0.16389  -0.15281   0.04284
 Alpha virt. eigenvalues --    0.06442   0.06667   0.07194   0.08365   0.08911
 Alpha virt. eigenvalues --    0.09347   0.09708   0.10161   0.10707   0.11655
 Alpha virt. eigenvalues --    0.12131   0.12362   0.12739   0.13061   0.13909

  Beta  occ. eigenvalues --  -18.98840 -14.23224 -14.23179 -10.19454 -10.11761
  Beta  occ. eigenvalues --  -10.11725 -10.07755 -10.07491 -10.07323 -10.07162
  Beta  occ. eigenvalues --  -10.06786 -10.06694 -10.06616 -10.06613  -0.95354
  Beta  occ. eigenvalues --   -0.86889  -0.78828  -0.75473  -0.69736  -0.66728
  Beta  occ. eigenvalues --   -0.63319  -0.61674  -0.54956  -0.52435  -0.51893
  Beta  occ. eigenvalues --   -0.49952  -0.47198  -0.45372  -0.42229  -0.39700
  Beta  occ. eigenvalues --   -0.38709  -0.37171  -0.35974  -0.35135  -0.34198
  Beta  occ. eigenvalues --   -0.33186  -0.32252  -0.31529  -0.29977  -0.29051
  Beta  occ. eigenvalues --   -0.28414  -0.27694  -0.27664  -0.26572  -0.24292
  Beta  occ. eigenvalues --   -0.23696  -0.23199  -0.22044  -0.20730  -0.19640
  Beta  occ. eigenvalues --   -0.17521  -0.16375  -0.15254
  Beta virt. eigenvalues --    0.06576   0.07277   0.07597   0.07636   0.08966
  Beta virt. eigenvalues --    0.09442   0.09853   0.10264   0.10427   0.11226
  Beta virt. eigenvalues --    0.12001   0.12398   0.12846   0.12984   0.13225

 Mulliken charges and spin densities:
               1          2
     1  C    0.375992  -0.827873
     2  C    0.093087  -0.559971
     3  C   -0.049332  -0.335674
     4  C   -0.965602   1.457531
     5  C    1.312580  -1.963461
     6  C    0.375564  -0.621444
     7  C    0.494031  -1.080172
     8  C   -0.395365   0.006127
     9  C    0.187699   0.046206
    10  C    0.286223  -0.769325
    11  N   -0.169761   0.070914
    12  C    0.160478   0.037186
    13  O   -0.435192   0.012369
    14  N   -0.343992   0.189358
    15  H    0.219275  -0.116424
    16  H   -0.378801   0.560569
    17  H   -0.410407   0.590353
    18  H   -0.036039   0.165004
    19  H   -0.283497   0.446265
    20  H    0.055724   0.073257
    21  H    0.108722   0.091482
    22  H   -0.470104   0.656018
    23  H    0.200447  -0.029462
    24  H   -0.265465   0.513822
    25  H   -0.495677   0.769496
    26  H   -0.295491   0.486209
    27  H    0.126120   0.060219
    28  H    0.000485   0.190393
    29  H   -0.047189   0.206578
    30  H   -0.199368   0.345679
    31  H    0.094592   0.179085
    32  H    0.150264   0.149685
 Sum of Mulliken charges =  -1.00000   1.00000

 Dipole moment (field-independent basis, Debye):
    X=              0.2435    Y=             -0.5350    Z=             -3.8882  Tot=              3.9324
 Quadrupole moment (field-independent basis, Debye-Ang):
   XX=           -175.5811   YY=           -130.9162   ZZ=           -118.9715
   XY=              0.9937   XZ=              6.8165   YZ=             -2.5906

 Summary of Natural Population Analysis:

                                       Natural Population
                Natural  -----------------------------------------------
    Atom  No    Charge         Core      Valence    Rydberg      Total
 -----------------------------------------------------------------------
      C    1   -0.18752      0.99963     2.17954    0.00835     3.18752
      C    2   -0.18746      0.99963     2.17977    0.00807     3.18746
      C    3   -0.18428      0.99961     2.17496    0.00971     3.18428
      C    4   -0.11146      0.99956     2.10070    0.01119     3.11146
      C    5   -0.19153      0.99960     2.18125    0.01069     3.19153
      C    6   -0.00221      0.99958     1.98985    0.01278     3.00221
      C    7   -0.00704      0.99957     1.99515    0.01233     3.00704
      C    8   -0.19633      0.99959     2.18656    0.01018     3.19633
      C    9   -0.10438      0.99957     2.09500    0.00981     3.10438
      C   10   -0.18598      0.99960     2.17737    0.00900     3.18598
      N   11   -0.33220      0.99968     2.82268    0.00984     3.83220
      C   12    0.40644      0.99970     1.56986    0.02400     2.59356
      O   13   -0.33402      0.99987     3.32892    0.00523     4.33402
      N   14   -0.33672      0.99967     2.82752    0.00953     3.83672
      H   15    0.08988      0.00000     0.40890    0.00123     0.41012
      H   16    0.10011      0.00000     0.39878    0.00111     0.39989
      H   17    0.09821      0.00000     0.40068    0.00111     0.40179
      H   18    0.09558      0.00000     0.40286    0.00157     0.40442
      H   19    0.10182      0.00000     0.39702    0.00115     0.39818
      H   20    0.09110      0.00000     0.40760    0.00130     0.40890
      H   21    0.09647      0.00000     0.40065    0.00288     0.40353
      H   22    0.10505      0.00000     0.39344    0.00151     0.39495
      H   23    0.09830      0.00000     0.40014    0.00156     0.40170
      H   24    0.09534      0.00000     0.40198    0.00268     0.40466
      H   25    0.10198      0.00000     0.39575    0.00227     0.39802
      H   26    0.10257      0.00000     0.39604    0.00139     0.39743
      H   27    0.10030      0.00000     0.39832    0.00137     0.39970
      H   28    0.09233      0.00000     0.40590    0.00177     0.40767
      H   29    0.09667      0.00000     0.40161    0.00173     0.40333
      H   30    0.09781      0.00000     0.40111    0.00108     0.40219
      H   31    0.19464      0.00000     0.30317    0.00219     0.30536
      H   32    0.19655      0.00000     0.30180    0.00165     0.30345
 =======================================================================
   * Total *   -0.00000     13.99486    38.82488    0.18026    53.00000

 Normal termination of Gaussian 16 at Thu Dec 10 10:15:19 2020.
