 Gaussian 16, Revision A.03,

 -----------------------------------------------------------
 # opt freq B3LYP/6-31G(d) empiricaldispersion=gd3bj scf=xqc
 -----------------------------------------------------------

 ------------------------------
 CID_65924101_JID_6944_neutraal
 ------------------------------
 Symbolic Z-matrix:
 Charge =  0 Multiplicity = 1

 SCF Done:  E(RB3LYP) =  -657.489075068     A.U. after   15 cycles
 SCF Done:  E(RB3LYP) =  -657.512015210     A.U. after   12 cycles
 SCF Done:  E(RB3LYP) =  -657.513021767     A.U. after   12 cycles
 SCF Done:  E(RB3LYP) =  -657.513229405     A.U. after   11 cycles
 SCF Done:  E(RB3LYP) =  -657.513327979     A.U. after   10 cycles
 SCF Done:  E(RB3LYP) =  -657.513373492     A.U. after   10 cycles
 SCF Done:  E(RB3LYP) =  -657.513390507     A.U. after   10 cycles
 SCF Done:  E(RB3LYP) =  -657.513395892     A.U. after    9 cycles
 SCF Done:  E(RB3LYP) =  -657.513396963     A.U. after    9 cycles
 SCF Done:  E(RB3LYP) =  -657.513397113     A.U. after    9 cycles
 SCF Done:  E(RB3LYP) =  -657.515058101     A.U. after   10 cycles
 SCF Done:  E(RB3LYP) =  -657.515060534     A.U. after    9 cycles
 SCF Done:  E(RB3LYP) =  -657.515060669     A.U. after    9 cycles
 SCF Done:  E(RB3LYP) =  -657.515061741     A.U. after    9 cycles
 SCF Done:  E(RB3LYP) =  -657.515061808     A.U. after    7 cycles
 Optimization completed.
    -- Stationary point found.
 Normal termination of Gaussian 16 at Fri Dec 11 00:52:17 2020.

 --------------------------------------------------------------------
 #N Geom=AllCheck Guess=TCheck SCRF=Check GenChk RB3LYP/6-31G(d) Freq
 --------------------------------------------------------------------

 Structure from the checkpoint file:  "JID_6944.chk"
 ------------------------------
 CID_65924101_JID_6944_neutraal
 ------------------------------
 Charge =  0 Multiplicity = 1

 SCF Done:  E(RB3LYP) =  -657.515061808     A.U. after    1 cycles

  Exact polarizability: 175.840   0.567 153.325   0.873  -0.142 124.507
 Approx polarizability: 203.570   0.459 229.300   0.933  -2.579 198.879

                      1                      2                      3
                      A                      A                      A
 Frequencies --     27.9340                37.3738                43.6182
 Red. masses --      3.0255                 3.1552                 2.8763
 Frc consts  --      0.0014                 0.0026                 0.0032
 IR Inten    --      0.1097                 0.2293                 0.5637

                      4                      5                      6
                      A                      A                      A
 Frequencies --     70.5972                96.0519               119.1633
 Red. masses --      2.8914                 3.2448                 7.8294
 Frc consts  --      0.0085                 0.0176                 0.0655
 IR Inten    --      0.4573                 1.8050                 5.6492

                      7                      8                      9
                      A                      A                      A
 Frequencies --    151.7241               156.7363               189.9929
 Red. masses --      2.5733                 2.3137                 3.6789
 Frc consts  --      0.0349                 0.0335                 0.0782
 IR Inten    --      0.1018                 0.0610                 2.8212

                     10                     11                     12
                      A                      A                      A
 Frequencies --    216.9973               234.6739               247.8884
 Red. masses --      2.2960                 1.3734                 2.0898
 Frc consts  --      0.0637                 0.0446                 0.0757
 IR Inten    --      0.3595                 0.7813                 1.6401

                     13                     14                     15
                      A                      A                      A
 Frequencies --    272.3207               296.2935               355.1570
 Red. masses --      2.7770                 2.1369                 2.9969
 Frc consts  --      0.1213                 0.1105                 0.2227
 IR Inten    --      1.4601                 0.9549                 6.2654

                     16                     17                     18
                      A                      A                      A
 Frequencies --    363.8258               402.4096               412.6418
 Red. masses --      3.1006                 4.2254                 3.1220
 Frc consts  --      0.2418                 0.4031                 0.3132
 IR Inten    --      2.5670                 1.3157                 0.1843

                     19                     20                     21
                      A                      A                      A
 Frequencies --    445.9811               463.9754               493.4336
 Red. masses --      1.7389                 2.6722                 2.0370
 Frc consts  --      0.2038                 0.3389                 0.2922
 IR Inten    --      0.1578                 2.0952                 2.7174

                     22                     23                     24
                      A                      A                      A
 Frequencies --    515.8212               566.3345               587.1672
 Red. masses --      2.7752                 3.5006                 2.7290
 Frc consts  --      0.4351                 0.6615                 0.5543
 IR Inten    --      0.4334                 0.3641                 2.8055

                     25                     26                     27
                      A                      A                      A
 Frequencies --    621.3974               667.4008               724.7353
 Red. masses --      3.2327                 3.4255                 1.7591
 Frc consts  --      0.7355                 0.8990                 0.5444
 IR Inten    --      1.5914                19.2095                56.1696

                     28                     29                     30
                      A                      A                      A
 Frequencies --    787.3253               795.3021               827.3807
 Red. masses --      1.2201                 2.0619                 2.1510
 Frc consts  --      0.4456                 0.7684                 0.8676
 IR Inten    --      0.6283                 0.4993                 3.7921

                     31                     32                     33
                      A                      A                      A
 Frequencies --    855.8554               871.9190               875.3182
 Red. masses --      1.8420                 1.8567                 1.9059
 Frc consts  --      0.7950                 0.8317                 0.8604
 IR Inten    --      1.3599                 0.7737                 1.6210

                     34                     35                     36
                      A                      A                      A
 Frequencies --    889.7839               901.9306               915.7594
 Red. masses --      2.4639                 2.4809                 2.0960
 Frc consts  --      1.1493                 1.1891                 1.0356
 IR Inten    --      6.8838                 0.2158                 0.3113

                     37                     38                     39
                      A                      A                      A
 Frequencies --    941.1213               961.3269               964.0859
 Red. masses --      2.1053                 1.8951                 2.2531
 Frc consts  --      1.0986                 1.0319                 1.2339
 IR Inten    --      4.7188                 1.5120                11.8910

                     40                     41                     42
                      A                      A                      A
 Frequencies --    978.1797               995.3616              1003.5997
 Red. masses --      1.6068                 1.6851                 1.3413
 Frc consts  --      0.9059                 0.9837                 0.7960
 IR Inten    --      3.4615                 1.8072                 0.1031

                     43                     44                     45
                      A                      A                      A
 Frequencies --   1007.0669              1048.8256              1054.4393
 Red. masses --      1.4270                 2.2275                 2.2268
 Frc consts  --      0.8527                 1.4437                 1.4587
 IR Inten    --      2.8127                 0.7431                 0.3499

                     46                     47                     48
                      A                      A                      A
 Frequencies --   1056.5960              1078.1994              1104.5826
 Red. masses --      2.3022                 1.9371                 1.1305
 Frc consts  --      1.5143                 1.3268                 0.8127
 IR Inten    --      3.9048                 0.8538                 0.0243

                     49                     50                     51
                      A                      A                      A
 Frequencies --   1112.3458              1125.0661              1132.0029
 Red. masses --      3.0056                 2.3067                 2.8796
 Frc consts  --      2.1911                 1.7203                 2.1741
 IR Inten    --      9.1906                 0.1198                 0.9797

                     52                     53                     54
                      A                      A                      A
 Frequencies --   1163.4349              1176.4141              1191.4282
 Red. masses --      2.6645                 2.0906                 2.0593
 Frc consts  --      2.1250                 1.7047                 1.7223
 IR Inten    --     73.6964                 8.1732                 1.4065

                     55                     56                     57
                      A                      A                      A
 Frequencies --   1215.9050              1220.6225              1236.5695
 Red. masses --      1.5684                 1.5306                 1.4936
 Frc consts  --      1.3661                 1.3436                 1.3456
 IR Inten    --     24.1786                 0.6752                 0.3884

                     58                     59                     60
                      A                      A                      A
 Frequencies --   1247.8393              1268.8559              1293.9374
 Red. masses --      1.4782                 1.3503                 1.1966
 Frc consts  --      1.3561                 1.2809                 1.1804
 IR Inten    --      0.2844                 4.3389                 1.8999

                     61                     62                     63
                      A                      A                      A
 Frequencies --   1303.9455              1306.3971              1318.8821
 Red. masses --      1.2957                 1.3190                 1.2950
 Frc consts  --      1.2980                 1.3263                 1.3272
 IR Inten    --      2.7204                 0.4241                 9.4282

                     64                     65                     66
                      A                      A                      A
 Frequencies --   1324.3427              1335.3382              1339.9360
 Red. masses --      1.1709                 1.2379                 1.2421
 Frc consts  --      1.2099                 1.3006                 1.3140
 IR Inten    --      0.5914                 1.3062                 2.8221

                     67                     68                     69
                      A                      A                      A
 Frequencies --   1354.7666              1356.2030              1361.9812
 Red. masses --      1.2834                 1.3889                 1.3242
 Frc consts  --      1.3879                 1.5051                 1.4472
 IR Inten    --      1.0155                 0.9982                 2.3959

                     70                     71                     72
                      A                      A                      A
 Frequencies --   1364.5731              1367.3824              1387.0340
 Red. masses --      1.3208                 1.2956                 1.3837
 Frc consts  --      1.4490                 1.4272                 1.5684
 IR Inten    --      0.1937                 4.3516                 1.3927

                     73                     74                     75
                      A                      A                      A
 Frequencies --   1396.0412              1402.7937              1408.7498
 Red. masses --      1.3731                 1.4396                 1.5774
 Frc consts  --      1.5767                 1.6691                 1.8444
 IR Inten    --      0.2881                 3.4171                 2.4779

                     76                     77                     78
                      A                      A                      A
 Frequencies --   1423.6725              1431.9157              1440.4669
 Red. masses --      1.6229                 1.3768                 1.2416
 Frc consts  --      1.9380                 1.6633                 1.5179
 IR Inten    --      2.5485                23.6969                 1.8764

                     79                     80                     81
                      A                      A                      A
 Frequencies --   1511.8495              1514.1278              1516.5395
 Red. masses --      1.0888                 1.1024                 1.0941
 Frc consts  --      1.4663                 1.4891                 1.4826
 IR Inten    --      0.6918                 1.1703                 2.8234

                     82                     83                     84
                      A                      A                      A
 Frequencies --   1519.0446              1520.4504              1523.2879
 Red. masses --      1.0871                 1.0885                 1.2174
 Frc consts  --      1.4779                 1.4825                 1.6643
 IR Inten    --      0.0596                 4.5997                11.1006

                     85                     86                     87
                      A                      A                      A
 Frequencies --   1526.9097              1528.0076              1530.7320
 Red. masses --      1.0898                 1.0462                 1.0585
 Frc consts  --      1.4970                 1.4391                 1.4613
 IR Inten    --      2.0293                 5.3672                 2.4580

                     88                     89                     90
                      A                      A                      A
 Frequencies --   1535.8345              1548.1533              2345.6898
 Red. masses --      1.0944                 1.1067                12.6504
 Frc consts  --      1.5210                 1.5629                41.0105
 IR Inten    --      4.8440                 3.6557                 5.6005

                     91                     92                     93
                      A                      A                      A
 Frequencies --   2996.9779              3004.3433              3008.3259
 Red. masses --      1.0792                 1.0750                 1.0721
 Frc consts  --      5.7112                 5.7167                 5.7167
 IR Inten    --      4.4363                 5.3376                 5.5374

                     94                     95                     96
                      A                      A                      A
 Frequencies --   3016.6261              3020.7699              3030.2871
 Red. masses --      1.0700                 1.0728                 1.0643
 Frc consts  --      5.7369                 5.7675                 5.7582
 IR Inten    --     12.4418                32.6135                66.3349

                     97                     98                     99
                      A                      A                      A
 Frequencies --   3039.7542              3040.7883              3046.2867
 Red. masses --      1.0368                 1.0837                 1.0706
 Frc consts  --      5.6446                 5.9036                 5.8537
 IR Inten    --     47.1429                11.0842                31.0238

                    100                    101                    102
                      A                      A                      A
 Frequencies --   3058.0844              3059.7795              3068.0055
 Red. masses --      1.0642                 1.0645                 1.0958
 Frc consts  --      5.8637                 5.8721                 6.0772
 IR Inten    --     15.8563                57.2998                60.4839

                    103                    104                    105
                      A                      A                      A
 Frequencies --   3068.8544              3074.6747              3076.9248
 Red. masses --      1.0749                 1.0721                 1.0987
 Frc consts  --      5.9643                 5.9715                 6.1284
 IR Inten    --      9.0326                21.5765                59.5311

                    106                    107                    108
                      A                      A                      A
 Frequencies --   3083.2091              3096.3423              3104.0069
 Red. masses --      1.0943                 1.0981                 1.1012
 Frc consts  --      6.1292                 6.2029                 6.2510
 IR Inten    --     25.3101                17.7090                53.2519

                    109                    110                    111
                      A                      A                      A
 Frequencies --   3106.8380              3111.4950              3111.6744
 Red. masses --      1.0977                 1.1028                 1.1025
 Frc consts  --      6.2429                 6.2905                 6.2898
 IR Inten    --     17.3130                24.7231                36.7927

                    112                    113                    114
                      A                      A                      A
 Frequencies --   3117.3214              3121.0932              3521.0051
 Red. masses --      1.0911                 1.1041                 1.0747
 Frc consts  --      6.2470                 6.3368                 7.8501
 IR Inten    --     14.8152                91.7389                 1.5392

 - Thermochemistry -
 -------------------
 Temperature   298.150 Kelvin.  Pressure   1.00000 Atm.
 Atom     1 has atomic number  6 and mass  12.00000

 Molecular mass:   220.19395 amu.
 Principal axes and moments of inertia in atomic units:
                           1         2         3
     Eigenvalues --  1822.768396943.045107981.06812
           X            0.99999   0.00410   0.00059
           Y           -0.00410   0.99993   0.01110
           Z           -0.00054  -0.01110   0.99994
 This molecule is an asymmetric top.
 Rotational symmetry number  1.
 Warning -- assumption of classical behavior for rotation
           may cause significant error
 Rotational temperatures (Kelvin)      0.04752     0.01247     0.01085
 Rotational constants (GHZ):           0.99011     0.25994     0.22613
 Zero-point vibrational energy     961848.7 (Joules/Mol)
                                  229.88735 (Kcal/Mol)
 Warning -- explicit consideration of  24 degrees of freedom as
           vibrations may cause significant error
 Vibrational temperatures:     40.19    53.77    62.76   101.57   138.20
          (Kelvin)            171.45   218.30   225.51   273.36   312.21
                              337.64   356.66   391.81   426.30   510.99
                              523.46   578.98   593.70   641.67   667.56
                              709.94   742.15   814.83   844.80   894.05
                              960.24  1042.73  1132.79  1144.26  1190.42
                             1231.39  1254.50  1259.39  1280.20  1297.68
                             1317.57  1354.06  1383.13  1387.10  1407.38
                             1432.10  1443.96  1448.94  1509.03  1517.10
                             1520.21  1551.29  1589.25  1600.42  1618.72
                             1628.70  1673.92  1692.60  1714.20  1749.42
                             1756.20  1779.15  1795.36  1825.60  1861.69
                             1876.09  1879.61  1897.58  1905.43  1921.25
                             1927.87  1949.21  1951.27  1959.59  1963.32
                             1967.36  1995.63  2008.59  2018.31  2026.88
                             2048.35  2060.21  2072.51  2175.21  2178.49
                             2181.96  2185.57  2187.59  2191.67  2196.88
                             2198.46  2202.38  2209.72  2227.45  3374.92
                             4311.98  4322.58  4328.31  4340.25  4346.21
                             4359.91  4373.53  4375.02  4382.93  4399.90
                             4402.34  4414.18  4415.40  4423.77  4427.01
                             4436.05  4454.95  4465.97  4470.05  4476.75
                             4477.01  4485.13  4490.56  5065.94

 Zero-point correction=                           0.366349 (Hartree/Particle)
 Thermal correction to Energy=                    0.382670
 Thermal correction to Enthalpy=                  0.383614
 Thermal correction to Gibbs Free Energy=         0.321406
 Sum of electronic and zero-point Energies=           -657.148713
 Sum of electronic and thermal Energies=              -657.132392
 Sum of electronic and thermal Enthalpies=            -657.131448
 Sum of electronic and thermal Free Energies=         -657.193656

                     E (Thermal)             CV                S
                      KCal/Mol        Cal/Mol-Kelvin    Cal/Mol-Kelvin
 Total                  240.129             63.036            130.928
 Electronic               0.000              0.000              0.000
 Translational            0.889              2.981             42.071
 Rotational               0.889              2.981             32.979
 Vibrational            238.352             57.074             55.878
 Vibration     1          0.593              1.984              5.971
 Vibration     2          0.594              1.982              5.394
 Vibration     3          0.595              1.980              5.088
 Vibration     4          0.598              1.968              4.137
 Vibration     5          0.603              1.952              3.533
 Vibration     6          0.609              1.933              3.114
 Vibration     7          0.619              1.901              2.650
 Vibration     8          0.620              1.895              2.589
 Vibration     9          0.633              1.854              2.228
 Vibration    10          0.646              1.815              1.984
 Vibration    11          0.654              1.788              1.843
 Vibration    12          0.662              1.766              1.746
 Vibration    13          0.675              1.724              1.581
 Vibration    14          0.690              1.681              1.438
 Vibration    15          0.731              1.565              1.143
 Vibration    16          0.737              1.547              1.106
 Vibration    17          0.768              1.465              0.954
 Vibration    18          0.776              1.443              0.917
 Vibration    19          0.805              1.370              0.808
 Vibration    20          0.822              1.330              0.755
 Vibration    21          0.849              1.265              0.675
 Vibration    22          0.871              1.215              0.620
 Vibration    23          0.922              1.104              0.511
 Vibration    24          0.944              1.059              0.472

                           ! Non-Optimized Parameters !
 Normal termination of Gaussian 16 at Fri Dec 11 01:06:04 2020.

 ----------------------------------------------------------------------
 # B3LYP/6-311++G(d,p) empiricaldispersion=gd3bj scf=xqc pop=npa geom=c
 heck
 ----------------------------------------------------------------------

 --------------------------------------
 CID_65924101_JID_6944_Energie_neutraal
 --------------------------------------
 Structure from the checkpoint file:  "JID_6944.chk"
 Charge =  0 Multiplicity = 1

 SCF Done:  E(RB3LYP) =  -657.694278025     A.U. after   15 cycles
 Normal termination of Gaussian 16 at Fri Dec 11 01:12:39 2020.

 ----------------------------------------------------------------------
 # B3LYP/6-311++G(d,p) empiricaldispersion=gd3bj scf=xqc pop=npa geom=c
 heck
 ----------------------------------------------------------------------

 ------------------------------------
 CID_65924101_JID_6944_Energie_kation
 ------------------------------------
 Structure from the checkpoint file:  "JID_6944.chk"
 Charge =  1 Multiplicity = 2

 SCF Done:  E(UB3LYP) =  -657.379852946     A.U. after   23 cycles
 Normal termination of Gaussian 16 at Fri Dec 11 01:26:49 2020.
 Gaussian 16:  ES64L-G16RevA.03 25-Dec-2016

 ----------------------------------------------------------------------
 # B3LYP/6-311++G(d,p) empiricaldispersion=gd3bj scf=xqc pop=npa geom=c
 heck
 ----------------------------------------------------------------------

 -----------------------------------
 CID_65924101_JID_6944_Energie_anion
 -----------------------------------
 Structure from the checkpoint file:  "JID_6944.chk"
 Charge = -1 Multiplicity = 2

                         Standard orientation:
 ---------------------------------------------------------------------
 Center     Atomic      Atomic             Coordinates (Angstroms)
 Number     Number       Type             X           Y           Z
 ---------------------------------------------------------------------
      1          6           0        4.610082    1.018473    1.027837
      2          6           0        3.620741    0.292760    0.113063
      3          6           0        3.732725   -1.233176    0.250869
      4          6           0        2.719888   -1.962511   -0.639408
      5          6           0        1.288104   -1.490993   -0.362269
      6          6           0        1.162725    0.030635   -0.519080
      7          6           0        2.178003    0.752097    0.379673
      8          6           0       -0.291306    0.479886   -0.232588
      9          6           0       -0.398012    1.958513   -0.274326
     10          7           0       -0.495403    3.111162   -0.382462
     11          7           0       -1.233673   -0.158649   -1.148464
     12          6           0       -2.614512   -0.338315   -0.689668
     13          6           0       -2.757882   -1.474045    0.353599
     14          6           0       -4.031176   -1.136940    1.175984
     15          6           0       -4.596069    0.166505    0.557974
     16          6           0       -3.367279    0.849875   -0.052939
     17          1           0        4.405735    0.789289    2.081495
     18          1           0        5.642023    0.715920    0.815140
     19          1           0        4.543590    2.105553    0.904066
     20          1           0        3.862863    0.552378   -0.929742
     21          1           0        4.754456   -1.555275    0.012007
     22          1           0        3.555872   -1.507217    1.302222
     23          1           0        2.792151   -3.046772   -0.490394
     24          1           0        2.963748   -1.775485   -1.695225
     25          1           0        1.011957   -1.761232    0.669088
     26          1           0        0.571584   -1.987643   -1.021890
     27          1           0        1.381721    0.291490   -1.565958
     28          1           0        1.929148    0.549666    1.433666
     29          1           0        2.104933    1.837546    0.244240
     30          1           0       -0.541866    0.163890    0.786892
     31          1           0       -1.216540    0.325492   -2.042024
     32          1           0       -3.172636   -0.633586   -1.587226
     33          1           0       -2.809311   -2.449132   -0.139429
     34          1           0       -1.873685   -1.503227    1.000111
     35          1           0       -3.769914   -0.969558    2.226743
     36          1           0       -4.765635   -1.948015    1.159797
     37          1           0       -5.119351    0.790381    1.289223
     38          1           0       -5.315054   -0.073570   -0.236059
     39          1           0       -2.761637    1.305789    0.740232
     40          1           0       -3.606811    1.639150   -0.772819
 ---------------------------------------------------------------------

 SCF Done:  E(UB3LYP) =  -657.681181412     A.U. after   33 cycles
 SCF Done:  E(UB3LYP) =  -657.681181412     a.u. after    1 cycles

 The electronic state is 2-A.
 Alpha  occ. eigenvalues --  -14.22371 -14.22175 -10.15343 -10.12008 -10.10845
 Alpha  occ. eigenvalues --  -10.09606 -10.08621 -10.07920 -10.07451 -10.07314
 Alpha  occ. eigenvalues --  -10.07293 -10.07283 -10.07246 -10.07235 -10.07042
 Alpha  occ. eigenvalues --  -10.06978  -0.84556  -0.81289  -0.75762  -0.73545
 Alpha  occ. eigenvalues --   -0.69122  -0.67021  -0.62443  -0.61829  -0.59189
 Alpha  occ. eigenvalues --   -0.58722  -0.52370  -0.50022  -0.48385  -0.47411
 Alpha  occ. eigenvalues --   -0.47196  -0.44830  -0.40777  -0.39648  -0.38707
 Alpha  occ. eigenvalues --   -0.37461  -0.36258  -0.35525  -0.33549  -0.33061
 Alpha  occ. eigenvalues --   -0.32823  -0.31554  -0.30744  -0.30051  -0.29073
 Alpha  occ. eigenvalues --   -0.28311  -0.28100  -0.26625  -0.25889  -0.25725
 Alpha  occ. eigenvalues --   -0.25281  -0.25159  -0.24750  -0.24551  -0.24287
 Alpha  occ. eigenvalues --   -0.23458  -0.23215  -0.22474  -0.21473  -0.21375
 Alpha  occ. eigenvalues --   -0.14745   0.04098
 Alpha virt. eigenvalues --    0.05541   0.06214   0.06983   0.07543   0.07656
 Alpha virt. eigenvalues --    0.08076   0.09197   0.09636   0.09699   0.10008
 Alpha virt. eigenvalues --    0.10387   0.10529   0.10681   0.11085   0.11474

  Beta  occ. eigenvalues --  -14.22359 -14.22161 -10.15337 -10.12008 -10.10828
  Beta  occ. eigenvalues --  -10.09601 -10.08615 -10.07913 -10.07436 -10.07295
  Beta  occ. eigenvalues --  -10.07274 -10.07263 -10.07236 -10.07216 -10.07033
  Beta  occ. eigenvalues --  -10.06960  -0.84533  -0.81269  -0.75743  -0.73517
  Beta  occ. eigenvalues --   -0.69099  -0.66995  -0.62410  -0.61791  -0.59152
  Beta  occ. eigenvalues --   -0.58679  -0.52332  -0.49982  -0.48333  -0.47359
  Beta  occ. eigenvalues --   -0.47154  -0.44790  -0.40747  -0.39605  -0.38670
  Beta  occ. eigenvalues --   -0.37418  -0.36228  -0.35503  -0.33523  -0.33029
  Beta  occ. eigenvalues --   -0.32795  -0.31524  -0.30712  -0.30024  -0.29048
  Beta  occ. eigenvalues --   -0.28286  -0.28071  -0.26599  -0.25863  -0.25692
  Beta  occ. eigenvalues --   -0.25247  -0.25136  -0.24717  -0.24516  -0.24257
  Beta  occ. eigenvalues --   -0.23424  -0.23180  -0.22439  -0.21447  -0.21352
  Beta  occ. eigenvalues --   -0.14724
  Beta virt. eigenvalues --    0.06046   0.06436   0.06722   0.07406   0.07949
  Beta virt. eigenvalues --    0.08092   0.08477   0.09602   0.09900   0.09996
  Beta virt. eigenvalues --    0.10202   0.10512   0.10690   0.11016   0.11291

 Mulliken charges and spin densities:
               1          2
     1  C    0.451704  -1.169242
     2  C   -1.047606   1.749005
     3  C    0.273727  -0.747174
     4  C   -1.119643   0.545550
     5  C    0.309472  -0.408765
     6  C   -0.645893   1.236544
     7  C    1.016725  -2.082361
     8  C    1.518854  -1.278358
     9  C   -0.251299  -0.730741
    10  N   -0.246179   0.027092
    11  N    0.096947   0.156862
    12  C   -1.266643   0.973585
    13  C    0.707674  -0.792762
    14  C    0.280761  -0.816354
    15  C    0.152348  -0.600579
    16  C    0.392344  -0.525638
    17  H    0.024375   0.109587
    18  H   -0.212799   0.365849
    19  H    0.053632   0.076120
    20  H   -0.075381   0.245985
    21  H   -0.271395   0.436594
    22  H   -0.089425   0.228489
    23  H   -0.321350   0.510393
    24  H    0.020403   0.117053
    25  H    0.134440  -0.012752
    26  H    0.058430   0.155867
    27  H   -0.014846   0.179482
    28  H    0.005275   0.162623
    29  H    0.141883   0.009837
    30  H    0.027252   0.151380
    31  H    0.010635   0.247177
    32  H   -0.649807   0.840042
    33  H   -0.169087   0.356122
    34  H   -0.105721   0.188126
    35  H   -0.085037   0.214756
    36  H   -0.086862   0.243780
    37  H    0.025313   0.131837
    38  H   -0.238475   0.386513
    39  H    0.121153   0.022691
    40  H    0.074102   0.095787
 Sum of Mulliken charges =  -1.00000   1.00000

 Dipole moment (field-independent basis, Debye):
    X=              1.1692    Y=              1.7358    Z=              1.4968  Tot=              2.5730
 Quadrupole moment (field-independent basis, Debye-Ang):
   XX=           -207.0921   YY=           -157.6151   ZZ=           -134.8007
   XY=              0.0792   XZ=             -7.2161   YZ=             -1.1960

 Summary of Natural Population Analysis:

                                       Natural Population
                Natural  -----------------------------------------------
    Atom  No    Charge         Core      Valence    Rydberg      Total
 -----------------------------------------------------------------------
      C    1   -0.28044      0.99965     2.27596    0.00483     3.28044
      C    2   -0.11028      0.99960     2.10135    0.00932     3.11028
      C    3   -0.18807      0.99961     2.17932    0.00914     3.18807
      C    4   -0.18725      0.99963     2.17925    0.00838     3.18725
      C    5   -0.19001      0.99960     2.18124    0.00916     3.19001
      C    6   -0.10130      0.99957     2.09098    0.01075     3.10130
      C    7   -0.19056      0.99959     2.18336    0.00761     3.19056
      C    8   -0.06091      0.99948     2.04956    0.01188     3.06091
      C    9    0.15412      0.99964     1.82737    0.01886     2.84588
      N   10   -0.18503      0.99979     2.67376    0.01148     3.68503
      N   11   -0.32704      0.99972     2.81503    0.01228     3.82704
      C   12   -0.00818      0.99957     1.99482    0.01379     3.00818
      C   13   -0.19379      0.99962     2.18543    0.00874     3.19379
      C   14   -0.19297      0.99964     2.18586    0.00746     3.19297
      C   15   -0.19061      0.99964     2.18330    0.00767     3.19061
      C   16   -0.20028      0.99961     2.19252    0.00815     3.20028
      H   17    0.09618      0.00000     0.40289    0.00093     0.40382
      H   18    0.10037      0.00000     0.39865    0.00098     0.39963
      H   19    0.09796      0.00000     0.40119    0.00085     0.40204
      H   20    0.09171      0.00000     0.40654    0.00175     0.40829
      H   21    0.10070      0.00000     0.39802    0.00128     0.39930
      H   22    0.09280      0.00000     0.40590    0.00130     0.40720
      H   23    0.10060      0.00000     0.39845    0.00095     0.39940
      H   24    0.09308      0.00000     0.40559    0.00134     0.40692
      H   25    0.09231      0.00000     0.40622    0.00147     0.40769
      H   26    0.11261      0.00000     0.38585    0.00153     0.38739
      H   27    0.09618      0.00000     0.40178    0.00203     0.40382
      H   28    0.09401      0.00000     0.40456    0.00143     0.40599
      H   29    0.10488      0.00000     0.39356    0.00156     0.39512
      H   30    0.11425      0.00000     0.38285    0.00291     0.38575
      H   31    0.17948      0.00000     0.31772    0.00280     0.32052
      H   32    0.09878      0.00000     0.39891    0.00232     0.40122
      H   33    0.10459      0.00000     0.39395    0.00146     0.39541
      H   34    0.09493      0.00000     0.40353    0.00154     0.40507
      H   35    0.09426      0.00000     0.40465    0.00109     0.40574
      H   36    0.10064      0.00000     0.39823    0.00113     0.39936
      H   37    0.09797      0.00000     0.40121    0.00082     0.40203
      H   38    0.09652      0.00000     0.40194    0.00154     0.40348
      H   39    0.09422      0.00000     0.40381    0.00197     0.40578
      H   40    0.10357      0.00000     0.39538    0.00105     0.39643
 =======================================================================
   * Total *   -0.00000     15.99398    44.81048    0.19554    61.00000

 Normal termination of Gaussian 16 at Fri Dec 11 01:46:38 2020.
