 Gaussian 16, Revision A.03,

 -----------------------------------------------------------
 # opt freq B3LYP/6-31G(d) empiricaldispersion=gd3bj scf=xqc
 -----------------------------------------------------------

 -----------------------------
 CID_53806074_JID_444_neutraal
 -----------------------------
 Symbolic Z-matrix:
 Charge =  0 Multiplicity = 1

 SCF Done:  E(RB3LYP) =  -496.949956921     A.U. after   13 cycles
 SCF Done:  E(RB3LYP) =  -496.969349244     A.U. after   11 cycles
 SCF Done:  E(RB3LYP) =  -496.972382427     A.U. after   11 cycles
 SCF Done:  E(RB3LYP) =  -496.973166838     A.U. after   10 cycles
 SCF Done:  E(RB3LYP) =  -496.973810015     A.U. after   10 cycles
 SCF Done:  E(RB3LYP) =  -496.974052481     A.U. after   11 cycles
 SCF Done:  E(RB3LYP) =  -496.974204073     A.U. after   10 cycles
 SCF Done:  E(RB3LYP) =  -496.974379753     A.U. after   10 cycles
 SCF Done:  E(RB3LYP) =  -496.974660979     A.U. after   11 cycles
 SCF Done:  E(RB3LYP) =  -496.974711684     A.U. after    9 cycles
 SCF Done:  E(RB3LYP) =  -496.974732523     A.U. after    9 cycles
 SCF Done:  E(RB3LYP) =  -496.974734596     A.U. after    8 cycles
 SCF Done:  E(RB3LYP) =  -496.974734809     A.U. after    9 cycles
 SCF Done:  E(RB3LYP) =  -496.974735897     A.U. after    8 cycles
 SCF Done:  E(RB3LYP) =  -496.974735999     A.U. after    6 cycles
 SCF Done:  E(RB3LYP) =  -496.974736065     A.U. after    7 cycles
 Optimization completed.
    -- Stationary point found.
 Normal termination of Gaussian 16 at Tue Dec  8 10:46:41 2020.

 --------------------------------------------------------------------
 #N Geom=AllCheck Guess=TCheck SCRF=Check GenChk RB3LYP/6-31G(d) Freq
 --------------------------------------------------------------------

 Structure from the checkpoint file:  "JID_444.chk"
 -----------------------------
 CID_53806074_JID_444_neutraal
 -----------------------------
 Charge =  0 Multiplicity = 1

 SCF Done:  E(RB3LYP) =  -496.974736065     A.U. after    1 cycles

  Exact polarizability:  92.504   1.414  85.383   3.036  -0.283  68.642
 Approx polarizability: 116.406  -0.845 116.314   6.446   1.876 104.564

                      1                      2                      3
                      A                      A                      A
 Frequencies --     45.3781                91.5959               101.1950
 Red. masses --      4.7501                 2.8804                 1.9694
 Frc consts  --      0.0058                 0.0142                 0.0119
 IR Inten    --      3.4580                 1.5150                 0.3932

                      4                      5                      6
                      A                      A                      A
 Frequencies --    145.4741               171.5390               184.3432
 Red. masses --      4.8581                 2.8634                 2.2146
 Frc consts  --      0.0606                 0.0496                 0.0443
 IR Inten    --      3.3953                 1.9454                 1.5100

                      7                      8                      9
                      A                      A                      A
 Frequencies --    241.6036               271.3676               291.3171
 Red. masses --      2.3452                 1.1717                 2.8034
 Frc consts  --      0.0807                 0.0508                 0.1402
 IR Inten    --     37.1948                98.3236                 6.0466

                     10                     11                     12
                      A                      A                      A
 Frequencies --    303.0523               345.6658               401.4925
 Red. masses --      1.5635                 3.3743                 2.5852
 Frc consts  --      0.0846                 0.2375                 0.2455
 IR Inten    --      1.8290                 1.5932                13.4497

                     13                     14                     15
                      A                      A                      A
 Frequencies --    456.6233               519.4629               551.6068
 Red. masses --      2.9536                 2.7967                 1.2598
 Frc consts  --      0.3628                 0.4446                 0.2259
 IR Inten    --      6.9767                27.9321               163.0842

                     16                     17                     18
                      A                      A                      A
 Frequencies --    610.6924               684.3733               755.1572
 Red. masses --      2.5658                 4.3903                 2.3627
 Frc consts  --      0.5638                 1.2115                 0.7938
 IR Inten    --     13.9383                 7.1743                41.3415

                     19                     20                     21
                      A                      A                      A
 Frequencies --    783.3662               865.0038               922.3712
 Red. masses --      1.2750                 1.7256                 1.8848
 Frc consts  --      0.4610                 0.7607                 0.9448
 IR Inten    --     14.3497                23.8301                56.4432

                     22                     23                     24
                      A                      A                      A
 Frequencies --    948.9512               993.7078              1038.9189
 Red. masses --      2.3349                 1.9700                 2.0924
 Frc consts  --      1.2388                 1.1461                 1.3306
 IR Inten    --     10.4509                 1.6250                15.1699

                     25                     26                     27
                      A                      A                      A
 Frequencies --   1065.7592              1076.0284              1081.0283
 Red. masses --      3.2572                 2.7211                 4.3083
 Frc consts  --      2.1798                 1.8563                 2.9664
 IR Inten    --     52.9597                54.7550                70.2108

                     28                     29                     30
                      A                      A                      A
 Frequencies --   1095.2512              1106.9270              1121.8170
 Red. masses --      2.5488                 2.5559                 2.2363
 Frc consts  --      1.8014                 1.8451                 1.6582
 IR Inten    --     13.1030                 1.0699                 9.6392

                     31                     32                     33
                      A                      A                      A
 Frequencies --   1139.9975              1202.6510              1229.4163
 Red. masses --      1.7429                 1.3611                 1.3335
 Frc consts  --      1.3345                 1.1599                 1.1875
 IR Inten    --     25.0329                34.6425                18.5086

                     34                     35                     36
                      A                      A                      A
 Frequencies --   1238.6907              1254.4192              1267.8582
 Red. masses --      2.0081                 1.4592                 1.3191
 Frc consts  --      1.8153                 1.3528                 1.2493
 IR Inten    --     19.8111                52.5582                21.0699

                     37                     38                     39
                      A                      A                      A
 Frequencies --   1285.2993              1321.5848              1384.0405
 Red. masses --      1.7389                 1.4447                 1.4368
 Frc consts  --      1.6925                 1.4867                 1.6216
 IR Inten    --     32.8585                 0.9553                21.4539

                     40                     41                     42
                      A                      A                      A
 Frequencies --   1390.3133              1396.9563              1400.0298
 Red. masses --      1.2784                 1.2561                 1.2031
 Frc consts  --      1.4559                 1.4443                 1.3894
 IR Inten    --     15.3707                27.5313                26.9335

                     43                     44                     45
                      A                      A                      A
 Frequencies --   1410.7843              1431.9646              1438.9249
 Red. masses --      1.2114                 1.2343                 1.2901
 Frc consts  --      1.4206                 1.4912                 1.5738
 IR Inten    --     28.3361                25.5865                 9.0152

                     46                     47                     48
                      A                      A                      A
 Frequencies --   1451.3151              1483.0390              1501.3999
 Red. masses --      1.3600                 1.5590                 1.0905
 Frc consts  --      1.6878                 2.0203                 1.4483
 IR Inten    --     25.0908                 1.4976                 4.8173

                     49                     50                     51
                      A                      A                      A
 Frequencies --   1521.9719              1529.4224              1534.0576
 Red. masses --      1.0489                 1.0912                 1.0642
 Frc consts  --      1.4316                 1.5039                 1.4755
 IR Inten    --      1.9111                 0.8517                 1.7737

                     52                     53                     54
                      A                      A                      A
 Frequencies --   1556.4787              2971.3208              2998.7034
 Red. masses --      1.0665                 1.0716                 1.0802
 Frc consts  --      1.5223                 5.5742                 5.7228
 IR Inten    --      4.1513                50.5990                55.4915

                     55                     56                     57
                      A                      A                      A
 Frequencies --   3006.5184              3011.3735              3051.3473
 Red. masses --      1.0714                 1.0834                 1.0620
 Frc consts  --      5.7058                 5.7883                 5.8256
 IR Inten    --    103.7632                30.2051                28.8176

                     58                     59                     60
                      A                      A                      A
 Frequencies --   3057.6061              3069.8087              3102.4140
 Red. masses --      1.0431                 1.0972                 1.0933
 Frc consts  --      5.7457                 6.0921                 6.2001
 IR Inten    --     20.4145                74.5472                50.7732

                     61                     62                     63
                      A                      A                      A
 Frequencies --   3104.0248              3116.4652              3158.9247
 Red. masses --      1.1008                 1.0987                 1.0996
 Frc consts  --      6.2490                 6.2871                 6.4648
 IR Inten    --      5.4893                45.2106                27.0869

                     64                     65                     66
                      A                      A                      A
 Frequencies --   3491.1214              3695.5879              3762.1304
 Red. masses --      1.0754                 1.0648                 1.0666
 Frc consts  --      7.7222                 8.5685                 8.8947
 IR Inten    --      1.0310                21.2260                21.0241

 - Thermochemistry -
 -------------------
 Temperature   298.150 Kelvin.  Pressure   1.00000 Atm.
 Atom     1 has atomic number  6 and mass  12.00000

 Molecular mass:   146.10553 amu.
 Principal axes and moments of inertia in atomic units:
                           1         2         3
     Eigenvalues --   874.856151932.860842433.62106
           X            0.99975   0.02049  -0.00853
           Y           -0.02070   0.99946  -0.02536
           Z            0.00801   0.02553   0.99964
 This molecule is an asymmetric top.
 Rotational symmetry number  1.
 Warning -- assumption of classical behavior for rotation
           may cause significant error
 Rotational temperatures (Kelvin)      0.09900     0.04481     0.03559
 Rotational constants (GHZ):           2.06290     0.93372     0.74159
 Zero-point vibrational energy     557693.3 (Joules/Mol)
                                  133.29189 (Kcal/Mol)
 Warning -- explicit consideration of  16 degrees of freedom as
           vibrations may cause significant error
 Vibrational temperatures:     65.29   131.79   145.60   209.30   246.81
          (Kelvin)            265.23   347.61   390.44   419.14   436.02
                              497.34   577.66   656.98   747.39   793.64
                              878.65   984.66  1086.50  1127.09  1244.55
                             1327.09  1365.33  1429.72  1494.77  1533.39
                             1548.16  1555.36  1575.82  1592.62  1614.04
                             1640.20  1730.35  1768.86  1782.20  1804.83
                             1824.17  1849.26  1901.47  1991.33  2000.35
                             2009.91  2014.33  2029.80  2060.28  2070.29
                             2088.12  2133.76  2160.18  2189.78  2200.50
                             2207.17  2239.43  4275.07  4314.47  4325.71
                             4332.69  4390.21  4399.21  4416.77  4463.68
                             4466.00  4483.90  4544.99  5022.95  5317.13
                             5412.87

 Zero-point correction=                           0.212414 (Hartree/Particle)
 Thermal correction to Energy=                    0.223581
 Thermal correction to Enthalpy=                  0.224525
 Thermal correction to Gibbs Free Energy=         0.175520
 Sum of electronic and zero-point Energies=           -496.762322
 Sum of electronic and thermal Energies=              -496.751155
 Sum of electronic and thermal Enthalpies=            -496.750211
 Sum of electronic and thermal Free Energies=         -496.799216

                     E (Thermal)             CV                S
                      KCal/Mol        Cal/Mol-Kelvin    Cal/Mol-Kelvin
 Total                  140.299             40.951            103.141
 Electronic               0.000              0.000              0.000
 Translational            0.889              2.981             40.848
 Rotational               0.889              2.981             29.799
 Vibrational            138.522             34.990             32.494
 Vibration     1          0.595              1.979              5.009
 Vibration     2          0.602              1.955              3.626
 Vibration     3          0.604              1.948              3.431
 Vibration     4          0.617              1.908              2.731
 Vibration     5          0.626              1.878              2.419
 Vibration     6          0.631              1.861              2.284
 Vibration     7          0.658              1.777              1.791
 Vibration     8          0.675              1.726              1.587
 Vibration     9          0.687              1.690              1.466
 Vibration    10          0.694              1.668              1.400
 Vibration    11          0.724              1.584              1.186
 Vibration    12          0.767              1.467              0.957
 Vibration    13          0.815              1.346              0.776
 Vibration    14          0.874              1.207              0.611
 Vibration    15          0.907              1.136              0.541
 Vibration    16          0.970              1.009              0.432

                           ! Non-Optimized Parameters !
 Normal termination of Gaussian 16 at Tue Dec  8 10:52:53 2020.

 ----------------------------------------------------------------------
 # B3LYP/6-311++G(d,p) empiricaldispersion=gd3bj scf=xqc pop=npa geom=c
 heck
 ----------------------------------------------------------------------

 -------------------------------------
 CID_53806074_JID_444_Energie_neutraal
 -------------------------------------
 Structure from the checkpoint file:  "JID_444.chk"
 Charge =  0 Multiplicity = 1

 SCF Done:  E(RB3LYP) =  -497.141249062     A.U. after   13 cycles
 Normal termination of Gaussian 16 at Tue Dec  8 10:57:53 2020.

 ----------------------------------------------------------------------
 # B3LYP/6-311++G(d,p) empiricaldispersion=gd3bj scf=xqc pop=npa geom=c
 heck
 ----------------------------------------------------------------------

 -----------------------------------
 CID_53806074_JID_444_Energie_kation
 -----------------------------------
 Structure from the checkpoint file:  "JID_444.chk"
 Charge =  1 Multiplicity = 2

 SCF Done:  E(UB3LYP) =  -496.851925191     A.U. after   20 cycles
 Normal termination of Gaussian 16 at Tue Dec  8 11:02:26 2020.
 Gaussian 16:  ES64L-G16RevA.03 25-Dec-2016

 ----------------------------------------------------------------------
 # B3LYP/6-311++G(d,p) empiricaldispersion=gd3bj scf=xqc pop=npa geom=c
 heck
 ----------------------------------------------------------------------

 ----------------------------------
 CID_53806074_JID_444_Energie_anion
 ----------------------------------
 Structure from the checkpoint file:  "JID_444.chk"
 Charge = -1 Multiplicity = 2

                         Standard orientation:
 ---------------------------------------------------------------------
 Center     Atomic      Atomic             Coordinates (Angstroms)
 Number     Number       Type             X           Y           Z
 ---------------------------------------------------------------------
      1          6           0        0.982988    2.047600   -0.851790
      2          6           0        0.245140    1.549867    0.401263
      3          7           0       -0.213832    0.162859    0.441527
      4          6           0       -1.099005   -0.407749   -0.585917
      5          7           0       -0.268272   -1.636859   -0.651304
      6          6           0        0.647067   -1.035399    0.353018
      7          6           0        2.053390   -0.925495   -0.214377
      8          8           0        2.848897   -0.174178    0.696788
      9          6           0       -2.528438   -0.573120   -0.062320
     10          8           0       -2.985405    0.642872    0.502107
     11          1           0        2.001395    1.656878   -0.894706
     12          1           0        1.046429    3.141905   -0.825955
     13          1           0        0.457211    1.770455   -1.772114
     14          1           0        0.879316    1.704215    1.279886
     15          1           0       -0.651743    2.165681    0.539070
     16          1           0       -1.110038    0.142558   -1.538850
     17          1           0       -0.764195   -2.447468   -0.284146
     18          1           0        0.709241   -1.566489    1.315445
     19          1           0        2.434377   -1.952136   -0.335854
     20          1           0        2.010746   -0.466220   -1.209832
     21          1           0        3.749624   -0.130290    0.343764
     22          1           0       -3.222609   -0.835970   -0.867368
     23          1           0       -2.538634   -1.387053    0.683664
     24          1           0       -2.341183    0.838149    1.205008
 ---------------------------------------------------------------------

 SCF Done:  E(UB3LYP) =  -497.125714963     A.U. after   32 cycles

 The electronic state is 2-A.
 Alpha  occ. eigenvalues --  -19.02764 -19.00963 -14.20326 -14.20201 -10.12597
 Alpha  occ. eigenvalues --  -10.12250 -10.11694 -10.10048 -10.09189 -10.05201
 Alpha  occ. eigenvalues --   -0.93287  -0.91213  -0.88215  -0.73933  -0.64806
 Alpha  occ. eigenvalues --   -0.63251  -0.59280  -0.53256  -0.51470  -0.43607
 Alpha  occ. eigenvalues --   -0.43281  -0.41181  -0.40285  -0.38147  -0.36016
 Alpha  occ. eigenvalues --   -0.34542  -0.32655  -0.30939  -0.30195  -0.28988
 Alpha  occ. eigenvalues --   -0.28826  -0.27930  -0.25567  -0.24536  -0.23073
 Alpha  occ. eigenvalues --   -0.21578  -0.18716  -0.16779  -0.16358  -0.10939
 Alpha  occ. eigenvalues --    0.04874
 Alpha virt. eigenvalues --    0.06629   0.07701   0.08176   0.09193   0.09866
 Alpha virt. eigenvalues --    0.10486   0.11054   0.11788   0.12605   0.13252
 Alpha virt. eigenvalues --    0.14022   0.14842   0.15332   0.15785   0.16770

  Beta  occ. eigenvalues --  -19.02755 -19.00904 -14.20324 -14.20182 -10.12592
  Beta  occ. eigenvalues --  -10.12237 -10.11669 -10.10017 -10.09178 -10.05176
  Beta  occ. eigenvalues --   -0.93267  -0.91099  -0.88183  -0.73910  -0.64754
  Beta  occ. eigenvalues --   -0.63215  -0.59202  -0.53204  -0.51404  -0.43559
  Beta  occ. eigenvalues --   -0.43234  -0.41073  -0.40226  -0.38099  -0.35968
  Beta  occ. eigenvalues --   -0.34503  -0.32626  -0.30901  -0.30162  -0.28941
  Beta  occ. eigenvalues --   -0.28785  -0.27904  -0.25530  -0.24504  -0.23013
  Beta  occ. eigenvalues --   -0.21549  -0.18690  -0.16720  -0.16339  -0.10919
  Beta virt. eigenvalues --    0.07255   0.07838   0.08374   0.08817   0.09795
  Beta virt. eigenvalues --    0.10515   0.10853   0.11461   0.12003   0.13213
  Beta virt. eigenvalues --    0.13862   0.14364   0.15021   0.15692   0.15975

 Mulliken charges and spin densities:
               1          2
     1  C    0.449589  -0.854195
     2  C   -0.391497   0.203379
     3  N   -0.042255  -0.047676
     4  C   -1.326128   1.239015
     5  N   -0.021981  -0.040917
     6  C   -1.457276   1.031238
     7  C    2.935744  -3.307718
     8  O   -0.374016   0.121970
     9  C    1.584324  -1.928143
    10  O   -0.291729   0.039480
    11  H   -0.069722   0.228279
    12  H   -0.284247   0.423146
    13  H   -0.004768   0.113181
    14  H    0.107500   0.081371
    15  H    0.058945   0.027965
    16  H    0.003028   0.185478
    17  H    0.058647   0.174490
    18  H   -0.442715   0.644015
    19  H   -0.345892   0.512456
    20  H   -0.285500   0.466201
    21  H   -0.384670   0.660398
    22  H   -0.119409   0.290645
    23  H   -0.478394   0.612468
    24  H    0.122419   0.123475
 Sum of Mulliken charges =  -1.00000   1.00000

 Dipole moment (field-independent basis, Debye):
    X=             -5.1219    Y=              1.8928    Z=             -0.4556  Tot=              5.4794
 Quadrupole moment (field-independent basis, Debye-Ang):
   XX=           -135.8983   YY=            -99.0391   ZZ=            -89.4770
   XY=              0.9220   XZ=              1.9128   YZ=              3.3368

 Summary of Natural Population Analysis:

                                       Natural Population
                Natural  -----------------------------------------------
    Atom  No    Charge         Core      Valence    Rydberg      Total
 -----------------------------------------------------------------------
      C    1   -0.29825      0.99966     2.29364    0.00494     3.29825
      C    2   -0.08625      0.99962     2.07615    0.01049     3.08625
      N    3   -0.29667      0.99970     2.78200    0.01497     3.79667
      C    4    0.08429      0.99963     1.90097    0.01511     2.91571
      N    5   -0.34359      0.99974     2.83195    0.01190     3.84359
      C    6    0.09469      0.99962     1.88874    0.01694     2.90531
      C    7   -0.02080      0.99956     2.00730    0.01394     3.02080
      O    8   -0.37479      0.99989     3.36757    0.00732     4.37479
      C    9   -0.01578      0.99957     2.00249    0.01372     3.01578
      O   10   -0.36879      0.99990     3.36186    0.00703     4.36879
      H   11    0.10556      0.00000     0.39272    0.00171     0.39444
      H   12    0.09724      0.00000     0.40163    0.00113     0.40276
      H   13    0.09421      0.00000     0.40465    0.00113     0.40579
      H   14    0.10246      0.00000     0.39632    0.00122     0.39754
      H   15    0.08883      0.00000     0.40980    0.00137     0.41117
      H   16    0.08178      0.00000     0.41650    0.00172     0.41822
      H   17    0.17522      0.00000     0.32230    0.00248     0.32478
      H   18    0.08552      0.00000     0.41270    0.00177     0.41448
      H   19    0.08408      0.00000     0.41318    0.00274     0.41592
      H   20    0.08000      0.00000     0.41748    0.00252     0.42000
      H   21    0.23938      0.00000     0.23920    0.02142     0.26062
      H   22    0.08504      0.00000     0.41353    0.00142     0.41496
      H   23    0.07508      0.00000     0.42241    0.00251     0.42492
      H   24    0.23153      0.00000     0.26493    0.00354     0.26847
 =======================================================================
   * Total *   -0.00000      9.99689    29.84005    0.16306    40.00000

 Normal termination of Gaussian 16 at Tue Dec  8 11:09:15 2020.
