 Gaussian 16, Revision A.03,

 -----------------------------------------------------------
 # opt freq B3LYP/6-31G(d) empiricaldispersion=gd3bj scf=xqc
 -----------------------------------------------------------

 ------------------------------
 CID_146933596_JID_894_neutraal
 ------------------------------
 Symbolic Z-matrix:
 Charge =  0 Multiplicity = 1

 SCF Done:  E(RB3LYP) =  -402.874898556     A.U. after   14 cycles
 SCF Done:  E(RB3LYP) =  -402.916684178     A.U. after   13 cycles
 SCF Done:  E(RB3LYP) =  -402.959535148     A.U. after   14 cycles
 SCF Done:  E(RB3LYP) =  -402.971054815     A.U. after   14 cycles
 SCF Done:  E(RB3LYP) =  -402.972667475     A.U. after   13 cycles
 SCF Done:  E(RB3LYP) =  -402.973306497     A.U. after   13 cycles
 SCF Done:  E(RB3LYP) =  -402.973543998     A.U. after   12 cycles
 SCF Done:  E(RB3LYP) =  -402.973639827     A.U. after   12 cycles
 SCF Done:  E(RB3LYP) =  -402.973739320     A.U. after   11 cycles
 SCF Done:  E(RB3LYP) =  -402.973857060     A.U. after   11 cycles
 SCF Done:  E(RB3LYP) =  -402.974925440     A.U. after   11 cycles
 SCF Done:  E(RB3LYP) =  -402.974737588     A.U. after   12 cycles
 SCF Done:  E(RB3LYP) =  -402.974930088     A.U. after   12 cycles
 SCF Done:  E(RB3LYP) =  -402.974930697     A.U. after    8 cycles
 SCF Done:  E(RB3LYP) =  -402.974930407     A.U. after    8 cycles
 SCF Done:  E(RB3LYP) =  -402.974930747     A.U. after    8 cycles
 Optimization completed.
    -- Stationary point found.
 Normal termination of Gaussian 16 at Tue Dec  8 13:37:58 2020.

 --------------------------------------------------------------------
 #N Geom=AllCheck Guess=TCheck SCRF=Check GenChk RB3LYP/6-31G(d) Freq
 --------------------------------------------------------------------

 Structure from the checkpoint file:  "JID_894.chk"
 ------------------------------
 CID_146933596_JID_894_neutraal
 ------------------------------
 Charge =  0 Multiplicity = 1

 SCF Done:  E(RB3LYP) =  -402.974930747     A.U. after    1 cycles

  Exact polarizability: 164.468  -6.056  96.463   0.419  -6.035  51.703
 Approx polarizability: 266.643 -14.042 173.565   2.151 -14.505  81.657

                      1                      2                      3
                      A                      A                      A
 Frequencies --    110.4057               168.5563               199.4900
 Red. masses --      3.8294                 1.6633                 1.6332
 Frc consts  --      0.0275                 0.0278                 0.0383
 IR Inten    --      2.5350                 8.1964                10.2747

                      4                      5                      6
                      A                      A                      A
 Frequencies --    214.7455               263.5156               345.3670
 Red. masses --      2.8628                 2.6194                 2.5149
 Frc consts  --      0.0778                 0.1072                 0.1767
 IR Inten    --      1.4897                 7.4415                 9.0858

                      7                      8                      9
                      A                      A                      A
 Frequencies --    389.5776               408.4433               488.2579
 Red. masses --      3.4666                 3.2711                 5.0120
 Frc consts  --      0.3100                 0.3215                 0.7040
 IR Inten    --      7.9898                 0.7610                20.9532

                     10                     11                     12
                      A                      A                      A
 Frequencies --    497.2192               550.2241               583.1997
 Red. masses --      4.7677                 4.1507                 4.7241
 Frc consts  --      0.6945                 0.7404                 0.9467
 IR Inten    --      4.2058                22.1980                 9.3109

                     13                     14                     15
                      A                      A                      A
 Frequencies --    602.9400               651.1928               748.1860
 Red. masses --      2.5348                 3.6226                 1.6152
 Frc consts  --      0.5429                 0.9051                 0.5327
 IR Inten    --      4.1333                15.7500                 2.7871

                     16                     17                     18
                      A                      A                      A
 Frequencies --    776.0151               806.5258               822.3481
 Red. masses --      4.3333                 1.7201                 3.5182
 Frc consts  --      1.5375                 0.6592                 1.4018
 IR Inten    --      6.5508                 8.6007                12.1164

                     19                     20                     21
                      A                      A                      A
 Frequencies --    825.5419               853.7384               882.0297
 Red. masses --      1.6497                 1.3344                 3.1079
 Frc consts  --      0.6624                 0.5730                 1.4246
 IR Inten    --     14.0282                53.3455                 9.2109

                     22                     23                     24
                      A                      A                      A
 Frequencies --    941.9591               970.5383               996.2235
 Red. masses --      2.8313                 1.4103                 2.2548
 Frc consts  --      1.4801                 0.7827                 1.3185
 IR Inten    --      4.2408                23.9208                11.5172

                     25                     26                     27
                      A                      A                      A
 Frequencies --   1011.7816              1061.1838              1088.0963
 Red. masses --      2.0148                 1.4239                 2.0992
 Frc consts  --      1.2152                 0.9447                 1.4643
 IR Inten    --      1.9196                29.7411                10.0497

                     28                     29                     30
                      A                      A                      A
 Frequencies --   1116.7377              1137.8251              1180.7988
 Red. masses --      1.8517                 1.6469                 1.3154
 Frc consts  --      1.3606                 1.2562                 1.0806
 IR Inten    --      0.4994                 6.3045                26.3285

                     31                     32                     33
                      A                      A                      A
 Frequencies --   1236.0231              1302.4766              1352.1766
 Red. masses --      2.1052                 1.5501                 1.7749
 Frc consts  --      1.8949                 1.5493                 1.9120
 IR Inten    --     19.0151                 0.7502                 7.3583

                     34                     35                     36
                      A                      A                      A
 Frequencies --   1400.5525              1434.6460              1443.0783
 Red. masses --      2.2617                 1.5900                 1.3103
 Frc consts  --      2.6139                 1.9281                 1.6077
 IR Inten    --     21.9665                 3.5671                 2.4278

                     37                     38                     39
                      A                      A                      A
 Frequencies --   1458.5611              1515.5106              1528.9569
 Red. masses --      1.3072                 1.0471                 1.0550
 Frc consts  --      1.6385                 1.4169                 1.4531
 IR Inten    --      2.3964                 3.9439                 8.9543

                     40                     41                     42
                      A                      A                      A
 Frequencies --   1625.3073              1700.3218              1883.2489
 Red. masses --      4.8794                 9.0447                10.4165
 Frc consts  --      7.5943                15.4066                21.7664
 IR Inten    --      0.0775                 5.1846                51.2523

                     43                     44                     45
                      A                      A                      A
 Frequencies --   3042.1039              3104.9745              3119.5799
 Red. masses --      1.0365                 1.1011                 1.1023
 Frc consts  --      5.6516                 6.2547                 6.3204
 IR Inten    --     34.5647                17.9663                17.5358

                     46                     47                     48
                      A                      A                      A
 Frequencies --   3139.5943              3177.4398              3184.3495
 Red. masses --      1.0878                 1.0568                 1.0908
 Frc consts  --      6.3177                 6.2863                 6.5170
 IR Inten    --     34.1209                 4.0458                17.7205

                     49                     50                     51
                      A                      A                      A
 Frequencies --   3193.8509              3264.3044              3454.3786
 Red. masses --      1.0918                 1.1179                 1.0763
 Frc consts  --      6.5619                 7.0186                 7.5668
 IR Inten    --     18.0244                 6.0125                 0.2917

 - Thermochemistry -
 -------------------
 Temperature   298.150 Kelvin.  Pressure   1.00000 Atm.
 Atom     1 has atomic number  6 and mass  12.00000

 Molecular mass:   131.07350 amu.
 Principal axes and moments of inertia in atomic units:
                           1         2         3
     Eigenvalues --   541.218351823.393122157.29455
           X            0.99995   0.00648   0.00706
           Y           -0.00643   0.99996  -0.00692
           Z           -0.00710   0.00687   0.99995
 This molecule is an asymmetric top.
 Rotational symmetry number  1.
 Warning -- assumption of classical behavior for rotation
           may cause significant error
 Rotational temperatures (Kelvin)      0.16004     0.04750     0.04015
 Rotational constants (GHZ):           3.33459     0.98977     0.83658
 Zero-point vibrational energy     402268.8 (Joules/Mol)
                                   96.14456 (Kcal/Mol)
 Warning -- explicit consideration of  13 degrees of freedom as
           vibrations may cause significant error
 Vibrational temperatures:    158.85   242.51   287.02   308.97   379.14
          (Kelvin)            496.91   560.52   587.66   702.49   715.39
                              791.65   839.09   867.50   936.92  1076.47
                             1116.51  1160.41  1183.18  1187.77  1228.34
                             1269.04  1355.27  1396.39  1433.34  1455.73
                             1526.81  1565.53  1606.74  1637.08  1698.91
                             1778.36  1873.97  1945.48  2015.08  2064.14
                             2076.27  2098.54  2180.48  2199.83  2338.45
                             2446.38  2709.58  4376.91  4467.37  4488.38
                             4517.18  4571.63  4581.57  4595.24  4696.61
                             4970.08

 Zero-point correction=                           0.153216 (Hartree/Particle)
 Thermal correction to Energy=                    0.161916
 Thermal correction to Enthalpy=                  0.162860
 Thermal correction to Gibbs Free Energy=         0.120223
 Sum of electronic and zero-point Energies=           -402.821715
 Sum of electronic and thermal Energies=              -402.813015
 Sum of electronic and thermal Enthalpies=            -402.812070
 Sum of electronic and thermal Free Energies=         -402.854707

                     E (Thermal)             CV                S
                      KCal/Mol        Cal/Mol-Kelvin    Cal/Mol-Kelvin
 Total                  101.604             34.802             89.737
 Electronic               0.000              0.000              0.000
 Translational            0.889              2.981             40.525
 Rotational               0.889              2.981             29.144
 Vibrational             99.826             28.840             20.068
 Vibration     1          0.606              1.941              3.262
 Vibration     2          0.625              1.881              2.452
 Vibration     3          0.638              1.841              2.138
 Vibration     4          0.645              1.819              2.003
 Vibration     5          0.670              1.740              1.638
 Vibration     6          0.724              1.585              1.187
 Vibration     7          0.758              1.492              1.002
 Vibration     8          0.773              1.452              0.932
 Vibration     9          0.844              1.276              0.688
 Vibration    10          0.853              1.256              0.665
 Vibration    11          0.906              1.139              0.544
 Vibration    12          0.940              1.068              0.479
 Vibration    13          0.961              1.026              0.445

 Optimization completed.
    -- Stationary point found.
 Normal termination of Gaussian 16 at Tue Dec  8 13:42:43 2020.

 ----------------------------------------------------------------------
 # B3LYP/6-311++G(d,p) empiricaldispersion=gd3bj scf=xqc pop=npa geom=c
 heck
 ----------------------------------------------------------------------

 --------------------------------------
 CID_146933596_JID_894_Energie_neutraal
 --------------------------------------
 Structure from the checkpoint file:  "JID_894.chk"
 Charge =  0 Multiplicity = 1

 SCF Done:  E(RB3LYP) =  -403.081723067     A.U. after   15 cycles
 Normal termination of Gaussian 16 at Tue Dec  8 13:46:44 2020.

 ----------------------------------------------------------------------
 # B3LYP/6-311++G(d,p) empiricaldispersion=gd3bj scf=xqc pop=npa geom=c
 heck
 ----------------------------------------------------------------------

 ------------------------------------
 CID_146933596_JID_894_Energie_kation
 ------------------------------------
 Structure from the checkpoint file:  "JID_894.chk"
 Charge =  1 Multiplicity = 2

 SCF Done:  E(UB3LYP) =  -402.782965027     A.U. after   26 cycles
 Normal termination of Gaussian 16 at Tue Dec  8 13:53:38 2020.
 Gaussian 16:  ES64L-G16RevA.03 25-Dec-2016

 ----------------------------------------------------------------------
 # B3LYP/6-311++G(d,p) empiricaldispersion=gd3bj scf=xqc pop=npa geom=c
 heck
 ----------------------------------------------------------------------

 -----------------------------------
 CID_146933596_JID_894_Energie_anion
 -----------------------------------
 Structure from the checkpoint file:  "JID_894.chk"
 Charge = -1 Multiplicity = 2

                         Standard orientation:
 ---------------------------------------------------------------------
 Center     Atomic      Atomic             Coordinates (Angstroms)
 Number     Number       Type             X           Y           Z
 ---------------------------------------------------------------------
      1          6           0       -2.739333   -0.950217   -0.476976
      2          6           0       -1.436336   -0.376727    0.041294
      3          6           0       -0.264833   -1.286318    0.044221
      4          6           0        0.929237   -0.677390    0.142879
      5          6           0        2.280147   -0.206794   -0.004215
      6          6           0        3.594426   -0.437252    0.012568
      7          6           0        1.174758    0.708651   -0.077909
      8          6           0        0.240384    1.612350   -0.425286
      9          6           0       -1.145421    1.164507   -0.196433
     10          7           0       -1.495748    0.615494    1.122243
     11          1           0       -2.602890   -1.427351   -1.453396
     12          1           0       -3.499034   -0.168541   -0.589380
     13          1           0       -3.132537   -1.704745    0.216135
     14          1           0       -0.413674   -2.350088   -0.123096
     15          1           0        4.304519    0.373202   -0.114141
     16          1           0        3.983136   -1.437663    0.171323
     17          1           0        0.432563    2.560275   -0.920286
     18          1           0       -1.925918    1.710834   -0.725374
     19          1           0       -2.474098    0.830762    1.321659
 ---------------------------------------------------------------------

 SCF Done:  E(UB3LYP) =  -403.095815776     A.U. after   24 cycles

 The electronic state is 2-A.
 Alpha  occ. eigenvalues --  -14.15857 -10.06541 -10.05677 -10.04609 -10.03648
 Alpha  occ. eigenvalues --  -10.00614 -10.00556  -9.99770  -9.99663  -9.98821
 Alpha  occ. eigenvalues --   -0.81415  -0.72269  -0.61740  -0.59233  -0.56782
 Alpha  occ. eigenvalues --   -0.53933  -0.45992  -0.43226  -0.37993  -0.33717
 Alpha  occ. eigenvalues --   -0.32303  -0.31444  -0.29527  -0.28945  -0.28223
 Alpha  occ. eigenvalues --   -0.26335  -0.24338  -0.22808  -0.21003  -0.17364
 Alpha  occ. eigenvalues --   -0.15699  -0.12093  -0.10576  -0.07203  -0.07006
 Alpha  occ. eigenvalues --    0.04509
 Alpha virt. eigenvalues --    0.08360   0.10269   0.10956   0.11371   0.12147
 Alpha virt. eigenvalues --    0.12254   0.13359   0.14020   0.14898   0.16452
 Alpha virt. eigenvalues --    0.17667   0.18151   0.18886   0.19636   0.19750

  Beta  occ. eigenvalues --  -14.15737 -10.06517 -10.05674 -10.04605 -10.03608
  Beta  occ. eigenvalues --  -10.00623 -10.00558  -9.99385  -9.99274  -9.98461
  Beta  occ. eigenvalues --   -0.81078  -0.71768  -0.61503  -0.58640  -0.56276
  Beta  occ. eigenvalues --   -0.53229  -0.45668  -0.43088  -0.37731  -0.33477
  Beta  occ. eigenvalues --   -0.32059  -0.31165  -0.29319  -0.28733  -0.28008
  Beta  occ. eigenvalues --   -0.26208  -0.24152  -0.21963  -0.20670  -0.16853
  Beta  occ. eigenvalues --   -0.15484  -0.11898  -0.10063  -0.05369  -0.05067
  Beta virt. eigenvalues --    0.08224   0.09948   0.10219   0.10917   0.11657
  Beta virt. eigenvalues --    0.12162   0.12223   0.13313   0.13959   0.14772
  Beta virt. eigenvalues --    0.16447   0.17868   0.18227   0.18980   0.19776

 Mulliken charges and spin densities:
               1          2
     1  C   -0.235555  -0.169524
     2  C    0.077335   0.095522
     3  C   -0.472223   0.381605
     4  C    0.646027  -0.046399
     5  C   -0.295244  -0.012770
     6  C   -0.845182   0.471989
     7  C    0.600606  -0.151763
     8  C   -0.811138   0.376289
     9  C   -0.499061  -0.034210
    10  N   -0.001245  -0.008657
    11  H    0.143458  -0.003166
    12  H    0.096803   0.006977
    13  H    0.049093   0.076501
    14  H    0.086647  -0.015325
    15  H    0.072017  -0.017827
    16  H    0.075263  -0.017866
    17  H    0.090604  -0.019598
    18  H    0.100821   0.001043
    19  H    0.120973   0.087179
 Sum of Mulliken charges =  -1.00000   1.00000

 Dipole moment (field-independent basis, Debye):
    X=             -5.2370    Y=              0.1698    Z=             -1.6982  Tot=              5.5081
 Quadrupole moment (field-independent basis, Debye-Ang):
   XX=            -86.9832   YY=            -71.6293   ZZ=            -74.6715
   XY=              0.3000   XZ=              2.2940   YZ=             -1.0734

 Summary of Natural Population Analysis:

                                       Natural Population
                Natural  -----------------------------------------------
    Atom  No    Charge         Core      Valence    Rydberg      Total
 -----------------------------------------------------------------------
      C    1   -0.28704      0.99962     2.28154    0.00588     3.28704
      C    2    0.04309      0.99958     1.94401    0.01333     2.95691
      C    3   -0.03919      0.99944     2.02936    0.01040     3.03919
      C    4   -0.02053      0.99941     2.01121    0.00991     3.02053
      C    5   -0.01105      0.99950     2.00028    0.01127     3.01105
      C    6   -0.15475      0.99953     2.14684    0.00839     3.15475
      C    7   -0.02155      0.99940     2.01186    0.01029     3.02155
      C    8   -0.04398      0.99948     2.03418    0.01032     3.04398
      C    9   -0.02388      0.99957     2.01141    0.01290     3.02388
      N   10   -0.30976      0.99975     2.79785    0.01217     3.80976
      H   11    0.09977      0.00000     0.39939    0.00084     0.40023
      H   12    0.09225      0.00000     0.40690    0.00085     0.40775
      H   13    0.09449      0.00000     0.40375    0.00176     0.40551
      H   14    0.08627      0.00000     0.41274    0.00099     0.41373
      H   15    0.08437      0.00000     0.41465    0.00098     0.41563
      H   16    0.08447      0.00000     0.41456    0.00097     0.41553
      H   17    0.08624      0.00000     0.41277    0.00099     0.41376
      H   18    0.08109      0.00000     0.41718    0.00173     0.41891
      H   19    0.15970      0.00000     0.33782    0.00248     0.34030
 =======================================================================
   * Total *    0.00000      9.99527    24.88828    0.11645    35.00000

 Normal termination of Gaussian 16 at Tue Dec  8 14:00:48 2020.
