 Gaussian 16, Revision A.03,

 -----------------------------------------------------------
 # opt freq B3LYP/6-31G(d) empiricaldispersion=gd3bj scf=xqc
 -----------------------------------------------------------

 -------------------------------
 CID_147431126_JID_3695_neutraal
 -------------------------------
 Symbolic Z-matrix:
 Charge =  0 Multiplicity = 1

 SCF Done:  E(RB3LYP) =  -903.285401991     A.U. after   18 cycles
 SCF Done:  E(RB3LYP) =  -903.312099271     A.U. after   14 cycles
 SCF Done:  E(RB3LYP) =  -903.327634148     A.U. after   16 cycles
 SCF Done:  E(RB3LYP) =  -903.338644400     A.U. after   14 cycles
 SCF Done:  E(RB3LYP) =  -903.351288840     A.U. after   14 cycles
 SCF Done:  E(RB3LYP) =  -903.355291133     A.U. after   13 cycles
 SCF Done:  E(RB3LYP) =  -903.356549155     A.U. after   12 cycles
 SCF Done:  E(RB3LYP) =  -903.357223251     A.U. after   15 cycles
 SCF Done:  E(RB3LYP) =  -903.358733753     A.U. after   13 cycles
 SCF Done:  E(RB3LYP) =  -903.359659741     A.U. after   12 cycles
 SCF Done:  E(RB3LYP) =  -903.361899900     A.U. after   11 cycles
 SCF Done:  E(RB3LYP) =  -903.361909895     A.U. after   11 cycles
 SCF Done:  E(RB3LYP) =  -903.361913017     A.U. after   10 cycles
 SCF Done:  E(RB3LYP) =  -903.361913543     A.U. after    8 cycles
 SCF Done:  E(RB3LYP) =  -903.361913626     A.U. after    7 cycles
 Optimization completed.
    -- Stationary point found.
 Normal termination of Gaussian 16 at Sun Dec 13 12:28:51 2020.

 --------------------------------------------------------------------
 #N Geom=AllCheck Guess=TCheck SCRF=Check GenChk RB3LYP/6-31G(d) Freq
 --------------------------------------------------------------------

 Structure from the checkpoint file:  "JID_3695.chk"
 -------------------------------
 CID_147431126_JID_3695_neutraal
 -------------------------------
 Charge =  0 Multiplicity = 1

 SCF Done:  E(RB3LYP) =  -903.361913626     A.U. after    1 cycles

  Exact polarizability: 179.904   5.302 127.795   7.442   2.929 107.797
 Approx polarizability: 227.896   9.860 215.892  17.922  12.912 181.153

                      1                      2                      3
                      A                      A                      A
 Frequencies --     42.4911                52.7923                87.5253
 Red. masses --      4.0664                 3.5371                 3.4492
 Frc consts  --      0.0043                 0.0058                 0.0156
 IR Inten    --      0.0631                 0.0518                 0.0148

                      4                      5                      6
                      A                      A                      A
 Frequencies --    130.6770               150.8634               201.3094
 Red. masses --      3.7445                 3.2077                 3.3513
 Frc consts  --      0.0377                 0.0430                 0.0800
 IR Inten    --      0.9954                 0.1704                 3.9486

                      7                      8                      9
                      A                      A                      A
 Frequencies --    221.2906               240.1329               245.2101
 Red. masses --      1.5614                 1.6630                 1.8222
 Frc consts  --      0.0450                 0.0565                 0.0646
 IR Inten    --      2.1609                 4.3561                17.5950

                     10                     11                     12
                      A                      A                      A
 Frequencies --    267.3816               277.4922               292.2854
 Red. masses --      1.1428                 1.8929                 2.4066
 Frc consts  --      0.0481                 0.0859                 0.1211
 IR Inten    --      8.1354                 6.7365                53.6132

                     13                     14                     15
                      A                      A                      A
 Frequencies --    297.1760               327.1407               338.0783
 Red. masses --      2.3057                 1.0769                 2.5138
 Frc consts  --      0.1200                 0.0679                 0.1693
 IR Inten    --      7.0480                 0.1639                 3.9540

                     16                     17                     18
                      A                      A                      A
 Frequencies --    357.6669               381.5406               408.3929
 Red. masses --      2.5301                 3.2791                 2.8471
 Frc consts  --      0.1907                 0.2812                 0.2798
 IR Inten    --      3.5928                 2.0363                 5.0835

                     19                     20                     21
                      A                      A                      A
 Frequencies --    431.2343               467.1442               471.7176
 Red. masses --      3.0922                 2.8635                 2.6558
 Frc consts  --      0.3388                 0.3682                 0.3482
 IR Inten    --      0.0303                 0.2096                14.4101

                     22                     23                     24
                      A                      A                      A
 Frequencies --    525.3007               575.0862               585.2744
 Red. masses --      5.5673                 3.1875                 1.5697
 Frc consts  --      0.9051                 0.6211                 0.3168
 IR Inten    --    115.8736                 2.4447                31.8612

                     25                     26                     27
                      A                      A                      A
 Frequencies --    615.4944               645.8136               656.3176
 Red. masses --      2.2901                 2.6438                 1.3354
 Frc consts  --      0.5112                 0.6497                 0.3389
 IR Inten    --      7.8025                 3.9740               143.7163

                     28                     29                     30
                      A                      A                      A
 Frequencies --    743.4421               765.1939               827.0366
 Red. masses --      3.7515                 1.8688                 1.4354
 Frc consts  --      1.2217                 0.6447                 0.5785
 IR Inten    --      4.9231                 7.7230                 8.1517

                     31                     32                     33
                      A                      A                      A
 Frequencies --    845.1090               886.4693               940.9476
 Red. masses --      2.3125                 2.5873                 1.7678
 Frc consts  --      0.9731                 1.1979                 0.9222
 IR Inten    --      1.5889                 7.7240                 0.7114

                     34                     35                     36
                      A                      A                      A
 Frequencies --    953.1750               961.9268               972.4566
 Red. masses --      1.6842                 1.8276                 1.2152
 Frc consts  --      0.9015                 0.9964                 0.6771
 IR Inten    --      0.8790                22.7055                 0.1048

                     37                     38                     39
                      A                      A                      A
 Frequencies --    978.2708               980.4981              1018.9476
 Red. masses --      1.9611                 1.2444                 2.1263
 Frc consts  --      1.1058                 0.7049                 1.3007
 IR Inten    --      2.0297                 0.9270                 4.9631

                     40                     41                     42
                      A                      A                      A
 Frequencies --   1023.1532              1044.0798              1060.9827
 Red. masses --      2.9499                 3.2683                 1.4194
 Frc consts  --      1.8194                 2.0991                 0.9414
 IR Inten    --     23.8369                30.0344                 2.5405

                     43                     44                     45
                      A                      A                      A
 Frequencies --   1062.2086              1077.3628              1101.8559
 Red. masses --      1.5029                 1.2326                 2.7191
 Frc consts  --      0.9991                 0.8429                 1.9450
 IR Inten    --     16.3918                68.9208                24.5047

                     46                     47                     48
                      A                      A                      A
 Frequencies --   1141.7256              1198.5367              1242.5375
 Red. masses --      1.8106                 1.1842                 2.2636
 Frc consts  --      1.3905                 1.0022                 2.0591
 IR Inten    --      1.6376                 2.7346                 3.4797

                     49                     50                     51
                      A                      A                      A
 Frequencies --   1246.2431              1253.1413              1254.2235
 Red. masses --      1.4887                 1.8975                 1.1918
 Frc consts  --      1.3623                 1.7556                 1.1046
 IR Inten    --      7.6524                 0.4179                19.5060

                     52                     53                     54
                      A                      A                      A
 Frequencies --   1303.6107              1345.0359              1364.2103
 Red. masses --      2.5558                 1.2575                 1.6885
 Frc consts  --      2.5590                 1.3404                 1.8514
 IR Inten    --      9.0174                 1.1222                 5.0593

                     55                     56                     57
                      A                      A                      A
 Frequencies --   1382.6643              1425.7659              1427.9234
 Red. masses --      1.5344                 1.2160                 1.2501
 Frc consts  --      1.7283                 1.4563                 1.5017
 IR Inten    --      4.0701                 4.9408                 7.3844

                     58                     59                     60
                      A                      A                      A
 Frequencies --   1444.1582              1457.7295              1460.2999
 Red. masses --      1.5998                 1.2020                 1.2127
 Frc consts  --      1.9658                 1.5049                 1.5236
 IR Inten    --      3.4451                 3.0713                 9.7389

                     61                     62                     63
                      A                      A                      A
 Frequencies --   1509.7346              1512.2117              1517.6170
 Red. masses --      1.0917                 1.0508                 1.0457
 Frc consts  --      1.4661                 1.4158                 1.4191
 IR Inten    --      2.1400                 0.0034                 0.0418

                     64                     65                     66
                      A                      A                      A
 Frequencies --   1521.4645              1535.0441              1536.8235
 Red. masses --      1.0464                 1.0585                 1.0513
 Frc consts  --      1.4271                 1.4696                 1.4629
 IR Inten    --      0.3331                 6.2871                 4.8876

                     67                     68                     69
                      A                      A                      A
 Frequencies --   1551.7597              1664.8307              1729.1656
 Red. masses --      1.0617                 7.8693                 6.5516
 Frc consts  --      1.5062                12.8507                11.5417
 IR Inten    --     11.0568                 0.2109                 0.6086

                     70                     71                     72
                      A                      A                      A
 Frequencies --   3035.9216              3045.5673              3046.2904
 Red. masses --      1.0692                 1.0349                 1.0379
 Frc consts  --      5.8061                 5.6554                 5.6748
 IR Inten    --      6.2056                24.0315                21.9820

                     73                     74                     75
                      A                      A                      A
 Frequencies --   3046.5253              3053.7515              3091.7882
 Red. masses --      1.0733                 1.0361                 1.0989
 Frc consts  --      5.8692                 5.6927                 6.1891
 IR Inten    --     15.0098                21.7939                21.8784

                     76                     77                     78
                      A                      A                      A
 Frequencies --   3112.0026              3112.5069              3118.6894
 Red. masses --      1.1023                 1.1023                 1.1027
 Frc consts  --      6.2894                 6.2916                 6.3188
 IR Inten    --      4.9358                 3.2216                24.9922

                     79                     80                     81
                      A                      A                      A
 Frequencies --   3120.2440              3123.3477              3125.8869
 Red. masses --      1.1016                 1.1018                 1.1017
 Frc consts  --      6.3189                 6.3330                 6.3422
 IR Inten    --     86.2268                31.4790                40.7250

                     82                     83                     84
                      A                      A                      A
 Frequencies --   3167.2912              3192.1859              3214.3055
 Red. masses --      1.0503                 1.0860                 1.0895
 Frc consts  --      6.2076                 6.5198                 6.6321
 IR Inten    --      1.3730                12.8404                13.3131

                     85                     86                     87
                      A                      A                      A
 Frequencies --   3223.1006              3269.7586              3715.8126
 Red. masses --      1.0949                 1.1188                 1.0672
 Frc consts  --      6.7012                 7.0478                 8.6814
 IR Inten    --      7.1058                 3.8345                24.4030

 - Thermochemistry -
 -------------------
 Temperature   298.150 Kelvin.  Pressure   1.00000 Atm.
 Atom     1 has atomic number  6 and mass  12.00000

 Molecular mass:   198.10784 amu.
 Principal axes and moments of inertia in atomic units:
                           1         2         3
     Eigenvalues --  1047.211115511.601695677.82417
           X            0.99999   0.00391   0.00094
           Y           -0.00390   0.99990  -0.01365
           Z           -0.00099   0.01364   0.99991
 This molecule is an asymmetric top.
 Rotational symmetry number  1.
 Warning -- assumption of classical behavior for rotation
           may cause significant error
 Rotational temperatures (Kelvin)      0.08271     0.01571     0.01525
 Rotational constants (GHZ):           1.72338     0.32744     0.31786
 Zero-point vibrational energy     702072.6 (Joules/Mol)
                                  167.79939 (Kcal/Mol)
 Warning -- explicit consideration of  25 degrees of freedom as
           vibrations may cause significant error
 Vibrational temperatures:     61.14    75.96   125.93   188.02   217.06
          (Kelvin)            289.64   318.39   345.50   352.80   384.70
                              399.25   420.53   427.57   470.68   486.42
                              514.60   548.95   587.59   620.45   672.12
                              678.70   755.79   827.42   842.08   885.56
                              929.18   944.29  1069.65  1100.94  1189.92
                             1215.92  1275.43  1353.81  1371.41  1384.00
                             1399.15  1407.51  1410.72  1466.04  1472.09
                             1502.20  1526.52  1528.28  1550.08  1585.32
                             1642.69  1724.43  1787.73  1793.07  1802.99
                             1804.55  1875.61  1935.21  1962.79  1989.35
                             2051.36  2054.46  2077.82  2097.35  2101.05
                             2172.17  2175.74  2183.51  2189.05  2208.59
                             2211.15  2232.64  2395.32  2487.88  4368.01
                             4381.89  4382.93  4383.27  4393.67  4448.39
                             4477.48  4478.20  4487.10  4489.34  4493.80
                             4497.45  4557.03  4592.84  4624.67  4637.32
                             4704.45  5346.23

 Zero-point correction=                           0.267405 (Hartree/Particle)
 Thermal correction to Energy=                    0.282368
 Thermal correction to Enthalpy=                  0.283312
 Thermal correction to Gibbs Free Energy=         0.226399
 Sum of electronic and zero-point Energies=           -903.094508
 Sum of electronic and thermal Energies=              -903.079546
 Sum of electronic and thermal Enthalpies=            -903.078602
 Sum of electronic and thermal Free Energies=         -903.135515

                     E (Thermal)             CV                S
                      KCal/Mol        Cal/Mol-Kelvin    Cal/Mol-Kelvin
 Total                  177.188             58.274            119.783
 Electronic               0.000              0.000              0.000
 Translational            0.889              2.981             41.756
 Rotational               0.889              2.981             31.861
 Vibrational            175.411             52.312             46.167
 Vibration     1          0.595              1.980              5.139
 Vibration     2          0.596              1.976              4.710
 Vibration     3          0.601              1.958              3.715
 Vibration     4          0.612              1.923              2.936
 Vibration     5          0.618              1.902              2.661
 Vibration     6          0.638              1.838              2.121
 Vibration     7          0.648              1.809              1.949
 Vibration     8          0.657              1.779              1.802
 Vibration     9          0.660              1.771              1.765
 Vibration    10          0.672              1.733              1.613
 Vibration    11          0.678              1.715              1.549
 Vibration    12          0.688              1.688              1.461
 Vibration    13          0.691              1.679              1.433
 Vibration    14          0.711              1.621              1.274
 Vibration    15          0.718              1.599              1.221
 Vibration    16          0.733              1.559              1.132
 Vibration    17          0.751              1.510              1.033
 Vibration    18          0.773              1.452              0.932
 Vibration    19          0.792              1.402              0.855
 Vibration    20          0.824              1.323              0.746
 Vibration    21          0.829              1.313              0.733
 Vibration    22          0.880              1.194              0.598
 Vibration    23          0.931              1.085              0.495
 Vibration    24          0.942              1.063              0.476
 Vibration    25          0.975              0.999              0.424

 Optimization completed.
    -- Stationary point found.
 Normal termination of Gaussian 16 at Sun Dec 13 12:37:00 2020.

 ----------------------------------------------------------------------
 # B3LYP/6-311++G(d,p) empiricaldispersion=gd3bj scf=xqc pop=npa geom=c
 heck
 ----------------------------------------------------------------------

 ---------------------------------------
 CID_147431126_JID_3695_Energie_neutraal
 ---------------------------------------
 Structure from the checkpoint file:  "JID_3695.chk"
 Charge =  0 Multiplicity = 1

 SCF Done:  E(RB3LYP) =  -903.542356300     A.U. after   16 cycles
 Normal termination of Gaussian 16 at Sun Dec 13 12:40:47 2020.

 ----------------------------------------------------------------------
 # B3LYP/6-311++G(d,p) empiricaldispersion=gd3bj scf=xqc pop=npa geom=c
 heck
 ----------------------------------------------------------------------

 -------------------------------------
 CID_147431126_JID_3695_Energie_kation
 -------------------------------------
 Structure from the checkpoint file:  "JID_3695.chk"
 Charge =  1 Multiplicity = 2

 SCF Done:  E(UB3LYP) =  -903.257945188     A.U. after   26 cycles
 Normal termination of Gaussian 16 at Sun Dec 13 12:48:52 2020.
 Gaussian 16:  ES64L-G16RevA.03 25-Dec-2016

 ----------------------------------------------------------------------
 # B3LYP/6-311++G(d,p) empiricaldispersion=gd3bj scf=xqc pop=npa geom=c
 heck
 ----------------------------------------------------------------------

 ------------------------------------
 CID_147431126_JID_3695_Energie_anion
 ------------------------------------
 Structure from the checkpoint file:  "JID_3695.chk"
 Charge = -1 Multiplicity = 2

                         Standard orientation:
 ---------------------------------------------------------------------
 Center     Atomic      Atomic             Coordinates (Angstroms)
 Number     Number       Type             X           Y           Z
 ---------------------------------------------------------------------
      1          6           0        3.680295    1.125974   -0.553739
      2          6           0        2.926809   -0.097092   -0.009972
      3          6           0        3.256961   -1.311459   -0.905127
      4          6           0        3.419473   -0.370265    1.428647
      5          6           0        1.413367    0.117774    0.003813
      6          6           0        0.807163    1.265044   -0.350666
      7          6           0       -0.692621    1.427708   -0.264216
      8          6           0       -1.401455    0.099895   -0.542429
      9          6           0       -0.762164   -1.024909    0.232122
     10          6           0        0.559184   -0.998741    0.452999
     11         16           0       -3.211905    0.256961   -0.229962
     12          6           0       -3.833148   -1.138792   -0.807707
     13          8           0       -2.863403    0.424851    1.546955
     14          1           0        4.756673    0.922852   -0.567695
     15          1           0        3.516904    2.011059    0.070684
     16          1           0        3.370753    1.365469   -1.576915
     17          1           0        4.337347   -1.498024   -0.911927
     18          1           0        2.762265   -2.222812   -0.553961
     19          1           0        2.933861   -1.131260   -1.936415
     20          1           0        3.197330    0.480347    2.082084
     21          1           0        2.950900   -1.258967    1.863340
     22          1           0        4.503775   -0.532753    1.432676
     23          1           0        1.380466    2.135106   -0.651553
     24          1           0       -1.041127    2.190433   -0.969061
     25          1           0       -0.968379    1.766714    0.744459
     26          1           0       -1.372436   -0.126245   -1.616641
     27          1           0       -1.370831   -1.859714    0.561094
     28          1           0        1.024888   -1.834220    0.967357
     29          1           0       -4.910382   -1.153121   -0.930929
     30          1           0       -3.313832   -2.088052   -0.718642
     31          1           0       -3.703659    0.752170    1.913440
 ---------------------------------------------------------------------

 SCF Done:  E(UB3LYP) =  -903.530342674     A.U. after   33 cycles
 SCF Done:  E(UB3LYP) =  -903.530342675     a.u. after    1 cycles

 The electronic state is 2-A.
 Alpha  occ. eigenvalues --  -88.82016 -19.00216 -10.10225 -10.08383 -10.06514
 Alpha  occ. eigenvalues --  -10.05879 -10.05874 -10.05798 -10.05547 -10.05472
 Alpha  occ. eigenvalues --  -10.05275 -10.05148 -10.04839  -7.89873  -5.86196
 Alpha  occ. eigenvalues --   -5.85922  -5.85478  -0.87883  -0.75100  -0.72448
 Alpha  occ. eigenvalues --   -0.69074  -0.63480  -0.61999  -0.58492  -0.58257
 Alpha  occ. eigenvalues --   -0.52975  -0.49491  -0.47930  -0.44470  -0.40442
 Alpha  occ. eigenvalues --   -0.39075  -0.36278  -0.34895  -0.34339  -0.33803
 Alpha  occ. eigenvalues --   -0.32477  -0.31980  -0.30744  -0.29864  -0.29536
 Alpha  occ. eigenvalues --   -0.28992  -0.28149  -0.27064  -0.26484  -0.26254
 Alpha  occ. eigenvalues --   -0.23826  -0.23525  -0.22227  -0.21011  -0.20471
 Alpha  occ. eigenvalues --   -0.18518  -0.17020  -0.11396  -0.10643   0.04669
 Alpha virt. eigenvalues --    0.06271   0.07027   0.08013   0.08341   0.08741
 Alpha virt. eigenvalues --    0.08962   0.09387   0.09982   0.10666   0.10790
 Alpha virt. eigenvalues --    0.11122   0.11924   0.12260   0.13048   0.13676

  Beta  occ. eigenvalues --  -88.81993 -19.00165 -10.10222 -10.08383 -10.06511
  Beta  occ. eigenvalues --  -10.05874 -10.05827 -10.05790 -10.05452 -10.05423
  Beta  occ. eigenvalues --  -10.05235 -10.05076 -10.04694  -7.89851  -5.86160
  Beta  occ. eigenvalues --   -5.85879  -5.85459  -0.87749  -0.74963  -0.72378
  Beta  occ. eigenvalues --   -0.68967  -0.63281  -0.61853  -0.58454  -0.58196
  Beta  occ. eigenvalues --   -0.52884  -0.49273  -0.47777  -0.44354  -0.40318
  Beta  occ. eigenvalues --   -0.38998  -0.36190  -0.34823  -0.34252  -0.33761
  Beta  occ. eigenvalues --   -0.32403  -0.31879  -0.30672  -0.29785  -0.29456
  Beta  occ. eigenvalues --   -0.28940  -0.28061  -0.26913  -0.26453  -0.26135
  Beta  occ. eigenvalues --   -0.23777  -0.23465  -0.22138  -0.20912  -0.20402
  Beta  occ. eigenvalues --   -0.18064  -0.16905  -0.11141  -0.10002
  Beta virt. eigenvalues --    0.06774   0.07291   0.08115   0.08394   0.08574
  Beta virt. eigenvalues --    0.09073   0.09139   0.09702   0.10172   0.10942
  Beta virt. eigenvalues --    0.11050   0.11195   0.12081   0.12395   0.13178

 Mulliken charges and spin densities:
               1          2
     1  C    0.017516  -0.522017
     2  C   -1.195067   1.711061
     3  C    0.494380  -1.175961
     4  C   -0.279418  -0.402086
     5  C    2.262053  -1.853876
     6  C   -2.196803   2.555214
     7  C    1.317420  -2.595763
     8  C   -0.416561   1.043748
     9  C    0.194801  -0.730810
    10  C   -0.982698   0.583869
    11  S    1.255314  -0.965432
    12  C   -0.739951   0.065786
    13  O   -0.304628   0.004620
    14  H   -0.310272   0.468255
    15  H   -0.092858   0.219815
    16  H    0.085233   0.041228
    17  H   -0.260754   0.406690
    18  H   -0.101052   0.247812
    19  H   -0.032912   0.173785
    20  H    0.091596   0.054735
    21  H    0.053513   0.080672
    22  H   -0.040320   0.190667
    23  H   -0.074005   0.259315
    24  H    0.029852   0.103981
    25  H    0.117197   0.089454
    26  H    0.038407   0.210925
    27  H    0.107773   0.063326
    28  H    0.018354   0.095759
    29  H   -0.151430   0.317186
    30  H    0.206462  -0.070177
    31  H   -0.111141   0.328220
 Sum of Mulliken charges =  -1.00000   1.00000

 Dipole moment (field-independent basis, Debye):
    X=             -0.8204    Y=             -0.0685    Z=             -0.3465  Tot=              0.8932
 Quadrupole moment (field-independent basis, Debye-Ang):
   XX=           -173.7801   YY=           -115.6432   ZZ=           -118.9264
   XY=              3.8159   XZ=              7.9353   YZ=             -4.5437

 Summary of Natural Population Analysis:

                                       Natural Population
                Natural  -----------------------------------------------
    Atom  No    Charge         Core      Valence    Rydberg      Total
 -----------------------------------------------------------------------
      C    1   -0.28599      0.99964     2.27868    0.00767     3.28599
      C    2   -0.05351      0.99956     2.04264    0.01132     3.05351
      C    3   -0.28068      0.99963     2.27369    0.00737     3.28068
      C    4   -0.27856      0.99963     2.27342    0.00551     3.27856
      C    5   -0.02589      0.99945     2.01407    0.01237     3.02589
      C    6   -0.06190      0.99947     2.05351    0.00892     3.06190
      C    7   -0.21135      0.99960     2.20255    0.00920     3.21135
      C    8   -0.17537      0.99954     2.16192    0.01391     3.17537
      C    9   -0.06573      0.99951     2.05618    0.01003     3.06573
      C   10   -0.09691      0.99949     2.08866    0.00875     3.09691
      S   11    0.48176      4.99917     2.47728    0.04179     7.51824
      C   12   -0.42608      0.99969     2.41604    0.01035     3.42608
      O   13   -0.46428      0.99993     3.45589    0.00846     4.46428
      H   14    0.09951      0.00000     0.39959    0.00090     0.40049
      H   15    0.10076      0.00000     0.39825    0.00099     0.39924
      H   16    0.10085      0.00000     0.39820    0.00095     0.39915
      H   17    0.09798      0.00000     0.40070    0.00132     0.40202
      H   18    0.10090      0.00000     0.39813    0.00097     0.39910
      H   19    0.10071      0.00000     0.39838    0.00091     0.39929
      H   20    0.10075      0.00000     0.39842    0.00083     0.39925
      H   21    0.09850      0.00000     0.40054    0.00096     0.40150
      H   22    0.09656      0.00000     0.40259    0.00086     0.40344
      H   23    0.09608      0.00000     0.40287    0.00105     0.40392
      H   24    0.10083      0.00000     0.39784    0.00133     0.39917
      H   25    0.11754      0.00000     0.38081    0.00165     0.38246
      H   26    0.11079      0.00000     0.38705    0.00216     0.38921
      H   27    0.09934      0.00000     0.39946    0.00120     0.40066
      H   28    0.09645      0.00000     0.40215    0.00140     0.40355
      H   29    0.10294      0.00000     0.39597    0.00109     0.39706
      H   30    0.09744      0.00000     0.40149    0.00107     0.40256
      H   31    0.22657      0.00000     0.26516    0.00827     0.27343
 =======================================================================
   * Total *   -0.00000     16.99431    36.82212    0.18357    54.00000

 Normal termination of Gaussian 16 at Sun Dec 13 12:59:16 2020.
