 Gaussian 16, Revision A.03,

 -----------------------------------------------------------
 # opt freq B3LYP/6-31G(d) empiricaldispersion=gd3bj scf=xqc
 -----------------------------------------------------------

 -------------------------------
 CID_146759414_JID_2286_neutraal
 -------------------------------
 Symbolic Z-matrix:
 Charge =  0 Multiplicity = 1

 SCF Done:  E(RB3LYP) =  -465.504428400     A.U. after   20 cycles
 SCF Done:  E(RB3LYP) =  -465.537136803     A.U. after   16 cycles
 SCF Done:  E(RB3LYP) =  -465.548054247     A.U. after   17 cycles
 SCF Done:  E(RB3LYP) =  -465.551063643     A.U. after   15 cycles
 SCF Done:  E(RB3LYP) =  -465.552527247     A.U. after   17 cycles
 SCF Done:  E(RB3LYP) =  -465.554600641     A.U. after   15 cycles
 SCF Done:  E(RB3LYP) =  -465.555467959     A.U. after   14 cycles
 SCF Done:  E(RB3LYP) =  -465.556303535     A.U. after   15 cycles
 SCF Done:  E(RB3LYP) =  -465.557269641     A.U. after   15 cycles
 SCF Done:  E(RB3LYP) =  -465.557600832     A.U. after   14 cycles
 SCF Done:  E(RB3LYP) =  -465.557747792     A.U. after   10 cycles
 SCF Done:  E(RB3LYP) =  -465.557748714     A.U. after   12 cycles
 SCF Done:  E(RB3LYP) =  -465.557763442     A.U. after   12 cycles
 SCF Done:  E(RB3LYP) =  -465.557763872     A.U. after   11 cycles
 SCF Done:  E(RB3LYP) =  -465.557764068     A.U. after   10 cycles
 SCF Done:  E(RB3LYP) =  -465.557764081     A.U. after    9 cycles
 Optimization completed on the basis of negligible forces.
    -- Stationary point found.
 Normal termination of Gaussian 16 at Wed Dec  9 17:11:05 2020.

 --------------------------------------------------------------------
 #N Geom=AllCheck Guess=TCheck SCRF=Check GenChk RB3LYP/6-31G(d) Freq
 --------------------------------------------------------------------

 Structure from the checkpoint file:  "JID_2286.chk"
 -------------------------------
 CID_146759414_JID_2286_neutraal
 -------------------------------
 Charge =  0 Multiplicity = 1

 SCF Done:  E(RB3LYP) =  -465.557764081     A.U. after    1 cycles

  Exact polarizability: 283.717  18.131 121.784   4.244   0.077  71.413
 Approx polarizability: 484.426  71.065 202.692  18.605   6.084 108.529

                      1                      2                      3
                      A                      A                      A
 Frequencies --     18.8294                43.2344                62.7510
 Red. masses --      1.0163                 3.3003                 3.4183
 Frc consts  --      0.0002                 0.0036                 0.0079
 IR Inten    --      0.0248                 0.5830                 2.2727

                      4                      5                      6
                      A                      A                      A
 Frequencies --     73.9106               121.0452               135.8349
 Red. masses --      3.3417                 2.4607                 2.9368
 Frc consts  --      0.0108                 0.0212                 0.0319
 IR Inten    --      1.1654                 0.5843                 1.3823

                      7                      8                      9
                      A                      A                      A
 Frequencies --    161.5438               228.7942               233.5476
 Red. masses --      2.2213                 2.6479                 1.2844
 Frc consts  --      0.0342                 0.0817                 0.0413
 IR Inten    --      1.6651                 2.9782                 0.4093

                     10                     11                     12
                      A                      A                      A
 Frequencies --    259.2391               278.9241               326.8263
 Red. masses --      3.5474                 3.7338                 2.8522
 Frc consts  --      0.1405                 0.1711                 0.1795
 IR Inten    --      1.5775                 4.9618                26.9154

                     13                     14                     15
                      A                      A                      A
 Frequencies --    337.8093               384.3122               415.8489
 Red. masses --      3.5149                 3.9341                 4.6060
 Frc consts  --      0.2363                 0.3423                 0.4693
 IR Inten    --      3.5092                10.9543                 1.1046

                     16                     17                     18
                      A                      A                      A
 Frequencies --    543.2289               571.0140               606.4489
 Red. masses --      3.4737                 2.4202                 3.7720
 Frc consts  --      0.6040                 0.4649                 0.8174
 IR Inten    --     21.4533                13.1610                 3.0544

                     19                     20                     21
                      A                      A                      A
 Frequencies --    659.5071               717.0380               736.6762
 Red. masses --      4.5450                 3.5320                 3.4352
 Frc consts  --      1.1647                 1.0699                 1.0984
 IR Inten    --     57.3261                 7.0876                 5.4209

                     22                     23                     24
                      A                      A                      A
 Frequencies --    783.7138               806.0006               862.3094
 Red. masses --      1.7640                 1.3312                 1.8273
 Frc consts  --      0.6384                 0.5095                 0.8006
 IR Inten    --     23.5306                 3.3832                12.0896

                     25                     26                     27
                      A                      A                      A
 Frequencies --    901.1315               917.7156               926.3542
 Red. masses --      2.3019                 2.9335                 1.4185
 Frc consts  --      1.1013                 1.4556                 0.7172
 IR Inten    --      6.0878                 0.8459                 7.5595

                     28                     29                     30
                      A                      A                      A
 Frequencies --    955.9119               963.9313              1033.6456
 Red. masses --      2.2465                 2.5592                 1.9485
 Frc consts  --      1.2094                 1.4010                 1.2266
 IR Inten    --      7.0687                 7.9187                 9.3405

                     31                     32                     33
                      A                      A                      A
 Frequencies --   1045.6071              1060.3526              1068.7976
 Red. masses --      2.5655                 1.3957                 1.3894
 Frc consts  --      1.6526                 0.9245                 0.9351
 IR Inten    --      2.3977                 8.4933                 1.7401

                     34                     35                     36
                      A                      A                      A
 Frequencies --   1097.9730              1112.1045              1126.4215
 Red. masses --      1.7517                 1.7667                 2.0701
 Frc consts  --      1.2442                 1.2874                 1.5476
 IR Inten    --      5.3572                 3.4544                16.8453

                     37                     38                     39
                      A                      A                      A
 Frequencies --   1139.3941              1217.4189              1251.2181
 Red. masses --      1.3838                 1.2331                 1.3838
 Frc consts  --      1.0585                 1.0767                 1.2765
 IR Inten    --     10.8194                23.2978                13.6703

                     40                     41                     42
                      A                      A                      A
 Frequencies --   1277.8875              1287.4276              1309.5492
 Red. masses --      1.3874                 1.2292                 2.5605
 Frc consts  --      1.3348                 1.2004                 2.5872
 IR Inten    --      1.9037                 2.8468                18.2980

                     43                     44                     45
                      A                      A                      A
 Frequencies --   1334.0214              1339.2808              1428.0338
 Red. masses --      1.9440                 1.6707                 1.6551
 Frc consts  --      2.0383                 1.7656                 1.9887
 IR Inten    --      5.0970                68.0601                 8.5218

                     46                     47                     48
                      A                      A                      A
 Frequencies --   1440.0840              1440.5267              1456.9514
 Red. masses --      1.2814                 1.2573                 3.1564
 Frc consts  --      1.5657                 1.5372                 3.9476
 IR Inten    --     28.8973                12.6460                62.7263

                     49                     50                     51
                      A                      A                      A
 Frequencies --   1488.3778              1492.3414              1502.2225
 Red. masses --      1.1607                 1.2639                 1.0396
 Frc consts  --      1.5150                 1.6585                 1.3823
 IR Inten    --     20.5250                 1.8150                 5.7884

                     52                     53                     54
                      A                      A                      A
 Frequencies --   1503.7471              1510.7515              1527.2285
 Red. masses --      1.0471                 1.2739                 1.0461
 Frc consts  --      1.3950                 1.7131                 1.4375
 IR Inten    --     11.7681                61.2702                 8.8153

                     55                     56                     57
                      A                      A                      A
 Frequencies --   1532.3185              1535.9727              1588.5857
 Red. masses --      1.1567                 2.3420                 4.5392
 Frc consts  --      1.6002                 3.2554                 6.7491
 IR Inten    --     23.8041               174.1360                85.3682

                     58                     59                     60
                      A                      A                      A
 Frequencies --   2321.0465              2838.8027              3022.0252
 Red. masses --     11.8410                 1.0798                 1.0657
 Frc consts  --     37.5842                 5.1272                 5.7342
 IR Inten    --     68.7495                11.1626                60.1560

                     61                     62                     63
                      A                      A                      A
 Frequencies --   3031.9522              3036.5301              3037.7111
 Red. masses --      1.0810                 1.0349                 1.0621
 Frc consts  --      5.8552                 5.6223                 5.7742
 IR Inten    --     10.5626                42.3817                23.4617

                     64                     65                     66
                      A                      A                      A
 Frequencies --   3054.9995              3071.4605              3085.2131
 Red. masses --      1.0351                 1.0950                 1.1027
 Frc consts  --      5.6917                 6.0862                 6.1842
 IR Inten    --     30.9923                35.3245                28.2291

                     67                     68                     69
                      A                      A                      A
 Frequencies --   3094.7597              3103.8118              3122.1056
 Red. masses --      1.1006                 1.1019                 1.1025
 Frc consts  --      6.2104                 6.2544                 6.3318
 IR Inten    --      9.8661                 9.1459                27.3107

                     70                     71                     72
                      A                      A                      A
 Frequencies --   3124.9441              3169.7822              3171.9153
 Red. masses --      1.1027                 1.0904                 1.0885
 Frc consts  --      6.3442                 6.4548                 6.4525
 IR Inten    --     22.8771                65.5524                10.8585

 - Thermochemistry -
 -------------------
 Temperature   298.150 Kelvin.  Pressure   1.00000 Atm.
 Atom     1 has atomic number  6 and mass  12.00000

 Molecular mass:   158.10955 amu.
 Principal axes and moments of inertia in atomic units:
                           1         2         3
     Eigenvalues --   926.974784209.923285037.64645
           X            0.99997  -0.00805  -0.00167
           Y            0.00805   0.99997  -0.00007
           Z            0.00167   0.00006   1.00000
 This molecule is an asymmetric top.
 Rotational symmetry number  1.
 Warning -- assumption of classical behavior for rotation
           may cause significant error
 Rotational temperatures (Kelvin)      0.09344     0.02057     0.01719
 Rotational constants (GHZ):           1.94692     0.42869     0.35825
 Zero-point vibrational energy     577011.2 (Joules/Mol)
                                  137.90898 (Kcal/Mol)
 Warning -- explicit consideration of  18 degrees of freedom as
           vibrations may cause significant error
 Vibrational temperatures:     27.09    62.20    90.28   106.34   174.16
          (Kelvin)            195.44   232.43   329.18   336.02   372.99
                              401.31   470.23   486.03   552.94   598.31
                              781.59   821.56   872.54   948.88  1031.66
                             1059.91  1127.59  1159.66  1240.67  1296.53
                             1320.39  1332.82  1375.34  1386.88  1487.19
                             1504.40  1525.61  1537.76  1579.74  1600.07
                             1620.67  1639.33  1751.59  1800.22  1838.60
                             1852.32  1884.15  1919.36  1926.93  2054.62
                             2071.96  2072.60  2096.23  2141.44  2147.15
                             2161.36  2163.56  2173.63  2197.34  2204.66
                             2209.92  2285.62  3339.47  4084.40  4348.02
                             4362.30  4368.89  4370.59  4395.46  4419.15
                             4438.93  4452.67  4465.69  4492.01  4496.10
                             4560.61  4563.68

 Zero-point correction=                           0.219772 (Hartree/Particle)
 Thermal correction to Energy=                    0.232952
 Thermal correction to Enthalpy=                  0.233896
 Thermal correction to Gibbs Free Energy=         0.178274
 Sum of electronic and zero-point Energies=           -465.337992
 Sum of electronic and thermal Energies=              -465.324812
 Sum of electronic and thermal Enthalpies=            -465.323868
 Sum of electronic and thermal Free Energies=         -465.379491

                     E (Thermal)             CV                S
                      KCal/Mol        Cal/Mol-Kelvin    Cal/Mol-Kelvin
 Total                  146.180             47.147            117.068
 Electronic               0.000              0.000              0.000
 Translational            0.889              2.981             41.084
 Rotational               0.889              2.981             31.353
 Vibrational            144.402             41.186             44.632
 Vibration     1          0.593              1.986              6.754
 Vibration     2          0.595              1.980              5.105
 Vibration     3          0.597              1.972              4.369
 Vibration     4          0.599              1.966              4.046
 Vibration     5          0.609              1.932              3.084
 Vibration     6          0.614              1.918              2.862
 Vibration     7          0.622              1.890              2.532
 Vibration     8          0.651              1.797              1.888
 Vibration     9          0.654              1.790              1.852
 Vibration    10          0.668              1.747              1.667
 Vibration    11          0.679              1.713              1.540
 Vibration    12          0.710              1.622              1.276
 Vibration    13          0.718              1.600              1.222
 Vibration    14          0.753              1.504              1.022
 Vibration    15          0.779              1.436              0.906
 Vibration    16          0.898              1.155              0.558
 Vibration    17          0.927              1.094              0.502
 Vibration    18          0.965              1.018              0.439

 Optimization completed on the basis of negligible forces.
    -- Stationary point found.
 Normal termination of Gaussian 16 at Wed Dec  9 17:16:37 2020.

 ----------------------------------------------------------------------
 # B3LYP/6-311++G(d,p) empiricaldispersion=gd3bj scf=xqc pop=npa geom=c
 heck
 ----------------------------------------------------------------------

 ---------------------------------------
 CID_146759414_JID_2286_Energie_neutraal
 ---------------------------------------
 Structure from the checkpoint file:  "JID_2286.chk"
 Charge =  0 Multiplicity = 1

 SCF Done:  E(RB3LYP) =  -465.682204346     A.U. after   18 cycles
 Normal termination of Gaussian 16 at Wed Dec  9 17:20:29 2020.

 ----------------------------------------------------------------------
 # B3LYP/6-311++G(d,p) empiricaldispersion=gd3bj scf=xqc pop=npa geom=c
 heck
 ----------------------------------------------------------------------

 -------------------------------------
 CID_146759414_JID_2286_Energie_kation
 -------------------------------------
 Structure from the checkpoint file:  "JID_2286.chk"
 Charge =  1 Multiplicity = 2

 SCF Done:  E(UB3LYP) =  -465.444702471     A.U. after   21 cycles
 Normal termination of Gaussian 16 at Wed Dec  9 17:26:01 2020.
 Gaussian 16:  ES64L-G16RevA.03 25-Dec-2016

 ----------------------------------------------------------------------
 # B3LYP/6-311++G(d,p) empiricaldispersion=gd3bj scf=xqc pop=npa geom=c
 heck
 ----------------------------------------------------------------------

 ------------------------------------
 CID_146759414_JID_2286_Energie_anion
 ------------------------------------
 Structure from the checkpoint file:  "JID_2286.chk"
 Charge = -1 Multiplicity = 2

                         Standard orientation:
 ---------------------------------------------------------------------
 Center     Atomic      Atomic             Coordinates (Angstroms)
 Number     Number       Type             X           Y           Z
 ---------------------------------------------------------------------
      1          6           0       -1.835297    2.459389    0.209136
      2          6           0       -0.665354    1.598931   -0.268165
      3          6           0       -0.844021    0.117057   -0.100436
      4          6           0        0.217434   -0.759733    0.030943
      5          6           0        1.580265   -0.405308    0.186243
      6          6           0        2.162146    0.874036    0.173504
      7          6           0        3.497023    0.730433   -0.030601
      8          6           0        3.885904   -0.706147   -0.339447
      9          6           0        2.671521   -1.463284    0.297105
     10          6           0       -2.159953   -0.408700   -0.067178
     11          6           0       -3.298327   -0.833770   -0.046072
     12          6           0       -4.659435   -1.351807   -0.021996
     13          1           0       -2.755734    2.234057   -0.339700
     14          1           0       -1.603718    3.519955    0.066426
     15          1           0       -2.035628    2.298369    1.274035
     16          1           0       -0.460285    1.797265   -1.330312
     17          1           0        0.300935    1.862503    0.215877
     18          1           0       -0.027805   -1.817964    0.091196
     19          1           0        4.251886    1.498186    0.133198
     20          1           0        4.856484   -0.967031    0.101579
     21          1           0        3.953149   -0.935083   -1.413560
     22          1           0        2.388483   -2.390547   -0.216421
     23          1           0        2.910053   -1.726358    1.336820
     24          1           0       -4.756511   -2.187529    0.681523
     25          1           0       -5.374618   -0.575168    0.273965
     26          1           0       -4.958126   -1.717236   -1.012845
 ---------------------------------------------------------------------

 SCF Done:  E(UB3LYP) =  -465.729402469     A.U. after   25 cycles

 The electronic state is 2-A.
 Alpha  occ. eigenvalues --  -10.08411 -10.03044 -10.02861 -10.02793 -10.02523
 Alpha  occ. eigenvalues --  -10.02427 -10.02409 -10.01492 -10.01286 -10.00726
 Alpha  occ. eigenvalues --   -9.99477  -9.95412  -0.69412  -0.67356  -0.65173
 Alpha  occ. eigenvalues --   -0.60222  -0.57827  -0.53972  -0.53339  -0.48257
 Alpha  occ. eigenvalues --   -0.44881  -0.39761  -0.35729  -0.33811  -0.32850
 Alpha  occ. eigenvalues --   -0.32371  -0.32283  -0.30929  -0.29894  -0.29173
 Alpha  occ. eigenvalues --   -0.28215  -0.23378  -0.22515  -0.22192  -0.21112
 Alpha  occ. eigenvalues --   -0.20345  -0.19876  -0.18234  -0.17068  -0.13425
 Alpha  occ. eigenvalues --   -0.12851  -0.07827  -0.02657   0.00940
 Alpha virt. eigenvalues --    0.07327   0.09675   0.09840   0.10923   0.10971
 Alpha virt. eigenvalues --    0.11483   0.11692   0.12619   0.13052   0.13167
 Alpha virt. eigenvalues --    0.13711   0.14154   0.14898   0.15244   0.16117

  Beta  occ. eigenvalues --  -10.08436 -10.02888 -10.02861 -10.02562 -10.02426
  Beta  occ. eigenvalues --  -10.02401 -10.02282 -10.01647 -10.01282 -10.00290
  Beta  occ. eigenvalues --   -9.99104  -9.95212  -0.68884  -0.66916  -0.64857
  Beta  occ. eigenvalues --   -0.60097  -0.57631  -0.53473  -0.52805  -0.48186
  Beta  occ. eigenvalues --   -0.44452  -0.39277  -0.35415  -0.33506  -0.32645
  Beta  occ. eigenvalues --   -0.32216  -0.32082  -0.30585  -0.29674  -0.28844
  Beta  occ. eigenvalues --   -0.28041  -0.23040  -0.22231  -0.21863  -0.20766
  Beta  occ. eigenvalues --   -0.20020  -0.19663  -0.17908  -0.16295  -0.12752
  Beta  occ. eigenvalues --   -0.12240  -0.06443  -0.00623
  Beta virt. eigenvalues --    0.07315   0.07478   0.09709   0.09853   0.10950
  Beta virt. eigenvalues --    0.10985   0.11500   0.11769   0.12629   0.13101
  Beta virt. eigenvalues --    0.13166   0.13876   0.14647   0.15069   0.15506

 Mulliken charges and spin densities:
               1          2
     1  C   -0.686808  -0.024666
     2  C   -0.580329   0.002148
     3  C    0.189288   0.276789
     4  C   -0.280627  -0.080718
     5  C    0.875622   0.345739
     6  C   -0.797756  -0.081687
     7  C    0.071776   0.374405
     8  C   -0.526984  -0.003405
     9  C   -0.440212  -0.000711
    10  C    0.262762  -0.096029
    11  C   -0.217605   0.215559
    12  C   -0.407448  -0.009493
    13  H    0.117912  -0.001119
    14  H    0.099865   0.004422
    15  H    0.122995   0.004325
    16  H    0.116522   0.047940
    17  H    0.155308  -0.028555
    18  H    0.104558   0.008263
    19  H    0.107297  -0.009268
    20  H    0.063040  -0.007289
    21  H    0.074466   0.018230
    22  H    0.076119  -0.005838
    23  H    0.088323   0.028309
    24  H    0.136363   0.005230
    25  H    0.147424   0.003133
    26  H    0.128128   0.014289
 Sum of Mulliken charges =  -1.00000   1.00000

 Dipole moment (field-independent basis, Debye):
    X=             -4.3785    Y=             -2.2279    Z=             -0.2914  Tot=              4.9213
 Quadrupole moment (field-independent basis, Debye-Ang):
   XX=           -109.9677   YY=            -89.0722   ZZ=            -82.7721
   XY=             -2.9844   XZ=             -0.5393   YZ=             -0.9333

 Summary of Natural Population Analysis:

                                       Natural Population
                Natural  -----------------------------------------------
    Atom  No    Charge         Core      Valence    Rydberg      Total
 -----------------------------------------------------------------------
      C    1   -0.28427      0.99967     2.28026    0.00434     3.28427
      C    2   -0.23114      0.99964     2.22059    0.01092     3.23114
      C    3    0.13158      0.99947     1.85948    0.00946     2.86842
      C    4   -0.16472      0.99952     2.14953    0.01567     3.16472
      C    5    0.07753      0.99949     1.91060    0.01238     2.92247
      C    6   -0.10366      0.99923     2.08538    0.01905     3.10366
      C    7   -0.02656      0.99954     2.01502    0.01200     3.02656
      C    8   -0.21397      0.99964     2.20215    0.01218     3.21397
      C    9   -0.20632      0.99962     2.19337    0.01334     3.20632
      C   10   -0.04758      0.99928     2.03915    0.00915     3.04758
      C   11    0.02336      0.99928     1.97062    0.00673     2.97664
      C   12   -0.31024      0.99955     2.30705    0.00364     3.31024
      H   13    0.09354      0.00000     0.40508    0.00138     0.40646
      H   14    0.09089      0.00000     0.40824    0.00087     0.40911
      H   15    0.09347      0.00000     0.40560    0.00093     0.40653
      H   16    0.10223      0.00000     0.39607    0.00171     0.39777
      H   17    0.13627      0.00000     0.36025    0.00347     0.36373
      H   18    0.09059      0.00000     0.40776    0.00164     0.40941
      H   19    0.07640      0.00000     0.42218    0.00142     0.42360
      H   20    0.08603      0.00000     0.41253    0.00144     0.41397
      H   21    0.09256      0.00000     0.40617    0.00127     0.40744
      H   22    0.08961      0.00000     0.40913    0.00127     0.41039
      H   23    0.09777      0.00000     0.40112    0.00111     0.40223
      H   24    0.10243      0.00000     0.39570    0.00186     0.39757
      H   25    0.10240      0.00000     0.39578    0.00182     0.39760
      H   26    0.10445      0.00000     0.39357    0.00199     0.39555
 =======================================================================
   * Total *    0.00264     11.99394    30.85238    0.15105    42.99736

 Normal termination of Gaussian 16 at Wed Dec  9 17:32:56 2020.
