 Gaussian 16, Revision A.03,

 -----------------------------------------------------------
 # opt freq B3LYP/6-31G(d) empiricaldispersion=gd3bj scf=xqc
 -----------------------------------------------------------

 ------------------------------
 CID_115578771_JID_213_neutraal
 ------------------------------
 Symbolic Z-matrix:
 Charge =  0 Multiplicity = 1

 SCF Done:  E(RB3LYP) =  -495.790951855     A.U. after   14 cycles
 SCF Done:  E(RB3LYP) =  -495.795402355     A.U. after   12 cycles
 SCF Done:  E(RB3LYP) =  -495.796453559     A.U. after   12 cycles
 SCF Done:  E(RB3LYP) =  -495.797032928     A.U. after   12 cycles
 SCF Done:  E(RB3LYP) =  -495.797701633     A.U. after   11 cycles
 SCF Done:  E(RB3LYP) =  -495.798049025     A.U. after   12 cycles
 SCF Done:  E(RB3LYP) =  -495.798166596     A.U. after   11 cycles
 SCF Done:  E(RB3LYP) =  -495.798264246     A.U. after   10 cycles
 SCF Done:  E(RB3LYP) =  -495.798363564     A.U. after   11 cycles
 SCF Done:  E(RB3LYP) =  -495.798407462     A.U. after   10 cycles
 SCF Done:  E(RB3LYP) =  -495.798430520     A.U. after   11 cycles
 SCF Done:  E(RB3LYP) =  -495.798462896     A.U. after   11 cycles
 SCF Done:  E(RB3LYP) =  -495.798480654     A.U. after   10 cycles
 SCF Done:  E(RB3LYP) =  -495.798484070     A.U. after    8 cycles
 SCF Done:  E(RB3LYP) =  -495.798484405     A.U. after    8 cycles
 SCF Done:  E(RB3LYP) =  -495.798484515     A.U. after    7 cycles
 Optimization completed.
    -- Stationary point found.
 Normal termination of Gaussian 16 at Tue Dec  8 10:22:18 2020.

 --------------------------------------------------------------------
 #N Geom=AllCheck Guess=TCheck SCRF=Check GenChk RB3LYP/6-31G(d) Freq
 --------------------------------------------------------------------

 Structure from the checkpoint file:  "JID_213.chk"
 ------------------------------
 CID_115578771_JID_213_neutraal
 ------------------------------
 Charge =  0 Multiplicity = 1

 SCF Done:  E(RB3LYP) =  -495.798484515     A.U. after    1 cycles

  Exact polarizability:  96.966  -1.958  88.755   2.829   1.372  59.953
 Approx polarizability: 115.969  -3.181 131.445   4.423   4.631  91.922

                      1                      2                      3
                      A                      A                      A
 Frequencies --     58.3230                76.0236               116.0711
 Red. masses --      2.7864                 2.8501                 2.7757
 Frc consts  --      0.0056                 0.0097                 0.0220
 IR Inten    --      0.2567                 0.2154                 1.7204

                      4                      5                      6
                      A                      A                      A
 Frequencies --    146.8982               179.6616               206.2644
 Red. masses --      2.9092                 1.8091                 2.6331
 Frc consts  --      0.0370                 0.0344                 0.0660
 IR Inten    --      4.1263                 0.7658                 4.6995

                      7                      8                      9
                      A                      A                      A
 Frequencies --    227.8496               258.5031               300.2843
 Red. masses --      2.5713                 1.9811                 3.2152
 Frc consts  --      0.0786                 0.0780                 0.1708
 IR Inten    --      1.1997                 4.7077                14.3789

                     10                     11                     12
                      A                      A                      A
 Frequencies --    393.7133               441.2098               574.0945
 Red. masses --      3.8585                 5.1312                 2.3391
 Frc consts  --      0.3524                 0.5885                 0.4542
 IR Inten    --      7.1824                 5.5794                10.1041

                     13                     14                     15
                      A                      A                      A
 Frequencies --    592.1164               629.4838               740.1004
 Red. masses --      2.9531                 5.1452                 4.3482
 Frc consts  --      0.6100                 1.2012                 1.4033
 IR Inten    --     16.4035                 9.4994                41.0722

                     16                     17                     18
                      A                      A                      A
 Frequencies --    783.1443               845.2594               881.5292
 Red. masses --      2.5240                 2.3538                 1.9175
 Frc consts  --      0.9121                 0.9908                 0.8779
 IR Inten    --      4.6659               117.2815                 7.5958

                     19                     20                     21
                      A                      A                      A
 Frequencies --    894.2041               931.0240               943.2874
 Red. masses --      1.9983                 2.5225                 1.4763
 Frc consts  --      0.9414                 1.2882                 0.7739
 IR Inten    --      5.0760                 4.2459                 0.4005

                     22                     23                     24
                      A                      A                      A
 Frequencies --    992.6820              1009.9908              1043.8061
 Red. masses --      1.7071                 2.8469                 2.0515
 Frc consts  --      0.9911                 1.7110                 1.3169
 IR Inten    --      9.0357                83.8499                 3.1619

                     25                     26                     27
                      A                      A                      A
 Frequencies --   1111.1088              1122.1809              1161.5539
 Red. masses --      2.0702                 5.2276                 1.7272
 Frc consts  --      1.5058                 3.8786                 1.3730
 IR Inten    --     22.9821                24.3722                 1.3182

                     28                     29                     30
                      A                      A                      A
 Frequencies --   1190.5876              1200.5761              1213.7802
 Red. masses --      1.2774                 1.5159                 2.5698
 Frc consts  --      1.0669                 1.2873                 2.2306
 IR Inten    --      6.7896                 2.5361                14.0507

                     31                     32                     33
                      A                      A                      A
 Frequencies --   1218.3267              1235.3798              1265.6852
 Red. masses --      1.6342                 1.6518                 1.2398
 Frc consts  --      1.4292                 1.4853                 1.1702
 IR Inten    --     17.8975                 4.9224                12.6538

                     34                     35                     36
                      A                      A                      A
 Frequencies --   1291.2422              1335.9851              1368.5997
 Red. masses --      1.3824                 1.3299                 1.2804
 Frc consts  --      1.3580                 1.3986                 1.4130
 IR Inten    --     25.0870                 0.9762                 0.3558

                     37                     38                     39
                      A                      A                      A
 Frequencies --   1380.3662              1393.7704              1437.4475
 Red. masses --      1.4477                 1.4959                 1.3153
 Frc consts  --      1.6252                 1.7122                 1.6013
 IR Inten    --      5.2694                19.9431                85.2920

                     40                     41                     42
                      A                      A                      A
 Frequencies --   1465.2058              1488.2121              1506.7801
 Red. masses --      3.1145                 1.2425                 1.0752
 Frc consts  --      3.9395                 1.6214                 1.4383
 IR Inten    --    270.0173                13.9167                 8.3569

                     43                     44                     45
                      A                      A                      A
 Frequencies --   1519.5599              1527.7218              1536.0661
 Red. masses --      1.0897                 1.0986                 1.0660
 Frc consts  --      1.4825                 1.5107                 1.4820
 IR Inten    --      3.1054                 4.3304                 5.5827

                     46                     47                     48
                      A                      A                      A
 Frequencies --   1551.8945              1564.6687              1777.2241
 Red. masses --      1.0829                 1.0970                 8.1082
 Frc consts  --      1.5366                 1.5823                15.0889
 IR Inten    --      1.0447                 5.6330               373.3438

                     49                     50                     51
                      A                      A                      A
 Frequencies --   3032.2741              3034.8335              3037.7564
 Red. masses --      1.0400                 1.0652                 1.0730
 Frc consts  --      5.6340                 5.7802                 5.8341
 IR Inten    --     13.2164               114.9979                 6.0082

                     52                     53                     54
                      A                      A                      A
 Frequencies --   3061.3882              3066.7697              3096.5455
 Red. masses --      1.0686                 1.0613                 1.1057
 Frc consts  --      5.9007                 5.8808                 6.2464
 IR Inten    --     17.5579                35.5956                47.1884

                     55                     56                     57
                      A                      A                      A
 Frequencies --   3117.4929              3124.4890              3140.8043
 Red. masses --      1.0972                 1.1022                 1.0944
 Frc consts  --      6.2825                 6.3397                 6.3609
 IR Inten    --     28.5635                41.4252                19.9038

                     58                     59                     60
                      A                      A                      A
 Frequencies --   3143.9534              3150.8618              3502.5949
 Red. masses --      1.1032                 1.0936                 1.0760
 Frc consts  --      6.4247                 6.3968                 7.7772
 IR Inten    --     28.0654                 9.1584                 8.6115

 - Thermochemistry -
 -------------------
 Temperature   298.150 Kelvin.  Pressure   1.00000 Atm.
 Atom     1 has atomic number  6 and mass  12.00000

 Molecular mass:   144.08988 amu.
 Principal axes and moments of inertia in atomic units:
                           1         2         3
     Eigenvalues --   869.082991805.182502539.04468
           X            0.99983  -0.01701   0.00645
           Y            0.01707   0.99981  -0.00896
           Z           -0.00630   0.00907   0.99994
 This molecule is an asymmetric top.
 Rotational symmetry number  1.
 Warning -- assumption of classical behavior for rotation
           may cause significant error
 Rotational temperatures (Kelvin)      0.09966     0.04798     0.03411
 Rotational constants (GHZ):           2.07660     0.99976     0.71080
 Zero-point vibrational energy     500273.6 (Joules/Mol)
                                  119.56826 (Kcal/Mol)
 Warning -- explicit consideration of  13 degrees of freedom as
           vibrations may cause significant error
 Vibrational temperatures:     83.91   109.38   167.00   211.35   258.49
          (Kelvin)            296.77   327.82   371.93   432.04   566.47
                              634.80   825.99   851.92   905.69  1064.84
                             1126.77  1216.14  1268.32  1286.56  1339.54
                             1357.18  1428.25  1453.15  1501.80  1598.64
                             1614.57  1671.22  1712.99  1727.36  1746.36
                             1752.90  1777.44  1821.04  1857.81  1922.18
                             1969.11  1986.04  2005.32  2068.17  2108.10
                             2141.21  2167.92  2186.31  2198.05  2210.06
                             2232.83  2251.21  2557.03  4362.77  4366.45
                             4370.65  4404.65  4412.40  4455.24  4485.38
                             4495.44  4518.92  4523.45  4533.39  5039.45

 Zero-point correction=                           0.190544 (Hartree/Particle)
 Thermal correction to Energy=                    0.200764
 Thermal correction to Enthalpy=                  0.201708
 Thermal correction to Gibbs Free Energy=         0.154393
 Sum of electronic and zero-point Energies=           -495.607940
 Sum of electronic and thermal Energies=              -495.597721
 Sum of electronic and thermal Enthalpies=            -495.596776
 Sum of electronic and thermal Free Energies=         -495.644091

                     E (Thermal)             CV                S
                      KCal/Mol        Cal/Mol-Kelvin    Cal/Mol-Kelvin
 Total                  125.981             36.887             99.582
 Electronic               0.000              0.000              0.000
 Translational            0.889              2.981             40.807
 Rotational               0.889              2.981             29.767
 Vibrational            124.204             30.925             29.008
 Vibration     1          0.596              1.974              4.513
 Vibration     2          0.599              1.965              3.991
 Vibration     3          0.608              1.936              3.165
 Vibration     4          0.617              1.906              2.712
 Vibration     5          0.629              1.867              2.332
 Vibration     6          0.641              1.831              2.076
 Vibration     7          0.651              1.799              1.896
 Vibration     8          0.667              1.748              1.672
 Vibration     9          0.693              1.673              1.415
 Vibration    10          0.761              1.484              0.986
 Vibration    11          0.801              1.380              0.823
 Vibration    12          0.930              1.087              0.496
 Vibration    13          0.950              1.049              0.463

 Optimization completed.
    -- Stationary point found.
 Normal termination of Gaussian 16 at Tue Dec  8 10:26:17 2020.

 ----------------------------------------------------------------------
 # B3LYP/6-311++G(d,p) empiricaldispersion=gd3bj scf=xqc pop=npa geom=c
 heck
 ----------------------------------------------------------------------

 --------------------------------------
 CID_115578771_JID_213_Energie_neutraal
 --------------------------------------
 Structure from the checkpoint file:  "JID_213.chk"
 Charge =  0 Multiplicity = 1

 SCF Done:  E(RB3LYP) =  -495.946696045     A.U. after   14 cycles
 Normal termination of Gaussian 16 at Tue Dec  8 10:27:55 2020.

 ----------------------------------------------------------------------
 # B3LYP/6-311++G(d,p) empiricaldispersion=gd3bj scf=xqc pop=npa geom=c
 heck
 ----------------------------------------------------------------------

 ------------------------------------
 CID_115578771_JID_213_Energie_kation
 ------------------------------------
 Structure from the checkpoint file:  "JID_213.chk"
 Charge =  1 Multiplicity = 2

 SCF Done:  E(UB3LYP) =  -495.625909816     A.U. after   23 cycles
 Normal termination of Gaussian 16 at Tue Dec  8 10:31:36 2020.
 Gaussian 16:  ES64L-G16RevA.03 25-Dec-2016

 ----------------------------------------------------------------------
 # B3LYP/6-311++G(d,p) empiricaldispersion=gd3bj scf=xqc pop=npa geom=c
 heck
 ----------------------------------------------------------------------

 -----------------------------------
 CID_115578771_JID_213_Energie_anion
 -----------------------------------
 Structure from the checkpoint file:  "JID_213.chk"
 Charge = -1 Multiplicity = 2

                         Standard orientation:
 ---------------------------------------------------------------------
 Center     Atomic      Atomic             Coordinates (Angstroms)
 Number     Number       Type             X           Y           Z
 ---------------------------------------------------------------------
      1          6           0        2.868927   -1.331168    0.185760
      2          8           0        2.150025   -0.360345   -0.565015
      3          7           0        1.717012    0.676545    0.314681
      4          6           0        0.423803    1.192742    0.038877
      5          8           0        0.254220    2.406920    0.112445
      6          7           0       -0.568623    0.296207   -0.208726
      7          6           0       -0.513768   -1.152585    0.047263
      8          6           0       -1.982231   -1.596805   -0.055967
      9          6           0       -2.772554   -0.339251    0.332758
     10          6           0       -1.952610    0.787163   -0.303101
     11          1           0        3.764137   -0.895738    0.648602
     12          1           0        3.168326   -2.093079   -0.539273
     13          1           0        2.243528   -1.779524    0.966732
     14          1           0        2.366861    1.454799    0.209388
     15          1           0       -0.106122   -1.340573    1.049807
     16          1           0        0.125941   -1.657355   -0.677414
     17          1           0       -2.212904   -1.877653   -1.090353
     18          1           0       -2.195709   -2.461156    0.579477
     19          1           0       -3.808603   -0.355503   -0.017360
     20          1           0       -2.783724   -0.221042    1.422901
     21          1           0       -2.229722    0.937339   -1.355352
     22          1           0       -2.034091    1.747048    0.208183
 ---------------------------------------------------------------------

 SCF Done:  E(UB3LYP) =  -495.932667532     A.U. after   27 cycles

 The electronic state is 2-A.
 Alpha  occ. eigenvalues --  -19.06632 -18.98537 -14.27114 -14.23669 -10.19154
 Alpha  occ. eigenvalues --  -10.11095 -10.09915 -10.09736 -10.07007 -10.06730
 Alpha  occ. eigenvalues --   -0.99226  -0.93959  -0.84284  -0.75566  -0.68738
 Alpha  occ. eigenvalues --   -0.63569  -0.57716  -0.54660  -0.49477  -0.46343
 Alpha  occ. eigenvalues --   -0.43603  -0.41508  -0.39638  -0.36890  -0.34774
 Alpha  occ. eigenvalues --   -0.34598  -0.32842  -0.32017  -0.30481  -0.29724
 Alpha  occ. eigenvalues --   -0.28032  -0.26734  -0.25303  -0.24930  -0.23310
 Alpha  occ. eigenvalues --   -0.20213  -0.17352  -0.15492  -0.14161   0.04617
 Alpha virt. eigenvalues --    0.06703   0.08271   0.08446   0.09586   0.09855
 Alpha virt. eigenvalues --    0.10327   0.11272   0.11645   0.12113   0.12419
 Alpha virt. eigenvalues --    0.13681   0.14285   0.15838   0.16046   0.17498

  Beta  occ. eigenvalues --  -19.06622 -18.98534 -14.27106 -14.23669 -10.19149
  Beta  occ. eigenvalues --  -10.11039 -10.09903 -10.09710 -10.06978 -10.06691
  Beta  occ. eigenvalues --   -0.99213  -0.93952  -0.84270  -0.75545  -0.68700
  Beta  occ. eigenvalues --   -0.63519  -0.57618  -0.54614  -0.49383  -0.46307
  Beta  occ. eigenvalues --   -0.43566  -0.41469  -0.39607  -0.36831  -0.34750
  Beta  occ. eigenvalues --   -0.34560  -0.32807  -0.31976  -0.30432  -0.29693
  Beta  occ. eigenvalues --   -0.27990  -0.26695  -0.25252  -0.24872  -0.23262
  Beta  occ. eigenvalues --   -0.20188  -0.17337  -0.15477  -0.14149
  Beta virt. eigenvalues --    0.07213   0.07883   0.09017   0.09223   0.10163
  Beta virt. eigenvalues --    0.10419   0.10893   0.11562   0.12252   0.12587
  Beta virt. eigenvalues --    0.12893   0.14110   0.14610   0.16029   0.16149

 Mulliken charges and spin densities:
               1          2
     1  C    1.473978  -1.726390
     2  O   -0.082258   0.055908
     3  N   -0.425300   0.068015
     4  C    0.037445   0.179213
     5  O   -0.410107   0.009101
     6  N   -0.079732   0.123678
     7  C   -0.271067   0.000100
     8  C    1.130176  -1.595363
     9  C   -0.342998   0.040624
    10  C    0.459403  -0.762896
    11  H   -0.483413   0.617984
    12  H   -0.435821   0.589150
    13  H   -0.680484   0.829289
    14  H    0.192557   0.111362
    15  H    0.248765  -0.064495
    16  H   -0.053689   0.263346
    17  H   -0.238572   0.394425
    18  H   -0.719706   0.889103
    19  H   -0.439547   0.606770
    20  H    0.028965   0.108472
    21  H   -0.020629   0.186638
    22  H    0.112035   0.075965
 Sum of Mulliken charges =  -1.00000   1.00000

 Dipole moment (field-independent basis, Debye):
    X=             -0.3262    Y=              4.5828    Z=             -0.7557  Tot=              4.6562
 Quadrupole moment (field-independent basis, Debye-Ang):
   XX=           -120.5683   YY=           -112.2282   ZZ=            -88.4488
   XY=              1.7382   XZ=             -3.6293   YZ=              1.9938

 Summary of Natural Population Analysis:

                                       Natural Population
                Natural  -----------------------------------------------
    Atom  No    Charge         Core      Valence    Rydberg      Total
 -----------------------------------------------------------------------
      C    1   -0.09728      0.99963     2.08731    0.01035     3.09728
      O    2   -0.22299      0.99990     3.21270    0.01038     4.22299
      N    3   -0.18385      0.99967     2.67190    0.01228     3.68385
      C    4    0.40336      0.99967     1.57481    0.02216     2.59664
      O    5   -0.33975      0.99988     3.33483    0.00504     4.33975
      N    6   -0.25728      0.99964     2.74837    0.00927     3.75728
      C    7   -0.08483      0.99962     2.07345    0.01176     3.08483
      C    8   -0.19340      0.99964     2.18523    0.00853     3.19340
      C    9   -0.19559      0.99964     2.18757    0.00838     3.19559
      C   10   -0.08137      0.99963     2.07140    0.01034     3.08137
      H   11    0.08198      0.00000     0.41570    0.00231     0.41802
      H   12    0.09326      0.00000     0.40452    0.00222     0.40674
      H   13    0.08686      0.00000     0.41038    0.00276     0.41314
      H   14    0.18214      0.00000     0.31584    0.00202     0.31786
      H   15    0.09546      0.00000     0.40266    0.00188     0.40454
      H   16    0.10622      0.00000     0.39181    0.00197     0.39378
      H   17    0.09790      0.00000     0.40027    0.00182     0.40210
      H   18    0.10763      0.00000     0.38960    0.00276     0.39237
      H   19    0.10429      0.00000     0.39411    0.00160     0.39571
      H   20    0.09656      0.00000     0.40220    0.00124     0.40344
      H   21    0.09152      0.00000     0.40733    0.00115     0.40848
      H   22    0.10915      0.00000     0.38976    0.00109     0.39085
 =======================================================================
   * Total *   -0.00000      9.99691    28.87177    0.13133    39.00000

 Normal termination of Gaussian 16 at Tue Dec  8 10:37:03 2020.
