 Gaussian 16, Revision A.03,

 -----------------------------------------------------------
 # opt freq B3LYP/6-31G(d) empiricaldispersion=gd3bj scf=xqc
 -----------------------------------------------------------

 -------------------------------
 CID_144611094_JID_5063_neutraal
 -------------------------------
 Symbolic Z-matrix:
 Charge =  0 Multiplicity = 1

 SCF Done:  E(RB3LYP) =  -636.890615988     A.U. after   15 cycles
 SCF Done:  E(RB3LYP) =  -636.892680301     A.U. after   12 cycles
 SCF Done:  E(RB3LYP) =  -636.892765046     A.U. after   10 cycles
 SCF Done:  E(RB3LYP) =  -636.892874193     A.U. after   10 cycles
 SCF Done:  E(RB3LYP) =  -636.892902844     A.U. after    9 cycles
 SCF Done:  E(RB3LYP) =  -636.892933769     A.U. after   11 cycles
 SCF Done:  E(RB3LYP) =  -636.892989607     A.U. after   12 cycles
 SCF Done:  E(RB3LYP) =  -636.892990325     A.U. after   10 cycles
 SCF Done:  E(RB3LYP) =  -636.892959516     A.U. after   12 cycles
 SCF Done:  E(RB3LYP) =  -636.893028891     A.U. after   12 cycles
 SCF Done:  E(RB3LYP) =  -636.897639956     A.U. after    9 cycles
 SCF Done:  E(RB3LYP) =  -636.897640406     A.U. after    9 cycles
 SCF Done:  E(RB3LYP) =  -636.897640479     A.U. after    8 cycles
 SCF Done:  E(RB3LYP) =  -636.897640484     A.U. after    6 cycles
 Optimization completed.
    -- Stationary point found.
 Normal termination of Gaussian 16 at Thu Dec 10 15:33:32 2020.

 --------------------------------------------------------------------
 #N Geom=AllCheck Guess=TCheck SCRF=Check GenChk RB3LYP/6-31G(d) Freq
 --------------------------------------------------------------------

 Structure from the checkpoint file:  "JID_5063.chk"
 -------------------------------
 CID_144611094_JID_5063_neutraal
 -------------------------------
 Charge =  0 Multiplicity = 1

 SCF Done:  E(RB3LYP) =  -636.897640484     A.U. after    1 cycles

  Exact polarizability: 161.747  -0.494 145.529 -16.689   9.499 114.376
 Approx polarizability: 228.793  -2.658 225.764 -37.271  22.468 172.587

                      1                      2                      3
                      A                      A                      A
 Frequencies --     12.3422                32.5508                41.3730
 Red. masses --      3.6900                 1.0332                 4.0070
 Frc consts  --      0.0003                 0.0006                 0.0040
 IR Inten    --      0.3824                 0.1247                 1.6790

                      4                      5                      6
                      A                      A                      A
 Frequencies --     46.2085                52.7209                66.1879
 Red. masses --      1.9756                 1.4488                 3.0940
 Frc consts  --      0.0025                 0.0024                 0.0080
 IR Inten    --      0.2041                 0.1217                 0.3917

                      7                      8                      9
                      A                      A                      A
 Frequencies --    126.8769               167.7002               184.3661
 Red. masses --      2.4270                 3.5931                 3.8193
 Frc consts  --      0.0230                 0.0595                 0.0765
 IR Inten    --      0.1581                 4.4172                 0.9283

                     10                     11                     12
                      A                      A                      A
 Frequencies --    207.5455               223.0350               231.5438
 Red. masses --      2.5245                 2.1041                 2.6454
 Frc consts  --      0.0641                 0.0617                 0.0836
 IR Inten    --      1.6576                 1.0402                 0.5099

                     13                     14                     15
                      A                      A                      A
 Frequencies --    261.3277               266.3873               298.5172
 Red. masses --      1.9370                 2.5700                 1.6186
 Frc consts  --      0.0779                 0.1074                 0.0850
 IR Inten    --      0.6648                 0.3306                 3.3206

                     16                     17                     18
                      A                      A                      A
 Frequencies --    338.8722               381.7010               447.9401
 Red. masses --      3.8039                 2.5809                 2.8409
 Frc consts  --      0.2574                 0.2215                 0.3359
 IR Inten    --      0.6343                 1.4540                 4.0278

                     19                     20                     21
                      A                      A                      A
 Frequencies --    504.4535               511.4524               523.8139
 Red. masses --      2.3617                 1.9279                 4.6164
 Frc consts  --      0.3541                 0.2971                 0.7463
 IR Inten    --     13.6860                28.4825                 1.0632

                     22                     23                     24
                      A                      A                      A
 Frequencies --    527.9850               541.7028               550.3515
 Red. masses --      3.1880                 3.8786                 4.0716
 Frc consts  --      0.5236                 0.6706                 0.7266
 IR Inten    --      1.8440                 2.9106                 8.8376

                     25                     26                     27
                      A                      A                      A
 Frequencies --    596.5236               655.2217               683.4667
 Red. masses --      3.0583                 2.2520                 3.2230
 Frc consts  --      0.6412                 0.5696                 0.8871
 IR Inten    --     24.4555                55.8952                 6.5989

                     28                     29                     30
                      A                      A                      A
 Frequencies --    709.0864               753.5960               851.4405
 Red. masses --      2.6368                 1.8428                 1.8431
 Frc consts  --      0.7811                 0.6166                 0.7872
 IR Inten    --      6.5127                 7.3140                 8.2181

                     31                     32                     33
                      A                      A                      A
 Frequencies --    861.5267               890.3135               898.3571
 Red. masses --      1.3703                 2.2249                 1.3169
 Frc consts  --      0.5992                 1.0391                 0.6262
 IR Inten    --     13.0636                 3.6464                 0.7890

                     34                     35                     36
                      A                      A                      A
 Frequencies --    908.9892               925.0030               946.4339
 Red. masses --      1.3377                 1.5239                 3.1727
 Frc consts  --      0.6512                 0.7682                 1.6744
 IR Inten    --      1.2780                 5.7842                 0.7862

                     37                     38                     39
                      A                      A                      A
 Frequencies --    975.0705               996.2820              1020.7611
 Red. masses --      3.3585                 1.8406                 5.3900
 Frc consts  --      1.8813                 1.0764                 3.3089
 IR Inten    --      1.2122                15.0092                 0.6820

                     40                     41                     42
                      A                      A                      A
 Frequencies --   1043.5693              1049.3245              1071.9062
 Red. masses --      1.6820                 1.5393                 1.8441
 Frc consts  --      1.0793                 0.9986                 1.2484
 IR Inten    --      2.8782                 1.9460                 2.3775

                     43                     44                     45
                      A                      A                      A
 Frequencies --   1075.4363              1076.7089              1108.4545
 Red. masses --      1.5250                 1.5157                 1.8675
 Frc consts  --      1.0392                 1.0353                 1.3519
 IR Inten    --     10.0099                 2.9576                 3.6976

                     46                     47                     48
                      A                      A                      A
 Frequencies --   1128.7939              1142.7696              1192.6679
 Red. masses --      1.8362                 2.1800                 1.4769
 Frc consts  --      1.3785                 1.6773                 1.2378
 IR Inten    --      7.1342                 8.0355                 3.8033

                     49                     50                     51
                      A                      A                      A
 Frequencies --   1205.9676              1265.3031              1281.4306
 Red. masses --      1.4254                 1.4515                 1.5996
 Frc consts  --      1.2214                 1.3692                 1.5476
 IR Inten    --      0.5724                33.6910                51.4781

                     52                     53                     54
                      A                      A                      A
 Frequencies --   1301.9252              1311.4146              1333.1795
 Red. masses --      1.7867                 1.3751                 2.3453
 Frc consts  --      1.7843                 1.3934                 2.4559
 IR Inten    --      8.2636                 2.3914                34.7626

                     55                     56                     57
                      A                      A                      A
 Frequencies --   1337.9429              1368.1144              1392.0856
 Red. masses --      1.4046                 3.5487                 1.4252
 Frc consts  --      1.4815                 3.9135                 1.6272
 IR Inten    --     46.3717                 2.4178                13.2273

                     58                     59                     60
                      A                      A                      A
 Frequencies --   1399.1046              1435.9702              1440.8158
 Red. masses --      1.4717                 1.4136                 1.2983
 Frc consts  --      1.6974                 1.7174                 1.5880
 IR Inten    --      7.7212                17.3408                12.0388

                     61                     62                     63
                      A                      A                      A
 Frequencies --   1443.5428              1445.2621              1481.7193
 Red. masses --      1.3393                 1.3173                 2.0254
 Frc consts  --      1.6444                 1.6212                 2.6200
 IR Inten    --     10.5474                 7.7154                 0.5672

                     64                     65                     66
                      A                      A                      A
 Frequencies --   1483.7388              1496.8102              1500.5679
 Red. masses --      1.7711                 1.1137                 1.9214
 Frc consts  --      2.2972                 1.4702                 2.5491
 IR Inten    --     52.3636                 3.2878                 7.7599

                     67                     68                     69
                      A                      A                      A
 Frequencies --   1512.6053              1515.1940              1516.5845
 Red. masses --      1.0763                 1.0548                 1.0529
 Frc consts  --      1.4509                 1.4267                 1.4268
 IR Inten    --      5.8451                 2.9148                 2.3804

                     70                     71                     72
                      A                      A                      A
 Frequencies --   1520.6928              1529.6774              1531.5409
 Red. masses --      1.1181                 1.0614                 1.2611
 Frc consts  --      1.5234                 1.4633                 1.7428
 IR Inten    --     16.9760                13.3931                13.5566

                     73                     74                     75
                      A                      A                      A
 Frequencies --   1538.8330              1539.8826              1664.1607
 Red. masses --      1.2577                 1.1022                 5.3742
 Frc consts  --      1.7547                 1.5399                 8.7691
 IR Inten    --      9.3589                21.1388                18.1714

                     76                     77                     78
                      A                      A                      A
 Frequencies --   1667.4936              1784.5745              3038.4437
 Red. masses --      5.6619                 7.9910                 1.0680
 Frc consts  --      9.2756                14.9940                 5.8094
 IR Inten    --     17.9955               314.9698                12.8650

                     79                     80                     81
                      A                      A                      A
 Frequencies --   3043.5890              3045.2373              3048.4214
 Red. masses --      1.0388                 1.0377                 1.0362
 Frc consts  --      5.6699                 5.6697                 5.6734
 IR Inten    --     35.7802                21.7523                22.2545

                     82                     83                     84
                      A                      A                      A
 Frequencies --   3051.1950              3057.0465              3083.9731
 Red. masses --      1.0604                 1.0668                 1.1042
 Frc consts  --      5.8167                 5.8742                 6.1875
 IR Inten    --     33.0941                37.6652                16.7036

                     85                     86                     87
                      A                      A                      A
 Frequencies --   3098.5876              3099.3342              3099.8387
 Red. masses --      1.0982                 1.0999                 1.0971
 Frc consts  --      6.2124                 6.2248                 6.2113
 IR Inten    --     16.5578                23.3751                 2.3749

                     88                     89                     90
                      A                      A                      A
 Frequencies --   3112.4636              3120.1522              3126.2789
 Red. masses --      1.0977                 1.0977                 1.1020
 Frc consts  --      6.2651                 6.2964                 6.3456
 IR Inten    --      9.3289                51.4526                14.6349

                     91                     92                     93
                      A                      A                      A
 Frequencies --   3127.8287              3128.4371              3163.8668
 Red. masses --      1.1016                 1.1013                 1.0895
 Frc consts  --      6.3496                 6.3505                 6.4254
 IR Inten    --      9.5957                47.0400                20.9080

                     94                     95                     96
                      A                      A                      A
 Frequencies --   3171.7808              3196.7955              3600.3935
 Red. masses --      1.0900                 1.0894                 1.0764
 Frc consts  --      6.4605                 6.5593                 8.2208
 IR Inten    --     18.7411                 5.7086                20.6507

 - Thermochemistry -
 -------------------
 Temperature   298.150 Kelvin.  Pressure   1.00000 Atm.
 Atom     1 has atomic number  6 and mass  12.00000

 Molecular mass:   205.14666 amu.
 Principal axes and moments of inertia in atomic units:
                           1         2         3
     Eigenvalues --  2120.299214700.482685244.72276
           X            0.99995  -0.00849   0.00440
           Y            0.00836   0.99958   0.02765
           Z           -0.00463  -0.02761   0.99961
 This molecule is an asymmetric top.
 Rotational symmetry number  1.
 Warning -- assumption of classical behavior for rotation
           may cause significant error
 Rotational temperatures (Kelvin)      0.04085     0.01843     0.01651
 Rotational constants (GHZ):           0.85117     0.38395     0.34411
 Zero-point vibrational energy     782169.1 (Joules/Mol)
                                  186.94289 (Kcal/Mol)
 Warning -- explicit consideration of  25 degrees of freedom as
           vibrations may cause significant error
 Vibrational temperatures:     17.76    46.83    59.53    66.48    75.85
          (Kelvin)             95.23   182.55   241.28   265.26   298.61
                              320.90   333.14   375.99   383.27   429.50
                              487.56   549.18   644.49   725.80   735.87
                              753.65   759.65   779.39   791.83   858.26
                              942.72   983.36  1020.22  1084.26  1225.03
                             1239.54  1280.96  1292.54  1307.83  1330.87
                             1361.71  1402.91  1433.43  1468.65  1501.46
                             1509.74  1542.23  1547.31  1549.14  1594.82
                             1624.08  1644.19  1715.98  1735.12  1820.49
                             1843.69  1873.18  1886.83  1918.15  1925.00
                             1968.41  2002.90  2013.00  2066.04  2073.01
                             2076.94  2079.41  2131.86  2134.77  2153.58
                             2158.98  2176.30  2180.03  2182.03  2187.94
                             2200.86  2203.55  2214.04  2215.55  2394.36
                             2399.15  2567.60  4371.64  4379.05  4381.42
                             4386.00  4389.99  4398.41  4437.15  4458.18
                             4459.25  4459.98  4478.14  4489.20  4498.02
                             4500.25  4501.12  4552.10  4563.49  4599.48
                             5180.16

 Zero-point correction=                           0.297912 (Hartree/Particle)
 Thermal correction to Energy=                    0.314420
 Thermal correction to Enthalpy=                  0.315364
 Thermal correction to Gibbs Free Energy=         0.250972
 Sum of electronic and zero-point Energies=           -636.599728
 Sum of electronic and thermal Energies=              -636.583220
 Sum of electronic and thermal Enthalpies=            -636.582276
 Sum of electronic and thermal Free Energies=         -636.646669

                     E (Thermal)             CV                S
                      KCal/Mol        Cal/Mol-Kelvin    Cal/Mol-Kelvin
 Total                  197.302             60.042            135.526
 Electronic               0.000              0.000              0.000
 Translational            0.889              2.981             41.860
 Rotational               0.889              2.981             32.325
 Vibrational            195.524             54.080             61.341
 Vibration     1          0.593              1.987              7.593
 Vibration     2          0.594              1.983              5.668
 Vibration     3          0.594              1.981              5.192
 Vibration     4          0.595              1.979              4.973
 Vibration     5          0.596              1.977              4.713
 Vibration     6          0.598              1.970              4.264
 Vibration     7          0.611              1.926              2.993
 Vibration     8          0.624              1.882              2.461
 Vibration     9          0.631              1.861              2.284
 Vibration    10          0.641              1.829              2.065
 Vibration    11          0.649              1.806              1.934
 Vibration    12          0.653              1.793              1.867
 Vibration    13          0.669              1.744              1.653
 Vibration    14          0.672              1.735              1.620
 Vibration    15          0.692              1.676              1.425
 Vibration    16          0.719              1.598              1.217
 Vibration    17          0.751              1.509              1.032
 Vibration    18          0.807              1.365              0.802
 Vibration    19          0.860              1.240              0.647
 Vibration    20          0.867              1.225              0.630
 Vibration    21          0.879              1.197              0.601
 Vibration    22          0.883              1.188              0.592
 Vibration    23          0.897              1.158              0.562
 Vibration    24          0.906              1.139              0.543
 Vibration    25          0.954              1.039              0.456

 Optimization completed.
    -- Stationary point found.
 Normal termination of Gaussian 16 at Thu Dec 10 15:44:30 2020.

 ----------------------------------------------------------------------
 # B3LYP/6-311++G(d,p) empiricaldispersion=gd3bj scf=xqc pop=npa geom=c
 heck
 ----------------------------------------------------------------------

 ---------------------------------------
 CID_144611094_JID_5063_Energie_neutraal
 ---------------------------------------
 Structure from the checkpoint file:  "JID_5063.chk"
 Charge =  0 Multiplicity = 1

 SCF Done:  E(RB3LYP) =  -637.074640144     A.U. after   15 cycles
 Normal termination of Gaussian 16 at Thu Dec 10 15:50:41 2020.

 ----------------------------------------------------------------------
 # B3LYP/6-311++G(d,p) empiricaldispersion=gd3bj scf=xqc pop=npa geom=c
 heck
 ----------------------------------------------------------------------

 -------------------------------------
 CID_144611094_JID_5063_Energie_kation
 -------------------------------------
 Structure from the checkpoint file:  "JID_5063.chk"
 Charge =  1 Multiplicity = 2

 SCF Done:  E(UB3LYP) =  -636.763953497     A.U. after   33 cycles
 SCF Done:  E(UB3LYP) =  -636.765432986     a.u. after   13 cycles
 Normal termination of Gaussian 16 at Thu Dec 10 18:10:58 2020.
 Gaussian 16:  ES64L-G16RevA.03 25-Dec-2016

 ----------------------------------------------------------------------
 # B3LYP/6-311++G(d,p) empiricaldispersion=gd3bj scf=xqc pop=npa geom=c
 heck
 ----------------------------------------------------------------------

 ------------------------------------
 CID_144611094_JID_5063_Energie_anion
 ------------------------------------
 Structure from the checkpoint file:  "JID_5063.chk"
 Charge = -1 Multiplicity = 2

                         Standard orientation:
 ---------------------------------------------------------------------
 Center     Atomic      Atomic             Coordinates (Angstroms)
 Number     Number       Type             X           Y           Z
 ---------------------------------------------------------------------
      1          6           0       -1.730291    1.996739   -1.187434
      2          6           0       -2.585712    0.857054   -1.748190
      3          6           0       -2.210522   -0.509094   -1.163020
      4          6           0       -2.559389   -0.603588    0.319529
      5          8           0       -3.518347   -0.012272    0.802239
      6          7           0       -1.781807   -1.424518    1.100066
      7          6           0       -0.497278   -2.008642    0.749278
      8          6           0        0.628309   -1.009901    0.517287
      9          6           0        0.578361    0.276924    1.046926
     10          6           0        1.610572    1.194668    0.809804
     11          6           0        2.704284    0.788609    0.044276
     12          6           0        2.785532   -0.504437   -0.490784
     13          6           0        1.734323   -1.390471   -0.251432
     14          6           0        3.987040   -0.923017   -1.303021
     15          6           0        1.510973    2.600750    1.348697
     16          1           0       -1.883685    2.096743   -0.107824
     17          1           0       -1.994922    2.952543   -1.653165
     18          1           0       -0.662703    1.816546   -1.361186
     19          1           0       -3.641578    1.048986   -1.533609
     20          1           0       -2.475394    0.811238   -2.838713
     21          1           0       -2.773753   -1.304393   -1.671773
     22          1           0       -1.149800   -0.712060   -1.335686
     23          1           0       -2.049103   -1.408759    2.076101
     24          1           0       -0.607425   -2.642344   -0.138668
     25          1           0       -0.229848   -2.687345    1.567571
     26          1           0       -0.286464    0.584509    1.627434
     27          1           0        3.508831    1.495031   -0.150154
     28          1           0        1.771648   -2.391305   -0.678275
     29          1           0        4.269621   -0.150253   -2.026739
     30          1           0        4.859333   -1.096500   -0.659664
     31          1           0        3.794506   -1.848917   -1.853908
     32          1           0        0.702853    3.152932    0.852569
     33          1           0        1.289477    2.602944    2.422246
     34          1           0        2.440625    3.156634    1.193571
 ---------------------------------------------------------------------

 SCF Done:  E(UB3LYP) =  -637.062698306     A.U. after   33 cycles
 SCF Done:  E(UB3LYP) =  -637.062698306     a.u. after    1 cycles

 The electronic state is 2-A.
 Alpha  occ. eigenvalues --  -18.99247 -14.23902 -10.17717 -10.11772 -10.08627
 Alpha  occ. eigenvalues --  -10.08461 -10.08424 -10.08255 -10.07735 -10.07411
 Alpha  occ. eigenvalues --  -10.06976 -10.06928 -10.06872 -10.06795 -10.06458
 Alpha  occ. eigenvalues --   -0.94334  -0.82912  -0.76439  -0.70183  -0.68669
 Alpha  occ. eigenvalues --   -0.68082  -0.61757  -0.60609  -0.58898  -0.58515
 Alpha  occ. eigenvalues --   -0.52424  -0.48929  -0.48051  -0.45658  -0.41008
 Alpha  occ. eigenvalues --   -0.40389  -0.40071  -0.37361  -0.37078  -0.34671
 Alpha  occ. eigenvalues --   -0.33952  -0.33256  -0.32242  -0.32024  -0.31701
 Alpha  occ. eigenvalues --   -0.31241  -0.30867  -0.30175  -0.30074  -0.28457
 Alpha  occ. eigenvalues --   -0.27661  -0.25420  -0.25133  -0.24854  -0.24411
 Alpha  occ. eigenvalues --   -0.24151  -0.23950  -0.16800  -0.16095  -0.14556
 Alpha  occ. eigenvalues --   -0.14406   0.04205
 Alpha virt. eigenvalues --    0.06368   0.06645   0.06996   0.07713   0.07815
 Alpha virt. eigenvalues --    0.08507   0.08706   0.09326   0.09842   0.10371
 Alpha virt. eigenvalues --    0.10598   0.11034   0.11431   0.11757   0.12303

  Beta  occ. eigenvalues --  -18.99244 -14.23884 -10.17718 -10.11739 -10.08628
  Beta  occ. eigenvalues --  -10.08442 -10.08409 -10.08238 -10.07730 -10.07391
  Beta  occ. eigenvalues --  -10.06965 -10.06895 -10.06852 -10.06772 -10.06452
  Beta  occ. eigenvalues --   -0.94328  -0.82880  -0.76407  -0.70166  -0.68636
  Beta  occ. eigenvalues --   -0.68029  -0.61726  -0.60562  -0.58841  -0.58470
  Beta  occ. eigenvalues --   -0.52396  -0.48881  -0.48002  -0.45609  -0.40963
  Beta  occ. eigenvalues --   -0.40350  -0.40026  -0.37332  -0.37053  -0.34624
  Beta  occ. eigenvalues --   -0.33927  -0.33214  -0.32204  -0.31982  -0.31657
  Beta  occ. eigenvalues --   -0.31219  -0.30834  -0.30140  -0.30051  -0.28437
  Beta  occ. eigenvalues --   -0.27629  -0.25399  -0.25108  -0.24831  -0.24383
  Beta  occ. eigenvalues --   -0.24123  -0.23907  -0.16782  -0.16079  -0.14499
  Beta  occ. eigenvalues --   -0.14308
  Beta virt. eigenvalues --    0.06333   0.07050   0.07348   0.07413   0.07896
  Beta virt. eigenvalues --    0.08123   0.08815   0.09246   0.09736   0.10148
  Beta virt. eigenvalues --    0.10449   0.10796   0.11265   0.11817   0.12119

 Mulliken charges and spin densities:
               1          2
     1  C   -0.233345  -0.252059
     2  C   -0.701247   0.124330
     3  C    0.823414  -0.580688
     4  C   -0.452436   0.201339
     5  O   -0.330248   0.019971
     6  N   -0.239139   0.112403
     7  C    1.924332  -2.476277
     8  C    0.686769  -0.189517
     9  C   -0.849239   0.362830
    10  C   -0.997634   1.509079
    11  C   -0.664364   0.392223
    12  C   -0.217471   0.483398
    13  C   -0.221697  -0.279032
    14  C    1.935056  -2.555181
    15  C    0.172172  -0.797848
    16  H    0.092503   0.076318
    17  H    0.068718   0.063981
    18  H    0.152243  -0.003630
    19  H    0.172606  -0.007713
    20  H    0.045535   0.100079
    21  H   -0.010040   0.207909
    22  H    0.306475  -0.151191
    23  H   -0.087436   0.404311
    24  H   -0.188512   0.405171
    25  H   -0.751199   0.945535
    26  H    0.213002  -0.022375
    27  H   -0.203259   0.365439
    28  H   -0.470457   0.643834
    29  H   -0.281911   0.432574
    30  H   -0.004896   0.163599
    31  H   -0.421132   0.575218
    32  H    0.135570   0.020265
    33  H   -0.110113   0.269782
    34  H   -0.292622   0.435923
 Sum of Mulliken charges =  -1.00000   1.00000

 Dipole moment (field-independent basis, Debye):
    X=             -2.5466    Y=              3.3138    Z=             -1.3965  Tot=              4.4064
 Quadrupole moment (field-independent basis, Debye-Ang):
   XX=           -162.9608   YY=           -142.8904   ZZ=           -132.7429
   XY=              0.9359   XZ=             12.6481   YZ=              1.0971

 Summary of Natural Population Analysis:

                                       Natural Population
                Natural  -----------------------------------------------
    Atom  No    Charge         Core      Valence    Rydberg      Total
 -----------------------------------------------------------------------
      C    1   -0.28867      0.99966     2.28463    0.00437     3.28867
      C    2   -0.18827      0.99964     2.18124    0.00739     3.18827
      C    3   -0.23750      0.99958     2.23002    0.00790     3.23750
      C    4    0.34702      0.99967     1.62922    0.02408     2.65298
      O    5   -0.32876      0.99988     3.32333    0.00555     4.32876
      N    6   -0.31883      0.99968     2.80779    0.01136     3.81883
      C    7   -0.09642      0.99957     2.08400    0.01285     3.09642
      C    8   -0.01703      0.99950     2.00642    0.01112     3.01703
      C    9   -0.10803      0.99945     2.09883    0.00974     3.10803
      C   10   -0.01007      0.99952     1.99998    0.01057     3.01007
      C   11   -0.10410      0.99946     2.09516    0.00948     3.10410
      C   12   -0.00446      0.99952     1.99447    0.01047     3.00446
      C   13   -0.10672      0.99946     2.09744    0.00982     3.10672
      C   14   -0.29086      0.99964     2.28599    0.00523     3.29086
      C   15   -0.29089      0.99963     2.28647    0.00479     3.29089
      H   16    0.10137      0.00000     0.39754    0.00109     0.39863
      H   17    0.09494      0.00000     0.40431    0.00076     0.40506
      H   18    0.10040      0.00000     0.39843    0.00117     0.39960
      H   19    0.10242      0.00000     0.39629    0.00129     0.39758
      H   20    0.09295      0.00000     0.40599    0.00105     0.40705
      H   21    0.11058      0.00000     0.38842    0.00100     0.38942
      H   22    0.10905      0.00000     0.38910    0.00185     0.39095
      H   23    0.19598      0.00000     0.30130    0.00271     0.30402
      H   24    0.10067      0.00000     0.39754    0.00180     0.39933
      H   25    0.11312      0.00000     0.38302    0.00387     0.38688
      H   26    0.10256      0.00000     0.39560    0.00185     0.39744
      H   27    0.09791      0.00000     0.40099    0.00110     0.40209
      H   28    0.10044      0.00000     0.39751    0.00205     0.39956
      H   29    0.10433      0.00000     0.39401    0.00167     0.39567
      H   30    0.10340      0.00000     0.39545    0.00116     0.39660
      H   31    0.10388      0.00000     0.39462    0.00150     0.39612
      H   32    0.10415      0.00000     0.39478    0.00106     0.39585
      H   33    0.10394      0.00000     0.39496    0.00110     0.39606
      H   34    0.10150      0.00000     0.39754    0.00096     0.39850
 =======================================================================
   * Total *    0.00000     14.99385    40.83241    0.17374    56.00000

 Normal termination of Gaussian 16 at Thu Dec 10 18:24:02 2020.
