 Gaussian 16, Revision A.03,

 -----------------------------------------------------------
 # opt freq B3LYP/6-31G(d) empiricaldispersion=gd3bj scf=xqc
 -----------------------------------------------------------

 -------------------------------
 CID_81111360_JID_10661_neutraal
 -------------------------------
 Symbolic Z-matrix:
 Charge =  0 Multiplicity = 1

 SCF Done:  E(RB3LYP) =  -915.127839827     A.U. after   16 cycles
 SCF Done:  E(RB3LYP) =  -915.147325862     A.U. after   14 cycles
 SCF Done:  E(RB3LYP) =  -915.149684654     A.U. after   13 cycles
 SCF Done:  E(RB3LYP) =  -915.143282793     A.U. after   15 cycles
 SCF Done:  E(RB3LYP) =  -915.150349412     A.U. after   13 cycles
 SCF Done:  E(RB3LYP) =  -915.149925536     A.U. after   13 cycles
 SCF Done:  E(RB3LYP) =  -915.150561660     A.U. after   13 cycles
 SCF Done:  E(RB3LYP) =  -915.150979191     A.U. after   13 cycles
 SCF Done:  E(RB3LYP) =  -915.151748190     A.U. after   14 cycles
 SCF Done:  E(RB3LYP) =  -915.151634742     A.U. after   16 cycles
 SCF Done:  E(RB3LYP) =  -915.154678611     A.U. after   10 cycles
 SCF Done:  E(RB3LYP) =  -915.154679955     A.U. after    9 cycles
 SCF Done:  E(RB3LYP) =  -915.154680856     A.U. after    9 cycles
 SCF Done:  E(RB3LYP) =  -915.154680904     A.U. after    7 cycles
 SCF Done:  E(RB3LYP) =  -915.154680916     A.U. after    7 cycles
 SCF Done:  E(RB3LYP) =  -915.154680915     A.U. after    6 cycles
 Optimization completed.
    -- Stationary point found.
 Normal termination of Gaussian 16 at Mon Dec 14 14:23:16 2020.

 --------------------------------------------------------------------
 #N Geom=AllCheck Guess=TCheck SCRF=Check GenChk RB3LYP/6-31G(d) Freq
 --------------------------------------------------------------------

 Structure from the checkpoint file:  "JID_10661.chk"
 -------------------------------
 CID_81111360_JID_10661_neutraal
 -------------------------------
 Charge =  0 Multiplicity = 1

 SCF Done:  E(RB3LYP) =  -915.154680916     A.U. after    1 cycles

  Exact polarizability: 255.108  -3.031 145.552 -21.136  21.403 129.882
 Approx polarizability: 390.568   2.878 231.822 -36.291  52.790 227.173

                      1                      2                      3
                      A                      A                      A
 Frequencies --     19.7797                26.3506                30.8902
 Red. masses --      1.0281                 7.2235                 4.5803
 Frc consts  --      0.0002                 0.0030                 0.0026
 IR Inten    --      0.2309                 0.0903                 0.6122

                      4                      5                      6
                      A                      A                      A
 Frequencies --     46.2219                50.9360                62.3230
 Red. masses --      5.3336                 3.9723                 8.3919
 Frc consts  --      0.0067                 0.0061                 0.0192
 IR Inten    --      0.9120                 0.7164                 2.9448

                      7                      8                      9
                      A                      A                      A
 Frequencies --     74.8497                85.2987                96.5842
 Red. masses --      4.4617                 5.7618                 6.1861
 Frc consts  --      0.0147                 0.0247                 0.0340
 IR Inten    --      0.0564                 0.8879                 2.8094

                     10                     11                     12
                      A                      A                      A
 Frequencies --    148.2675               164.9988               173.1890
 Red. masses --      3.4903                 3.8179                 4.7005
 Frc consts  --      0.0452                 0.0612                 0.0831
 IR Inten    --      5.1020                 1.5213                 4.2335

                     13                     14                     15
                      A                      A                      A
 Frequencies --    231.4961               260.8803               298.1314
 Red. masses --      3.7354                 4.3787                 4.7022
 Frc consts  --      0.1179                 0.1756                 0.2462
 IR Inten    --      0.8658                 3.2273                 1.9784

                     16                     17                     18
                      A                      A                      A
 Frequencies --    338.9762               348.5277               366.7100
 Red. masses --      4.5902                 2.0577                 3.3487
 Frc consts  --      0.3108                 0.1473                 0.2653
 IR Inten    --      4.6738                24.8946                12.4238

                     19                     20                     21
                      A                      A                      A
 Frequencies --    369.7529               382.3269               403.3187
 Red. masses --      5.2597                 3.7323                 1.8947
 Frc consts  --      0.4237                 0.3214                 0.1816
 IR Inten    --      4.2761                19.4187                62.8272

                     22                     23                     24
                      A                      A                      A
 Frequencies --    421.3555               439.4059               494.2417
 Red. masses --      3.5100                 6.0208                 4.6038
 Frc consts  --      0.3672                 0.6849                 0.6626
 IR Inten    --     12.1812                 0.8755                 5.5010

                     25                     26                     27
                      A                      A                      A
 Frequencies --    539.4680               548.6095               573.6904
 Red. masses --      2.4750                 2.7694                 3.8086
 Frc consts  --      0.4244                 0.4911                 0.7385
 IR Inten    --     12.9608                22.4215                 3.8217

                     28                     29                     30
                      A                      A                      A
 Frequencies --    589.4887               604.5541               622.2020
 Red. masses --      2.5676                 4.1955                 4.0608
 Frc consts  --      0.5257                 0.9034                 0.9262
 IR Inten    --     38.1052                 8.9447                 8.3680

                     31                     32                     33
                      A                      A                      A
 Frequencies --    654.2260               668.6978               716.0933
 Red. masses --      4.3829                 4.1711                 6.0050
 Frc consts  --      1.1053                 1.0989                 1.8143
 IR Inten    --      4.9048                27.7087                 4.3403

                     34                     35                     36
                      A                      A                      A
 Frequencies --    735.7127               789.2771               811.1712
 Red. masses --      5.3179                 5.6343                 1.4603
 Frc consts  --      1.6959                 2.0680                 0.5661
 IR Inten    --      5.1766                18.1226                13.0439

                     37                     38                     39
                      A                      A                      A
 Frequencies --    837.6603               843.6730               865.8824
 Red. masses --      4.4842                 1.3567                 2.4225
 Frc consts  --      1.8538                 0.5690                 1.0701
 IR Inten    --     17.0055                24.0146                 5.4706

                     40                     41                     42
                      A                      A                      A
 Frequencies --    880.1842               885.2198               902.5569
 Red. masses --      1.4385                 2.2055                 5.3635
 Frc consts  --      0.6566                 1.0183                 2.5742
 IR Inten    --     24.8208                 0.7315                27.0790

                     43                     44                     45
                      A                      A                      A
 Frequencies --    920.8718               926.7634               937.2683
 Red. masses --      1.4414                 3.8361                 6.4281
 Frc consts  --      0.7202                 1.9413                 3.3271
 IR Inten    --      3.9307                 0.5338                 5.4650

                     46                     47                     48
                      A                      A                      A
 Frequencies --    970.4819              1016.1872              1031.5786
 Red. masses --      1.3076                 3.1610                 1.4803
 Frc consts  --      0.7256                 1.9232                 0.9281
 IR Inten    --      0.3901                 1.6879                 6.6024

                     49                     50                     51
                      A                      A                      A
 Frequencies --   1064.3274              1065.6958              1076.1683
 Red. masses --      3.0140                 2.1207                 1.5212
 Frc consts  --      2.0116                 1.4190                 1.0380
 IR Inten    --      6.2088                58.1054                 5.7243

                     52                     53                     54
                      A                      A                      A
 Frequencies --   1098.7957              1124.1797              1149.5609
 Red. masses --      3.1642                 2.6046                 2.5075
 Frc consts  --      2.2509                 1.9393                 1.9523
 IR Inten    --     48.9630                 6.8354                27.7685

                     55                     56                     57
                      A                      A                      A
 Frequencies --   1178.8351              1209.0681              1215.6063
 Red. masses --      1.3976                 1.5775                 1.1549
 Frc consts  --      1.1443                 1.3587                 1.0055
 IR Inten    --      9.5104                15.3341                12.4725

                     58                     59                     60
                      A                      A                      A
 Frequencies --   1248.5634              1249.7754              1290.1707
 Red. masses --      2.6257                 1.2207                 2.1982
 Frc consts  --      2.4117                 1.1234                 2.1558
 IR Inten    --     12.0783                 5.1636                 7.7419

                     61                     62                     63
                      A                      A                      A
 Frequencies --   1301.6952              1316.1210              1337.5879
 Red. masses --      2.3903                 1.9772                 3.3500
 Frc consts  --      2.3863                 2.0178                 3.5313
 IR Inten    --     15.7256                32.5798                27.0060

                     64                     65                     66
                      A                      A                      A
 Frequencies --   1352.3685              1366.5002              1376.0172
 Red. masses --      3.9699                 1.5911                 2.8110
 Frc consts  --      4.2778                 1.7505                 3.1359
 IR Inten    --    102.4553                10.3119                97.5074

                     67                     68                     69
                      A                      A                      A
 Frequencies --   1416.9447              1439.1385              1443.8682
 Red. masses --      1.2096                 1.2292                 1.2513
 Frc consts  --      1.4309                 1.4999                 1.5370
 IR Inten    --      3.9108                65.5226                 1.1834

                     70                     71                     72
                      A                      A                      A
 Frequencies --   1456.3348              1488.3198              1490.7062
 Red. masses --      3.1141                 3.5181                 1.1593
 Frc consts  --      3.8914                 4.5914                 1.5178
 IR Inten    --     41.7222                 8.1439                11.4897

                     73                     74                     75
                      A                      A                      A
 Frequencies --   1514.7997              1522.6946              1524.6571
 Red. masses --      1.0470                 1.1614                 2.8752
 Frc consts  --      1.4155                 1.5865                 3.9379
 IR Inten    --      5.7727                 4.7877                65.3993

                     76                     77                     78
                      A                      A                      A
 Frequencies --   1540.4824              1542.5560              1606.6196
 Red. masses --      1.2433                 2.2797                 5.5679
 Frc consts  --      1.7384                 3.1961                 8.4677
 IR Inten    --      5.5985                29.2825                 2.5222

                     79                     80                     81
                      A                      A                      A
 Frequencies --   1667.6417              1683.2457              1775.8965
 Red. masses --      5.7700                 6.6159                 8.7547
 Frc consts  --      9.4543                11.0442                16.2677
 IR Inten    --      8.3360                24.8571               377.0290

                     82                     83                     84
                      A                      A                      A
 Frequencies --   2343.9679              3036.3577              3040.3163
 Red. masses --     11.9020                 1.0599                 1.0669
 Frc consts  --     38.5277                 5.7574                 5.8105
 IR Inten    --     11.1957                22.5445                32.9054

                     85                     86                     87
                      A                      A                      A
 Frequencies --   3046.6938              3078.1755              3100.6907
 Red. masses --      1.0387                 1.0997                 1.0994
 Frc consts  --      5.6809                 6.1393                 6.2275
 IR Inten    --     30.9254                18.5939                16.7068

                     88                     89                     90
                      A                      A                      A
 Frequencies --   3115.9654              3134.3336              3185.8408
 Red. masses --      1.1014                 1.1013                 1.0887
 Frc consts  --      6.3005                 6.3743                 6.5106
 IR Inten    --     52.5170                13.5188                12.6145

                     91                     92                     93
                      A                      A                      A
 Frequencies --   3206.0092              3213.5188              3258.1862
 Red. masses --      1.0904                 1.0938                 1.0966
 Frc consts  --      6.6035                 6.6553                 6.8586
 IR Inten    --      6.3021                 8.6313                 0.5876

                     94                     95                     96
                      A                      A                      A
 Frequencies --   3309.8863              3584.2579              3719.0769
 Red. masses --      1.0997                 1.0755                 1.0655
 Frc consts  --      7.0982                 8.1405                 8.6829
 IR Inten    --      0.7982                38.3642                16.2799

 - Thermochemistry -
 -------------------
 Temperature   298.150 Kelvin.  Pressure   1.00000 Atm.
 Atom     1 has atomic number  6 and mass  12.00000

 Molecular mass:   270.10044 amu.
 Principal axes and moments of inertia in atomic units:
                           1         2         3
     Eigenvalues --  3708.421057337.322968490.61970
           X            0.99967  -0.00506  -0.02516
           Y            0.00554   0.99981   0.01890
           Z            0.02506  -0.01904   0.99950
 This molecule is an asymmetric top.
 Rotational symmetry number  1.
 Warning -- assumption of classical behavior for rotation
           may cause significant error
 Rotational temperatures (Kelvin)      0.02336     0.01180     0.01020
 Rotational constants (GHZ):           0.48666     0.24597     0.21256
 Zero-point vibrational energy     698108.0 (Joules/Mol)
                                  166.85183 (Kcal/Mol)
 Warning -- explicit consideration of  29 degrees of freedom as
           vibrations may cause significant error
 Vibrational temperatures:     28.46    37.91    44.44    66.50    73.29
          (Kelvin)             89.67   107.69   122.73   138.96   213.32
                              237.40   249.18   333.07   375.35   428.94
                              487.71   501.45   527.61   531.99   550.08
                              580.29   606.24   632.21   711.10   776.17
                              789.33   825.41   848.14   869.82   895.21
                              941.29   962.11  1030.30  1058.53  1135.59
                             1167.09  1205.21  1213.86  1245.81  1266.39
                             1273.63  1298.58  1324.93  1333.41  1348.52
                             1396.31  1462.07  1484.21  1531.33  1533.30
                             1548.37  1580.92  1617.44  1653.96  1696.08
                             1739.58  1748.99  1796.40  1798.15  1856.27
                             1872.85  1893.60  1924.49  1945.76  1966.09
                             1979.78  2038.67  2070.60  2077.40  2095.34
                             2141.36  2144.79  2179.46  2190.82  2193.64
                             2216.41  2219.39  2311.57  2399.36  2421.82
                             2555.12  3372.45  4368.64  4374.34  4383.51
                             4428.81  4461.20  4483.18  4509.61  4583.71
                             4612.73  4623.54  4687.80  4762.19  5156.95
                             5350.92

 Zero-point correction=                           0.265895 (Hartree/Particle)
 Thermal correction to Energy=                    0.284919
 Thermal correction to Enthalpy=                  0.285864
 Thermal correction to Gibbs Free Energy=         0.215057
 Sum of electronic and zero-point Energies=           -914.888786
 Sum of electronic and thermal Energies=              -914.869762
 Sum of electronic and thermal Enthalpies=            -914.868817
 Sum of electronic and thermal Free Energies=         -914.939624

                     E (Thermal)             CV                S
                      KCal/Mol        Cal/Mol-Kelvin    Cal/Mol-Kelvin
 Total                  178.790             69.412            149.025
 Electronic               0.000              0.000              0.000
 Translational            0.889              2.981             42.680
 Rotational               0.889              2.981             33.801
 Vibrational            177.012             63.450             72.543
 Vibration     1          0.593              1.986              6.656
 Vibration     2          0.593              1.985              6.087
 Vibration     3          0.594              1.984              5.771
 Vibration     4          0.595              1.979              4.973
 Vibration     5          0.595              1.977              4.781
 Vibration     6          0.597              1.972              4.382
 Vibration     7          0.599              1.966              4.022
 Vibration     8          0.601              1.959              3.765
 Vibration     9          0.603              1.952              3.522
 Vibration    10          0.618              1.905              2.694
 Vibration    11          0.623              1.885              2.492
 Vibration    12          0.627              1.875              2.401
 Vibration    13          0.653              1.793              1.867
 Vibration    14          0.669              1.744              1.656
 Vibration    15          0.691              1.677              1.427
 Vibration    16          0.719              1.598              1.217
 Vibration    17          0.726              1.578              1.173
 Vibration    18          0.740              1.541              1.094
 Vibration    19          0.742              1.534              1.081
 Vibration    20          0.752              1.508              1.030
 Vibration    21          0.769              1.463              0.951
 Vibration    22          0.784              1.424              0.887
 Vibration    23          0.799              1.384              0.828
 Vibration    24          0.850              1.263              0.673
 Vibration    25          0.895              1.163              0.566
 Vibration    26          0.904              1.143              0.547
 Vibration    27          0.930              1.088              0.497
 Vibration    28          0.947              1.054              0.468
 Vibration    29          0.963              1.022              0.442

 Optimization completed.
    -- Stationary point found.
 Normal termination of Gaussian 16 at Mon Dec 14 14:40:34 2020.

 ----------------------------------------------------------------------
 # B3LYP/6-311++G(d,p) empiricaldispersion=gd3bj scf=xqc pop=npa geom=c
 heck
 ----------------------------------------------------------------------

 ---------------------------------------
 CID_81111360_JID_10661_Energie_neutraal
 ---------------------------------------
 Structure from the checkpoint file:  "JID_10661.chk"
 Charge =  0 Multiplicity = 1

 SCF Done:  E(RB3LYP) =  -915.414752858     A.U. after   17 cycles
 Normal termination of Gaussian 16 at Mon Dec 14 14:47:30 2020.

 ----------------------------------------------------------------------
 # B3LYP/6-311++G(d,p) empiricaldispersion=gd3bj scf=xqc pop=npa geom=c
 heck
 ----------------------------------------------------------------------

 -------------------------------------
 CID_81111360_JID_10661_Energie_kation
 -------------------------------------
 Structure from the checkpoint file:  "JID_10661.chk"
 Charge =  1 Multiplicity = 2

 SCF Done:  E(UB3LYP) =  -915.111832514     A.U. after   28 cycles
 Normal termination of Gaussian 16 at Mon Dec 14 15:03:10 2020.
 Gaussian 16:  ES64L-G16RevA.03 25-Dec-2016

 ----------------------------------------------------------------------
 # B3LYP/6-311++G(d,p) empiricaldispersion=gd3bj scf=xqc pop=npa geom=c
 heck
 ----------------------------------------------------------------------

 ------------------------------------
 CID_81111360_JID_10661_Energie_anion
 ------------------------------------
 Structure from the checkpoint file:  "JID_10661.chk"
 Charge = -1 Multiplicity = 2

                         Standard orientation:
 ---------------------------------------------------------------------
 Center     Atomic      Atomic             Coordinates (Angstroms)
 Number     Number       Type             X           Y           Z
 ---------------------------------------------------------------------
      1          6           0        4.969558   -0.907910   -0.897947
      2          6           0        3.535288   -0.902164   -0.432661
      3          6           0        2.973032    0.225588    0.166925
      4          6           0        1.636427    0.259475    0.575986
      5          6           0        0.830257   -0.891996    0.433168
      6          6           0        1.404945   -2.035350   -0.155073
      7          6           0        2.723710   -2.035440   -0.587195
      8          6           0       -0.528076   -0.944849    0.861726
      9          6           0       -1.687702   -1.009473    1.210357
     10          6           0       -3.113551   -1.102765    1.512253
     11          6           0       -3.930591   -1.397135    0.234106
     12          8           0       -3.523259   -2.601828   -0.386438
     13          6           0        1.185018    1.525348    1.244427
     14          8           0        1.845033    2.044862    2.133399
     15          7           0        0.015339    2.122751    0.815524
     16          6           0       -0.744961    1.854514   -0.325017
     17          6           0       -0.370716    1.395304   -1.554725
     18          8           0       -1.460678    1.233728   -2.332044
     19          7           0       -2.597432    1.626081   -1.623477
     20          6           0       -2.160671    1.979989   -0.438679
     21          1           0        5.496629   -0.005480   -0.575300
     22          1           0        5.031524   -0.958749   -1.992378
     23          1           0        5.511155   -1.775602   -0.504157
     24          1           0        3.580372    1.110236    0.332616
     25          1           0        0.795061   -2.926981   -0.258749
     26          1           0        3.136038   -2.932537   -1.042312
     27          1           0       -3.288614   -1.908076    2.236977
     28          1           0       -3.468128   -0.169663    1.971340
     29          1           0       -4.982254   -1.530650    0.504699
     30          1           0       -3.854699   -0.542884   -0.452891
     31          1           0       -2.596832   -2.475990   -0.650246
     32          1           0       -0.219265    2.947217    1.356062
     33          1           0        0.577354    1.117609   -1.987359
     34          1           0       -2.864266    2.316806    0.312124
 ---------------------------------------------------------------------

 SCF Done:  E(UB3LYP) =  -915.429900701     A.U. after   27 cycles

 The electronic state is 2-A.
 Alpha  occ. eigenvalues --  -19.09747 -19.02147 -18.95728 -14.25294 -14.23035
 Alpha  occ. eigenvalues --  -10.13921 -10.11724 -10.11635 -10.11002 -10.10475
 Alpha  occ. eigenvalues --  -10.08732 -10.05976 -10.05394 -10.05007 -10.04542
 Alpha  occ. eigenvalues --  -10.04448 -10.04196 -10.04020 -10.03924 -10.03504
 Alpha  occ. eigenvalues --   -1.03541  -0.92430  -0.91425  -0.81965  -0.76175
 Alpha  occ. eigenvalues --   -0.73581  -0.68404  -0.67288  -0.66378  -0.62873
 Alpha  occ. eigenvalues --   -0.61086  -0.57062  -0.53814  -0.52902  -0.51736
 Alpha  occ. eigenvalues --   -0.49394  -0.47675  -0.45583  -0.43973  -0.41027
 Alpha  occ. eigenvalues --   -0.40810  -0.38637  -0.37399  -0.36580  -0.35450
 Alpha  occ. eigenvalues --   -0.35098  -0.34624  -0.32095  -0.31765  -0.31231
 Alpha  occ. eigenvalues --   -0.30662  -0.30145  -0.29596  -0.29513  -0.28951
 Alpha  occ. eigenvalues --   -0.28350  -0.27274  -0.24688  -0.23799  -0.23453
 Alpha  occ. eigenvalues --   -0.22461  -0.21414  -0.20738  -0.18994  -0.18073
 Alpha  occ. eigenvalues --   -0.17035  -0.14680  -0.14112  -0.12471  -0.11803
 Alpha  occ. eigenvalues --   -0.10400   0.03699
 Alpha virt. eigenvalues --    0.07322   0.07738   0.07882   0.08610   0.09330
 Alpha virt. eigenvalues --    0.09718   0.10116   0.10575   0.10872   0.11387
 Alpha virt. eigenvalues --    0.11756   0.11986   0.12500   0.13586   0.14112

  Beta  occ. eigenvalues --  -19.09636 -19.02145 -18.95509 -14.25213 -14.23036
  Beta  occ. eigenvalues --  -10.13772 -10.11610 -10.11608 -10.11006 -10.10486
  Beta  occ. eigenvalues --  -10.08750 -10.05997 -10.05153 -10.05047 -10.04531
  Beta  occ. eigenvalues --  -10.04287 -10.04050 -10.03941 -10.03793 -10.03323
  Beta  occ. eigenvalues --   -1.03362  -0.92423  -0.91057  -0.81839  -0.76045
  Beta  occ. eigenvalues --   -0.73210  -0.68189  -0.67138  -0.66013  -0.62509
  Beta  occ. eigenvalues --   -0.60948  -0.56852  -0.53556  -0.52818  -0.51636
  Beta  occ. eigenvalues --   -0.49102  -0.47467  -0.45440  -0.43785  -0.40957
  Beta  occ. eigenvalues --   -0.40653  -0.38537  -0.37296  -0.36202  -0.35164
  Beta  occ. eigenvalues --   -0.34969  -0.34389  -0.31941  -0.31644  -0.30932
  Beta  occ. eigenvalues --   -0.30553  -0.30017  -0.29472  -0.29365  -0.28501
  Beta  occ. eigenvalues --   -0.28147  -0.27026  -0.23954  -0.23737  -0.23213
  Beta  occ. eigenvalues --   -0.22338  -0.21053  -0.20448  -0.18633  -0.17703
  Beta  occ. eigenvalues --   -0.16416  -0.14322  -0.13850  -0.11751  -0.11318
  Beta  occ. eigenvalues --   -0.09060
  Beta virt. eigenvalues --    0.07175   0.07689   0.08146   0.08688   0.09231
  Beta virt. eigenvalues --    0.09312   0.09901   0.10080   0.10705   0.11037
  Beta virt. eigenvalues --    0.11339   0.11737   0.12050   0.12495   0.13823

 Mulliken charges and spin densities:
               1          2
     1  C   -0.473967  -0.019742
     2  C    0.261552   0.157811
     3  C   -0.480337  -0.111318
     4  C    0.005889   0.231865
     5  C    0.493294   0.170765
     6  C   -0.259188  -0.004702
     7  C   -0.620238   0.129237
     8  C    0.260968  -0.036718
     9  C    0.085844   0.076698
    10  C   -0.413139   0.101523
    11  C   -0.363690  -0.118418
    12  O   -0.252239   0.005271
    13  C   -0.368774   0.018766
    14  O   -0.363671   0.074713
    15  N   -0.239822  -0.010710
    16  C    0.309457  -0.018898
    17  C   -0.491151   0.049830
    18  O    0.143537   0.020125
    19  N   -0.231894   0.032924
    20  C   -0.201663   0.046885
    21  H    0.122982  -0.000013
    22  H    0.116058   0.039211
    23  H    0.119259   0.012468
    24  H    0.195342   0.002802
    25  H    0.111939   0.004285
    26  H    0.119556  -0.011243
    27  H    0.144510   0.045304
    28  H    0.087891   0.021586
    29  H    0.080875   0.061110
    30  H    0.185481  -0.003191
    31  H    0.252960   0.002521
    32  H    0.285073   0.006994
    33  H    0.219673   0.001346
    34  H    0.157635   0.020913
 Sum of Mulliken charges =  -1.00000   1.00000

 Dipole moment (field-independent basis, Debye):
    X=             -1.3184    Y=              1.2365    Z=             -0.7966  Tot=              1.9753
 Quadrupole moment (field-independent basis, Debye-Ang):
   XX=           -160.5976   YY=           -139.8168   ZZ=           -142.9482
   XY=            -10.1397   XZ=            -18.6657   YZ=             -0.7525

 Summary of Natural Population Analysis:

                                       Natural Population
                Natural  -----------------------------------------------
    Atom  No    Charge         Core      Valence    Rydberg      Total
 -----------------------------------------------------------------------
      C    1   -0.29198      0.99965     2.28716    0.00518     3.29198
      C    2    0.00521      0.99955     1.98468    0.01056     2.99479
      C    3   -0.10133      0.99949     2.09442    0.00741     3.10133
      C    4   -0.02718      0.99949     2.00815    0.01954     3.02718
      C    5    0.02651      0.99946     1.95905    0.01498     2.97349
      C    6   -0.11760      0.99964     2.09987    0.01809     3.11760
      C    7   -0.05316      0.99952     2.04963    0.00401     3.05316
      C    8   -0.01599      0.99932     2.00642    0.01025     3.01599
      C    9    0.00444      0.99928     1.98797    0.00832     2.99556
      C   10   -0.23715      0.99959     2.22780    0.00976     3.23715
      C   11   -0.00410      0.99962     1.99184    0.01264     3.00410
      O   12   -0.37246      0.99990     3.36602    0.00654     4.37246
      C   13    0.36425      0.99963     1.61300    0.02312     2.63575
      O   14   -0.30202      0.99988     3.29619    0.00595     4.30202
      N   15   -0.31521      0.99964     2.80456    0.01101     3.81521
      C   16    0.01286      0.99947     1.97581    0.01186     2.98714
      C   17    0.09192      0.99949     1.89507    0.01352     2.90808
      O   18   -0.15238      0.99987     3.14355    0.00896     4.15238
      N   19   -0.07456      0.99971     2.56119    0.01366     3.57456
      C   20   -0.01812      0.99961     2.00207    0.01644     3.01812
      H   21    0.09738      0.00000     0.40180    0.00082     0.40262
      H   22    0.09900      0.00000     0.39977    0.00123     0.40100
      H   23    0.09794      0.00000     0.40085    0.00121     0.40206
      H   24    0.10011      0.00000     0.39878    0.00111     0.39989
      H   25    0.09408      0.00000     0.40349    0.00243     0.40592
      H   26    0.08606      0.00000     0.41264    0.00129     0.41394
      H   27    0.10729      0.00000     0.39065    0.00206     0.39271
      H   28    0.10493      0.00000     0.39335    0.00173     0.39507
      H   29    0.07709      0.00000     0.42103    0.00188     0.42291
      H   30    0.08568      0.00000     0.41172    0.00260     0.41432
      H   31    0.23365      0.00000     0.26331    0.00304     0.26635
      H   32    0.19273      0.00000     0.30551    0.00176     0.30727
      H   33    0.10651      0.00000     0.39254    0.00095     0.39349
      H   34    0.09962      0.00000     0.39890    0.00148     0.40038
 =======================================================================
   * Total *    0.00402     19.99178    50.74880    0.25539    70.99598

 Normal termination of Gaussian 16 at Mon Dec 14 15:17:45 2020.
