 Gaussian 16, Revision A.03,

 -----------------------------------------------------------
 # opt freq B3LYP/6-31G(d) empiricaldispersion=gd3bj scf=xqc
 -----------------------------------------------------------

 -------------------------------
 CID_66660994_JID_10047_neutraal
 -------------------------------
 Symbolic Z-matrix:
 Charge =  0 Multiplicity = 1

 SCF Done:  E(RB3LYP) =  -988.036815194     A.U. after   15 cycles
 SCF Done:  E(RB3LYP) =  -988.044750125     A.U. after   13 cycles
 SCF Done:  E(RB3LYP) =  -988.045811904     A.U. after   12 cycles
 SCF Done:  E(RB3LYP) =  -988.046110374     A.U. after   12 cycles
 SCF Done:  E(RB3LYP) =  -988.046347014     A.U. after   11 cycles
 SCF Done:  E(RB3LYP) =  -988.046465923     A.U. after   11 cycles
 SCF Done:  E(RB3LYP) =  -988.046559561     A.U. after   11 cycles
 SCF Done:  E(RB3LYP) =  -988.046632609     A.U. after   11 cycles
 SCF Done:  E(RB3LYP) =  -988.046683780     A.U. after   11 cycles
 SCF Done:  E(RB3LYP) =  -988.046708059     A.U. after   10 cycles
 SCF Done:  E(RB3LYP) =  -988.047151739     A.U. after    8 cycles
 SCF Done:  E(RB3LYP) =  -988.047151959     A.U. after    8 cycles
 SCF Done:  E(RB3LYP) =  -988.047151964     A.U. after    6 cycles
 SCF Done:  E(RB3LYP) =  -988.047151977     A.U. after    6 cycles
 Optimization completed.
    -- Stationary point found.
 Normal termination of Gaussian 16 at Mon Dec 14 17:49:41 2020.

 --------------------------------------------------------------------
 #N Geom=AllCheck Guess=TCheck SCRF=Check GenChk RB3LYP/6-31G(d) Freq
 --------------------------------------------------------------------

 Structure from the checkpoint file:  "JID_10047.chk"
 -------------------------------
 CID_66660994_JID_10047_neutraal
 -------------------------------
 Charge =  0 Multiplicity = 1

 SCF Done:  E(RB3LYP) =  -988.047151977     A.U. after    1 cycles

  Exact polarizability: 195.818 -11.213 149.368  -4.174  -6.100 125.079
 Approx polarizability: 239.110 -18.662 245.062 -11.914 -11.553 201.788

                      1                      2                      3
                      A                      A                      A
 Frequencies --     14.8306                19.7598                25.3963
 Red. masses --      4.4569                 4.1394                 3.2098
 Frc consts  --      0.0006                 0.0010                 0.0012
 IR Inten    --      3.8790                 2.0169                 1.9042

                      4                      5                      6
                      A                      A                      A
 Frequencies --     30.9520                41.8206                53.0089
 Red. masses --      3.8556                 3.9098                 5.1215
 Frc consts  --      0.0022                 0.0040                 0.0085
 IR Inten    --      0.3120                 3.0963                 0.4743

                      7                      8                      9
                      A                      A                      A
 Frequencies --     66.7999                73.5260                96.6510
 Red. masses --      1.8992                 4.2409                 5.4829
 Frc consts  --      0.0050                 0.0135                 0.0302
 IR Inten    --      0.2337                 3.7497                 0.8327

                     10                     11                     12
                      A                      A                      A
 Frequencies --    109.3942               119.5952               129.2063
 Red. masses --      4.3259                 4.0618                 2.6649
 Frc consts  --      0.0305                 0.0342                 0.0262
 IR Inten    --      0.3429                 0.2342                 1.9087

                     13                     14                     15
                      A                      A                      A
 Frequencies --    164.1978               229.3417               255.2931
 Red. masses --      5.4070                 4.9713                 4.4836
 Frc consts  --      0.0859                 0.1541                 0.1722
 IR Inten    --      0.9728                 4.2634                 0.2089

                     16                     17                     18
                      A                      A                      A
 Frequencies --    285.6513               302.9244               311.3333
 Red. masses --      1.9890                 4.9490                 3.8394
 Frc consts  --      0.0956                 0.2676                 0.2193
 IR Inten    --      9.2158                 8.1739                 1.4054

                     19                     20                     21
                      A                      A                      A
 Frequencies --    337.3826               365.7134               412.3938
 Red. masses --      3.3276                 4.1928                 2.2304
 Frc consts  --      0.2232                 0.3304                 0.2235
 IR Inten    --      1.1306                 0.0826                 6.0826

                     22                     23                     24
                      A                      A                      A
 Frequencies --    430.1733               460.4792               536.6279
 Red. masses --      2.5321                 3.5719                 4.8053
 Frc consts  --      0.2761                 0.4462                 0.8153
 IR Inten    --      1.0464                19.6821                 9.7424

                     25                     26                     27
                      A                      A                      A
 Frequencies --    541.4101               568.1455               576.3925
 Red. masses --      1.1290                 3.6966                 1.3573
 Frc consts  --      0.1950                 0.7030                 0.2657
 IR Inten    --     86.2176                14.4533                99.6897

                     28                     29                     30
                      A                      A                      A
 Frequencies --    615.0292               626.2030               635.3121
 Red. masses --      3.5839                 2.4961                 5.6444
 Frc consts  --      0.7987                 0.5767                 1.3423
 IR Inten    --      7.1924                 3.5273                 8.5226

                     31                     32                     33
                      A                      A                      A
 Frequencies --    658.5142               688.2429               702.8431
 Red. masses --      3.6505                 4.8055                 5.5102
 Frc consts  --      0.9327                 1.3411                 1.6037
 IR Inten    --      4.8213                13.3109                30.5753

                     34                     35                     36
                      A                      A                      A
 Frequencies --    755.6065               776.0273               788.5836
 Red. masses --      7.1946                 8.0688                 3.8086
 Frc consts  --      2.4202                 2.8629                 1.3954
 IR Inten    --      5.7216                45.0491                29.0654

                     37                     38                     39
                      A                      A                      A
 Frequencies --    808.1411               823.6008               850.6894
 Red. masses --      2.4544                 2.7593                 1.6457
 Frc consts  --      0.9444                 1.1028                 0.7017
 IR Inten    --      6.6541                 6.0078                21.2522

                     40                     41                     42
                      A                      A                      A
 Frequencies --    853.1452               870.9432               912.6828
 Red. masses --      2.0280                 1.7084                 1.9007
 Frc consts  --      0.8697                 0.7635                 0.9328
 IR Inten    --     56.0914                83.0611                 8.0040

                     43                     44                     45
                      A                      A                      A
 Frequencies --    920.9564               936.1925               959.6445
 Red. masses --      3.1172                 2.4753                 2.2595
 Frc consts  --      1.5578                 1.2782                 1.2260
 IR Inten    --     19.2412                26.3802                 7.3944

                     46                     47                     48
                      A                      A                      A
 Frequencies --    964.6661               988.8980              1027.7315
 Red. masses --      3.1580                 5.1354                 2.4231
 Frc consts  --      1.7315                 2.9589                 1.5079
 IR Inten    --     35.1143                41.2045                 4.1301

                     49                     50                     51
                      A                      A                      A
 Frequencies --   1032.1943              1055.0618              1067.0421
 Red. masses --      2.9027                 1.5454                 2.2978
 Frc consts  --      1.8221                 1.0136                 1.5414
 IR Inten    --      3.3527                 3.8385                26.9767

                     52                     53                     54
                      A                      A                      A
 Frequencies --   1070.9220              1104.2519              1111.5412
 Red. masses --      2.4516                 2.6589                 2.6138
 Frc consts  --      1.6566                 1.9102                 1.9027
 IR Inten    --      3.7238                11.7443                21.5037

                     55                     56                     57
                      A                      A                      A
 Frequencies --   1131.4825              1140.4873              1157.1425
 Red. masses --      3.4776                 1.5420                 1.2956
 Frc consts  --      2.6232                 1.1817                 1.0221
 IR Inten    --     42.6709                14.1688                 6.4390

                     58                     59                     60
                      A                      A                      A
 Frequencies --   1173.5019              1187.9003              1194.4638
 Red. masses --      2.1440                 1.4553                 2.2118
 Frc consts  --      1.7396                 1.2099                 1.8593
 IR Inten    --     69.7903               214.2929                18.8478

                     61                     62                     63
                      A                      A                      A
 Frequencies --   1244.1906              1260.4340              1279.7491
 Red. masses --      1.2946                 1.6386                 4.7577
 Frc consts  --      1.1807                 1.5337                 4.5909
 IR Inten    --     12.3058                87.3755                12.9665

                     64                     65                     66
                      A                      A                      A
 Frequencies --   1297.6777              1318.6307              1334.1736
 Red. masses --      1.4352                 1.3891                 1.8335
 Frc consts  --      1.4239                 1.4231                 1.9229
 IR Inten    --      0.8406                17.1551                84.4272

                     67                     68                     69
                      A                      A                      A
 Frequencies --   1343.5082              1351.7635              1357.8356
 Red. masses --      1.3831                 1.3340                 1.2870
 Frc consts  --      1.4709                 1.4361                 1.3980
 IR Inten    --     38.9564                 7.8996                 0.7366

                     70                     71                     72
                      A                      A                      A
 Frequencies --   1374.9910              1382.3304              1398.5359
 Red. masses --      1.7521                 1.2992                 1.3976
 Frc consts  --      1.9517                 1.4627                 1.6106
 IR Inten    --     53.4404                10.1909                14.4600

                     73                     74                     75
                      A                      A                      A
 Frequencies --   1407.7463              1430.3333              1454.4588
 Red. masses --      1.3687                 1.4097                 3.9724
 Frc consts  --      1.5981                 1.6993                 4.9512
 IR Inten    --     14.9871                 8.6215                33.6032

                     76                     77                     78
                      A                      A                      A
 Frequencies --   1483.7970              1485.9818              1488.2519
 Red. masses --      1.8800                 1.1701                 1.3121
 Frc consts  --      2.4387                 1.5222                 1.7122
 IR Inten    --      7.1723                11.3344                32.9433

                     79                     80                     81
                      A                      A                      A
 Frequencies --   1491.6795              1498.0181              1515.9788
 Red. masses --      1.3844                 1.5644                 1.6913
 Frc consts  --      1.8149                 2.0684                 2.2901
 IR Inten    --      5.9208               128.5031                59.7982

                     82                     83                     84
                      A                      A                      A
 Frequencies --   1521.2528              1522.6978              1526.4756
 Red. masses --      1.0870                 1.4667                 1.1214
 Frc consts  --      1.4822                 2.0036                 1.5396
 IR Inten    --      0.0883                12.1450                17.4926

                     85                     86                     87
                      A                      A                      A
 Frequencies --   1533.5009              1542.3215              1554.4874
 Red. masses --      1.2225                 1.1988                 1.2046
 Frc consts  --      1.6938                 1.6801                 1.7151
 IR Inten    --     32.9942                18.3394                51.2556

                     88                     89                     90
                      A                      A                      A
 Frequencies --   1646.7388              1792.9119              1808.2400
 Red. masses --      7.7355                 8.6863                 8.2669
 Frc consts  --     12.3591                16.4513                15.9259
 IR Inten    --     10.4984               308.9580               442.3052

                     91                     92                     93
                      A                      A                      A
 Frequencies --   3040.6120              3043.0054              3047.3999
 Red. masses --      1.0837                 1.0436                 1.0682
 Frc consts  --      5.9031                 5.6936                 5.8449
 IR Inten    --     32.4844                49.1774                28.0939

                     94                     95                     96
                      A                      A                      A
 Frequencies --   3057.3322              3060.8790              3064.0206
 Red. masses --      1.0681                 1.0656                 1.0651
 Frc consts  --      5.8823                 5.8824                 5.8917
 IR Inten    --      1.6062                33.4177                36.1557

                     97                     98                     99
                      A                      A                      A
 Frequencies --   3099.0628              3105.4693              3105.9796
 Red. masses --      1.1023                 1.0976                 1.0619
 Frc consts  --      6.2375                 6.2366                 6.0358
 IR Inten    --     21.8797                27.0237                14.4155

                    100                    101                    102
                      A                      A                      A
 Frequencies --   3119.8886              3122.0893              3155.0220
 Red. masses --      1.1012                 1.1016                 1.0950
 Frc consts  --      6.3151                 6.3264                 6.4222
 IR Inten    --     42.4993                32.1890                 8.4811

                    103                    104                    105
                      A                      A                      A
 Frequencies --   3164.6753              3166.1142              3306.6624
 Red. masses --      1.1045                 1.0992                 1.0988
 Frc consts  --      6.5172                 6.4919                 7.0786
 IR Inten    --      1.6827                12.3967                 1.8963

                    106                    107                    108
                      A                      A                      A
 Frequencies --   3460.6649              3601.6160              3736.8079
 Red. masses --      1.0742                 1.0758                 1.0647
 Frc consts  --      7.5797                 8.2221                 8.7593
 IR Inten    --      3.0176                32.4828                95.2189

 - Thermochemistry -
 -------------------
 Temperature   298.150 Kelvin.  Pressure   1.00000 Atm.
 Atom     1 has atomic number  6 and mass  12.00000

 Molecular mass:   282.13281 amu.
 Principal axes and moments of inertia in atomic units:
                           1         2         3
     Eigenvalues --  2405.98689********************
           X            0.99983  -0.01706   0.00707
           Y            0.01716   0.99976  -0.01378
           Z           -0.00683   0.01390   0.99988
 This molecule is an asymmetric top.
 Rotational symmetry number  1.
 Warning -- assumption of classical behavior for rotation
           may cause significant error
 Rotational temperatures (Kelvin)      0.03600     0.00691     0.00638
 Rotational constants (GHZ):           0.75010     0.14408     0.13296
 Zero-point vibrational energy     826942.8 (Joules/Mol)
                                  197.64407 (Kcal/Mol)
 Warning -- explicit consideration of  28 degrees of freedom as
           vibrations may cause significant error
 Vibrational temperatures:     21.34    28.43    36.54    44.53    60.17
          (Kelvin)             76.27    96.11   105.79   139.06   157.39
                              172.07   185.90   236.24   329.97   367.31
                              410.99   435.84   447.94   485.42   526.18
                              593.34   618.92   662.53   772.09   778.97
                              817.43   829.30   884.89   900.97   914.07
                              947.46   990.23  1011.23  1087.15  1116.53
                             1134.60  1162.73  1184.98  1223.95  1227.49
                             1253.09  1313.15  1325.05  1346.97  1380.71
                             1387.94  1422.80  1478.68  1485.10  1518.00
                             1535.24  1540.82  1588.77  1599.26  1627.95
                             1640.91  1664.87  1688.41  1709.12  1718.57
                             1790.11  1813.48  1841.27  1867.07  1897.22
                             1919.58  1933.01  1944.89  1953.62  1978.31
                             1988.87  2012.18  2025.43  2057.93  2092.64
                             2134.85  2138.00  2141.26  2146.19  2155.31
                             2181.16  2188.74  2190.82  2196.26  2206.37
                             2219.06  2236.56  2369.29  2579.60  2601.65
                             4374.76  4378.21  4384.53  4398.82  4403.92
                             4408.44  4458.86  4468.08  4468.81  4488.82
                             4491.99  4539.37  4553.26  4555.33  4757.55
                             4979.12  5181.92  5376.43

 Zero-point correction=                           0.314966 (Hartree/Particle)
 Thermal correction to Energy=                    0.334837
 Thermal correction to Enthalpy=                  0.335781
 Thermal correction to Gibbs Free Energy=         0.261125
 Sum of electronic and zero-point Energies=           -987.732186
 Sum of electronic and thermal Energies=              -987.712315
 Sum of electronic and thermal Enthalpies=            -987.711371
 Sum of electronic and thermal Free Energies=         -987.786027

                     E (Thermal)             CV                S
                      KCal/Mol        Cal/Mol-Kelvin    Cal/Mol-Kelvin
 Total                  210.113             71.447            157.127
 Electronic               0.000              0.000              0.000
 Translational            0.889              2.981             42.810
 Rotational               0.889              2.981             34.369
 Vibrational            208.336             65.486             79.948
 Vibration     1          0.593              1.986              7.228
 Vibration     2          0.593              1.986              6.658
 Vibration     3          0.593              1.985              6.160
 Vibration     4          0.594              1.984              5.767
 Vibration     5          0.594              1.980              5.171
 Vibration     6          0.596              1.976              4.702
 Vibration     7          0.598              1.970              4.246
 Vibration     8          0.599              1.966              4.057
 Vibration     9          0.603              1.952              3.521
 Vibration    10          0.606              1.942              3.280
 Vibration    11          0.609              1.933              3.107
 Vibration    12          0.612              1.924              2.958
 Vibration    13          0.623              1.886              2.501
 Vibration    14          0.652              1.796              1.884
 Vibration    15          0.666              1.754              1.694
 Vibration    16          0.683              1.700              1.500
 Vibration    17          0.694              1.668              1.401
 Vibration    18          0.700              1.652              1.355
 Vibration    19          0.718              1.601              1.225
 Vibration    20          0.739              1.543              1.098
 Vibration    21          0.776              1.443              0.918
 Vibration    22          0.791              1.405              0.858
 Vibration    23          0.818              1.338              0.765
 Vibration    24          0.892              1.169              0.573
 Vibration    25          0.896              1.159              0.562
 Vibration    26          0.924              1.100              0.508
 Vibration    27          0.933              1.082              0.492
 Vibration    28          0.975              1.000              0.425

 Optimization completed.
    -- Stationary point found.
 Normal termination of Gaussian 16 at Mon Dec 14 18:05:52 2020.

 ----------------------------------------------------------------------
 # B3LYP/6-311++G(d,p) empiricaldispersion=gd3bj scf=xqc pop=npa geom=c
 heck
 ----------------------------------------------------------------------

 ---------------------------------------
 CID_66660994_JID_10047_Energie_neutraal
 ---------------------------------------
 Structure from the checkpoint file:  "JID_10047.chk"
 Charge =  0 Multiplicity = 1

 SCF Done:  E(RB3LYP) =  -988.340450777     A.U. after   17 cycles
 Normal termination of Gaussian 16 at Mon Dec 14 18:13:08 2020.

 ----------------------------------------------------------------------
 # B3LYP/6-311++G(d,p) empiricaldispersion=gd3bj scf=xqc pop=npa geom=c
 heck
 ----------------------------------------------------------------------

 -------------------------------------
 CID_66660994_JID_10047_Energie_kation
 -------------------------------------
 Structure from the checkpoint file:  "JID_10047.chk"
 Charge =  1 Multiplicity = 2

 SCF Done:  E(UB3LYP) =  -988.033627963     A.U. after   33 cycles
 SCF Done:  E(UB3LYP) =  -988.033627963     a.u. after    3 cycles
 Normal termination of Gaussian 16 at Mon Dec 14 19:08:35 2020.
 Gaussian 16:  ES64L-G16RevA.03 25-Dec-2016

 ----------------------------------------------------------------------
 # B3LYP/6-311++G(d,p) empiricaldispersion=gd3bj scf=xqc pop=npa geom=c
 heck
 ----------------------------------------------------------------------

 ------------------------------------
 CID_66660994_JID_10047_Energie_anion
 ------------------------------------
 Structure from the checkpoint file:  "JID_10047.chk"
 Charge = -1 Multiplicity = 2

                         Standard orientation:
 ---------------------------------------------------------------------
 Center     Atomic      Atomic             Coordinates (Angstroms)
 Number     Number       Type             X           Y           Z
 ---------------------------------------------------------------------
      1          6           0       -5.294689    0.867869   -1.066974
      2          7           0       -5.316628    0.173059    0.209791
      3          6           0       -4.378539   -0.668212    0.739880
      4          8           0       -4.587445   -1.335797    1.741832
      5          6           0       -3.042158   -0.688044    0.049325
      6          7           0       -2.478284   -1.846781   -0.225949
      7          8           0       -1.234835   -1.526211   -0.773306
      8          6           0       -1.085413   -0.181040   -0.805741
      9          6           0       -2.203069    0.411090   -0.301182
     10          6           0        0.231633    0.348776   -1.280698
     11          7           0        1.119929    0.684323   -0.169399
     12          6           0        1.909562   -0.398071    0.429646
     13          6           0        3.164393   -0.732878   -0.379835
     14          6           0        4.034855   -1.821534    0.309905
     15          6           0        5.377347   -1.103353    0.595258
     16          7           0        5.504244   -0.029493   -0.399529
     17          6           0        4.132488    0.479069   -0.532481
     18          6           0        0.923645    1.903358    0.405683
     19          8           0        0.121817    2.739312    0.013138
     20          8           0        1.738485    2.120720    1.475378
     21          1           0       -4.521359    0.444064   -1.709024
     22          1           0       -5.098560    1.941498   -0.950279
     23          1           0       -6.258723    0.743897   -1.570562
     24          1           0       -6.179069    0.179070    0.740173
     25          1           0       -2.375538    1.467465   -0.168565
     26          1           0        0.723797   -0.401876   -1.903704
     27          1           0        0.071647    1.249646   -1.873629
     28          1           0        2.189256   -0.092727    1.438572
     29          1           0        1.262845   -1.279613    0.520200
     30          1           0        2.860649   -1.085048   -1.373514
     31          1           0        4.188106   -2.674217   -0.359840
     32          1           0        3.568402   -2.210428    1.222643
     33          1           0        5.352046   -0.641599    1.590774
     34          1           0        6.245223   -1.768220    0.562459
     35          1           0        5.779188   -0.450133   -1.287706
     36          1           0        4.008359    1.014780   -1.477481
     37          1           0        3.949667    1.196728    0.276906
     38          1           0        1.504734    3.012588    1.785136
 ---------------------------------------------------------------------

 SCF Done:  E(UB3LYP) =  -988.339294715     A.U. after   33 cycles
 SCF Done:  E(UB3LYP) =  -988.339294715     a.u. after    1 cycles

 The electronic state is 2-A.
 Alpha  occ. eigenvalues --  -19.09676 -19.09026 -19.01607 -18.98664 -14.26604
 Alpha  occ. eigenvalues --  -14.24482 -14.24299 -14.21156 -10.24078 -10.17657
 Alpha  occ. eigenvalues --  -10.13391 -10.13272 -10.12440 -10.11865 -10.10750
 Alpha  occ. eigenvalues --  -10.10365 -10.10099 -10.09122 -10.08449 -10.07775
 Alpha  occ. eigenvalues --   -1.03643  -1.03341  -0.94018  -0.93533  -0.86883
 Alpha  occ. eigenvalues --   -0.83399  -0.82970  -0.76552  -0.71230  -0.69673
 Alpha  occ. eigenvalues --   -0.64591  -0.63719  -0.62225  -0.60338  -0.55962
 Alpha  occ. eigenvalues --   -0.53103  -0.52087  -0.50017  -0.48551  -0.46589
 Alpha  occ. eigenvalues --   -0.44567  -0.42720  -0.42329  -0.41432  -0.40300
 Alpha  occ. eigenvalues --   -0.39193  -0.38483  -0.37608  -0.36722  -0.36315
 Alpha  occ. eigenvalues --   -0.36021  -0.35260  -0.34691  -0.34082  -0.33816
 Alpha  occ. eigenvalues --   -0.32026  -0.31373  -0.30429  -0.29953  -0.29462
 Alpha  occ. eigenvalues --   -0.29146  -0.28247  -0.27436  -0.26376  -0.25710
 Alpha  occ. eigenvalues --   -0.24508  -0.23917  -0.20682  -0.20267  -0.20011
 Alpha  occ. eigenvalues --   -0.17554  -0.16664  -0.16196  -0.15599  -0.15000
 Alpha  occ. eigenvalues --    0.03507
 Alpha virt. eigenvalues --    0.04778   0.05659   0.05876   0.06911   0.07986
 Alpha virt. eigenvalues --    0.08274   0.08527   0.08824   0.09488   0.09869
 Alpha virt. eigenvalues --    0.10099   0.10834   0.11445   0.11557   0.11896

  Beta  occ. eigenvalues --  -19.09475 -19.09014 -19.01601 -18.98595 -14.26583
  Beta  occ. eigenvalues --  -14.24465 -14.23962 -14.21136 -10.24076 -10.17605
  Beta  occ. eigenvalues --  -10.13392 -10.13137 -10.12437 -10.11828 -10.10738
  Beta  occ. eigenvalues --  -10.10337 -10.10085 -10.09109 -10.08437 -10.07815
  Beta  occ. eigenvalues --   -1.03383  -1.03203  -0.93891  -0.93514  -0.86846
  Beta  occ. eigenvalues --   -0.83364  -0.82900  -0.76169  -0.71100  -0.69577
  Beta  occ. eigenvalues --   -0.64546  -0.63632  -0.62136  -0.60309  -0.55764
  Beta  occ. eigenvalues --   -0.53001  -0.52028  -0.49927  -0.48508  -0.46515
  Beta  occ. eigenvalues --   -0.44435  -0.42614  -0.42261  -0.41394  -0.40219
  Beta  occ. eigenvalues --   -0.39085  -0.38373  -0.37477  -0.36512  -0.36218
  Beta  occ. eigenvalues --   -0.35959  -0.34834  -0.34639  -0.33922  -0.33764
  Beta  occ. eigenvalues --   -0.31942  -0.31310  -0.30373  -0.29885  -0.29241
  Beta  occ. eigenvalues --   -0.29095  -0.28050  -0.27389  -0.26348  -0.25674
  Beta  occ. eigenvalues --   -0.24479  -0.23885  -0.20616  -0.19849  -0.19343
  Beta  occ. eigenvalues --   -0.17379  -0.16465  -0.15911  -0.15019  -0.14819
  Beta virt. eigenvalues --    0.05577   0.05946   0.06133   0.07214   0.07566
  Beta virt. eigenvalues --    0.08240   0.08474   0.08752   0.09156   0.09755
  Beta virt. eigenvalues --    0.10069   0.10252   0.10952   0.11539   0.11655

 Mulliken charges and spin densities:
               1          2
     1  C    0.165120  -0.574983
     2  N   -0.301611   0.053748
     3  C    0.268130  -0.065161
     4  O   -0.357330   0.024932
     5  C   -0.126152  -0.117044
     6  N   -0.312637   0.181970
     7  O    0.181073   0.037423
     8  C   -0.047098  -0.054624
     9  C    0.002079   0.091751
    10  C   -0.166620  -0.209965
    11  N    0.275043   0.015741
    12  C   -1.661592   0.173742
    13  C    0.761101   0.182144
    14  C   -0.436610  -0.030276
    15  C    0.147374  -0.608275
    16  N   -0.092341   0.081589
    17  C    0.108734  -0.845203
    18  C    0.257251  -0.104744
    19  O   -0.335492  -0.003465
    20  O   -0.218233   0.007279
    21  H    0.152813   0.041059
    22  H    0.058344   0.095527
    23  H   -0.387194   0.535173
    24  H    0.147852   0.170996
    25  H    0.190773   0.028392
    26  H    0.070608   0.140341
    27  H    0.165962   0.076992
    28  H    0.133497   0.090187
    29  H    0.196012   0.007137
    30  H   -0.077398   0.240767
    31  H   -0.136437   0.292384
    32  H    0.135185   0.006334
    33  H    0.096793   0.047794
    34  H   -0.061323   0.237488
    35  H   -0.092571   0.329662
    36  H   -0.100494   0.272581
    37  H    0.179349   0.057315
    38  H    0.218038   0.093291
 Sum of Mulliken charges =  -1.00000   1.00000

 Dipole moment (field-independent basis, Debye):
    X=              2.0207    Y=              3.2983    Z=              0.7824  Tot=              3.9465
 Quadrupole moment (field-independent basis, Debye-Ang):
   XX=           -244.9266   YY=           -156.4758   ZZ=           -143.6905
   XY=             -8.4438   XZ=             16.8876   YZ=              5.1203

 Summary of Natural Population Analysis:

                                       Natural Population
                Natural  -----------------------------------------------
    Atom  No    Charge         Core      Valence    Rydberg      Total
 -----------------------------------------------------------------------
      C    1   -0.18157      0.99965     2.17377    0.00814     3.18157
      N    2   -0.31556      0.99968     2.80654    0.00934     3.81556
      C    3    0.33650      0.99962     1.64130    0.02258     2.66350
      O    4   -0.30485      0.99988     3.29937    0.00560     4.30485
      C    5    0.02644      0.99956     1.95856    0.01544     2.97356
      N    6   -0.01812      0.99968     2.50659    0.01186     3.51812
      O    7   -0.15288      0.99985     3.14382    0.00922     4.15288
      C    8    0.17760      0.99949     1.80939    0.01351     2.82240
      C    9   -0.17450      0.99944     2.16807    0.00699     3.17450
      C   10   -0.11016      0.99956     2.09879    0.01180     3.11016
      N   11   -0.25535      0.99963     2.74516    0.01056     3.75535
      C   12   -0.08331      0.99957     2.07386    0.00987     3.08331
      C   13   -0.12727      0.99959     2.11659    0.01108     3.12727
      C   14   -0.20063      0.99963     2.19230    0.00870     3.20063
      C   15   -0.09207      0.99964     2.08121    0.01122     3.09207
      N   16   -0.33314      0.99977     2.82061    0.01277     3.83314
      C   17   -0.09317      0.99962     2.08121    0.01235     3.09317
      C   18    0.46169      0.99967     1.51431    0.02432     2.53831
      O   19   -0.34101      0.99987     3.33537    0.00578     4.34101
      O   20   -0.35267      0.99987     3.34710    0.00569     4.35267
      H   21    0.10642      0.00000     0.39254    0.00104     0.39358
      H   22    0.08969      0.00000     0.40933    0.00098     0.41031
      H   23    0.09719      0.00000     0.40104    0.00176     0.40281
      H   24    0.19155      0.00000     0.30566    0.00279     0.30845
      H   25    0.12017      0.00000     0.37887    0.00096     0.37983
      H   26    0.10872      0.00000     0.38972    0.00155     0.39128
      H   27    0.11956      0.00000     0.37947    0.00096     0.38044
      H   28    0.10830      0.00000     0.39038    0.00131     0.39170
      H   29    0.10344      0.00000     0.39520    0.00136     0.39656
      H   30    0.09917      0.00000     0.39892    0.00190     0.40083
      H   31    0.10128      0.00000     0.39743    0.00129     0.39872
      H   32    0.09810      0.00000     0.40108    0.00082     0.40190
      H   33    0.08669      0.00000     0.41204    0.00127     0.41331
      H   34    0.09680      0.00000     0.40219    0.00101     0.40320
      H   35    0.17074      0.00000     0.32608    0.00318     0.32926
      H   36    0.09983      0.00000     0.39902    0.00115     0.40017
      H   37    0.09310      0.00000     0.40527    0.00164     0.40690
      H   38    0.24328      0.00000     0.25339    0.00333     0.25672
 =======================================================================
   * Total *    0.00000     19.99329    54.75157    0.25514    75.00000

 Normal termination of Gaussian 16 at Mon Dec 14 19:27:48 2020.
