 Gaussian 16, Revision A.03,

 -----------------------------------------------------------
 # opt freq B3LYP/6-31G(d) empiricaldispersion=gd3bj scf=xqc
 -----------------------------------------------------------

 -------------------------------
 CID_112571382_JID_2240_neutraal
 -------------------------------
 Symbolic Z-matrix:
 Charge =  0 Multiplicity = 1

 SCF Done:  E(RB3LYP) =  -486.577780092     A.U. after   12 cycles
 SCF Done:  E(RB3LYP) =  -486.584875445     A.U. after   11 cycles
 SCF Done:  E(RB3LYP) =  -486.584157973     A.U. after   10 cycles
 SCF Done:  E(RB3LYP) =  -486.585337527     A.U. after   11 cycles
 SCF Done:  E(RB3LYP) =  -486.585743569     A.U. after   10 cycles
 SCF Done:  E(RB3LYP) =  -486.585811746     A.U. after   10 cycles
 SCF Done:  E(RB3LYP) =  -486.585995916     A.U. after   10 cycles
 SCF Done:  E(RB3LYP) =  -486.586233024     A.U. after   11 cycles
 SCF Done:  E(RB3LYP) =  -486.586420831     A.U. after   11 cycles
 SCF Done:  E(RB3LYP) =  -486.586399471     A.U. after   11 cycles
 SCF Done:  E(RB3LYP) =  -486.587354218     A.U. after    9 cycles
 SCF Done:  E(RB3LYP) =  -486.587357709     A.U. after    8 cycles
 SCF Done:  E(RB3LYP) =  -486.587359942     A.U. after    8 cycles
 SCF Done:  E(RB3LYP) =  -486.587360350     A.U. after    8 cycles
 SCF Done:  E(RB3LYP) =  -486.587360354     A.U. after    6 cycles
 SCF Done:  E(RB3LYP) =  -486.587360358     A.U. after    6 cycles
 Optimization completed.
    -- Stationary point found.
 Normal termination of Gaussian 16 at Wed Dec  9 17:08:35 2020.

 --------------------------------------------------------------------
 #N Geom=AllCheck Guess=TCheck SCRF=Check GenChk RB3LYP/6-31G(d) Freq
 --------------------------------------------------------------------

 Structure from the checkpoint file:  "JID_2240.chk"
 -------------------------------
 CID_112571382_JID_2240_neutraal
 -------------------------------
 Charge =  0 Multiplicity = 1

 SCF Done:  E(RB3LYP) =  -486.587360358     A.U. after    1 cycles

  Exact polarizability: 124.364   1.101 118.376   0.878  -1.601 105.057
 Approx polarizability: 158.908  -0.325 161.585   0.144   0.213 161.671

                      1                      2                      3
                      A                      A                      A
 Frequencies --     36.8125                69.7928               100.4036
 Red. masses --      2.3732                 2.6408                 2.9874
 Frc consts  --      0.0019                 0.0076                 0.0177
 IR Inten    --      0.2992                 0.0564                 0.7416

                      4                      5                      6
                      A                      A                      A
 Frequencies --    126.4162               158.6937               193.0398
 Red. masses --      2.7609                 2.1220                 2.4262
 Frc consts  --      0.0260                 0.0315                 0.0533
 IR Inten    --      2.6657                 0.4137                 0.9630

                      7                      8                      9
                      A                      A                      A
 Frequencies --    214.9786               244.1014               278.2852
 Red. masses --      2.3682                 1.4792                 2.0790
 Frc consts  --      0.0645                 0.0519                 0.0949
 IR Inten    --      0.4841                 0.4362                 0.3845

                     10                     11                     12
                      A                      A                      A
 Frequencies --    282.3993               309.9234               356.1306
 Red. masses --      1.8305                 2.3765                 2.1441
 Frc consts  --      0.0860                 0.1345                 0.1602
 IR Inten    --      0.7442                 0.9052                 0.8518

                     13                     14                     15
                      A                      A                      A
 Frequencies --    399.7967               440.9007               520.8516
 Red. masses --      2.4784                 2.6319                 2.0356
 Frc consts  --      0.2334                 0.3014                 0.3254
 IR Inten    --      0.1220                 0.0279                 0.3351

                     16                     17                     18
                      A                      A                      A
 Frequencies --    537.7904               599.8075               667.0586
 Red. masses --      2.0468                 2.3212                 2.2386
 Frc consts  --      0.3488                 0.4920                 0.5869
 IR Inten    --      0.2794                 1.2636                66.5058

                     19                     20                     21
                      A                      A                      A
 Frequencies --    714.0868               777.7673               814.9424
 Red. masses --      1.9906                 1.3283                 1.6391
 Frc consts  --      0.5980                 0.4734                 0.6414
 IR Inten    --     12.8043                17.5162                 1.0815

                     22                     23                     24
                      A                      A                      A
 Frequencies --    847.6889               871.0164               879.3350
 Red. masses --      2.0561                 1.7711                 1.9593
 Frc consts  --      0.8705                 0.7917                 0.8926
 IR Inten    --      0.0252                 5.5578                 1.9602

                     25                     26                     27
                      A                      A                      A
 Frequencies --    902.3548               921.4064               931.7626
 Red. masses --      2.0262                 2.4565                 2.0898
 Frc consts  --      0.9720                 1.2288                 1.0690
 IR Inten    --      1.0519                 0.6331                 8.2339

                     28                     29                     30
                      A                      A                      A
 Frequencies --    943.0018               949.3994               962.8208
 Red. masses --      1.7436                 1.6889                 1.6731
 Frc consts  --      0.9135                 0.8969                 0.9138
 IR Inten    --     11.7169                 1.1992                 5.3214

                     31                     32                     33
                      A                      A                      A
 Frequencies --    982.5823              1021.7495              1027.2121
 Red. masses --      1.5126                 2.0916                 2.3348
 Frc consts  --      0.8604                 1.2865                 1.4515
 IR Inten    --      1.6314                 1.4745                 1.0317

                     34                     35                     36
                      A                      A                      A
 Frequencies --   1036.1582              1049.6340              1058.8113
 Red. masses --      1.4090                 2.6919                 2.1083
 Frc consts  --      0.8913                 1.7474                 1.3926
 IR Inten    --      0.7312                 6.5811                 0.7130

                     37                     38                     39
                      A                      A                      A
 Frequencies --   1081.0356              1096.1232              1099.1451
 Red. masses --      1.6584                 3.0156                 2.0206
 Frc consts  --      1.1419                 2.1347                 1.4383
 IR Inten    --      0.3750                 1.1929                 0.4387

                     40                     41                     42
                      A                      A                      A
 Frequencies --   1139.0056              1149.1992              1157.6786
 Red. masses --      1.3563                 1.7480                 1.5890
 Frc consts  --      1.0367                 1.3601                 1.2547
 IR Inten    --      8.0351                 1.1077                 2.7403

                     43                     44                     45
                      A                      A                      A
 Frequencies --   1200.6815              1206.6674              1235.0878
 Red. masses --      1.4311                 1.4979                 2.0146
 Frc consts  --      1.2156                 1.2850                 1.8106
 IR Inten    --      1.1704                 2.2793                 0.5299

                     46                     47                     48
                      A                      A                      A
 Frequencies --   1255.2779              1264.8612              1280.9073
 Red. masses --      1.4945                 1.6288                 1.2543
 Frc consts  --      1.3875                 1.5353                 1.2125
 IR Inten    --      1.0358                 4.1894                 0.0970

                     49                     50                     51
                      A                      A                      A
 Frequencies --   1285.8829              1314.4906              1323.0287
 Red. masses --      1.2384                 1.2930                 1.2918
 Frc consts  --      1.2064                 1.3163                 1.3323
 IR Inten    --     12.5904                 0.8979                 0.1376

                     52                     53                     54
                      A                      A                      A
 Frequencies --   1335.5192              1345.9796              1351.5129
 Red. masses --      1.3427                 1.2528                 1.2933
 Frc consts  --      1.4110                 1.3372                 1.3918
 IR Inten    --      0.1495                 1.0267                 1.3473

                     55                     56                     57
                      A                      A                      A
 Frequencies --   1361.7586              1368.0526              1381.0327
 Red. masses --      1.4183                 1.3668                 1.5765
 Frc consts  --      1.5496                 1.5072                 1.7715
 IR Inten    --      0.2855                 0.3520                 4.2116

                     58                     59                     60
                      A                      A                      A
 Frequencies --   1388.9839              1404.4224              1408.3524
 Red. masses --      1.3253                 1.5358                 1.3267
 Frc consts  --      1.5065                 1.7848                 1.5504
 IR Inten    --      8.2846                 0.2450                 6.3365

                     61                     62                     63
                      A                      A                      A
 Frequencies --   1410.9646              1444.4318              1511.2168
 Red. masses --      1.4542                 1.2645                 1.0828
 Frc consts  --      1.7057                 1.5544                 1.4570
 IR Inten    --      1.0989                 9.1850                 0.9871

                     64                     65                     66
                      A                      A                      A
 Frequencies --   1516.0910              1518.0795              1521.9224
 Red. masses --      1.0758                 1.0840                 1.0827
 Frc consts  --      1.4569                 1.4719                 1.4776
 IR Inten    --      1.5857                 0.8878                 2.9526

                     67                     68                     69
                      A                      A                      A
 Frequencies --   1526.9845              1530.9102              1539.6258
 Red. masses --      1.0811                 1.0564                 1.0797
 Frc consts  --      1.4853                 1.4587                 1.5079
 IR Inten    --      0.6726                 6.0240                 5.0699

                     70                     71                     72
                      A                      A                      A
 Frequencies --   1541.0034              1548.4438              1563.1371
 Red. masses --      1.0723                 1.0948                 1.1090
 Frc consts  --      1.5003                 1.5466                 1.5965
 IR Inten    --      4.5857                 0.3935                 9.2330

                     73                     74                     75
                      A                      A                      A
 Frequencies --   3001.8232              3011.9132              3017.0420
 Red. masses --      1.0693                 1.0751                 1.0728
 Frc consts  --      5.6768                 5.7460                 5.7535
 IR Inten    --     74.7395                 5.1650                14.4141

                     76                     77                     78
                      A                      A                      A
 Frequencies --   3033.3295              3037.7404              3040.3347
 Red. masses --      1.0616                 1.0659                 1.0653
 Frc consts  --      5.7551                 5.7950                 5.8018
 IR Inten    --     26.1688                45.6183                62.7799

                     79                     80                     81
                      A                      A                      A
 Frequencies --   3041.6295              3047.7748              3049.2545
 Red. masses --      1.0666                 1.0626                 1.0392
 Frc consts  --      5.8141                 5.8153                 5.6927
 IR Inten    --     43.8102                32.3123                13.6761

                     82                     83                     84
                      A                      A                      A
 Frequencies --   3060.3887              3073.6569              3075.1550
 Red. masses --      1.0990                 1.1026                 1.0760
 Frc consts  --      6.0644                 6.1371                 5.9952
 IR Inten    --     13.8077                21.2663                88.7336

                     85                     86                     87
                      A                      A                      A
 Frequencies --   3084.4431              3095.8505              3096.6921
 Red. masses --      1.0898                 1.0936                 1.0928
 Frc consts  --      6.1087                 6.1753                 6.1743
 IR Inten    --     12.8664                81.3602                42.8379

                     88                     89                     90
                      A                      A                      A
 Frequencies --   3098.2691              3103.0945              3109.6986
 Red. masses --      1.0967                 1.1027                 1.1009
 Frc consts  --      6.2028                 6.2562                 6.2725
 IR Inten    --     21.5554                38.8907                36.4618

                     91                     92                     93
                      A                      A                      A
 Frequencies --   3120.8625              3134.0045              3498.7798
 Red. masses --      1.1047                 1.0982                 1.0762
 Frc consts  --      6.3392                 6.3551                 7.7619
 IR Inten    --     63.8146                45.1496                 6.0758

 - Thermochemistry -
 -------------------
 Temperature   298.150 Kelvin.  Pressure   1.00000 Atm.
 Atom     1 has atomic number  6 and mass  12.00000

 Molecular mass:   167.16740 amu.
 Principal axes and moments of inertia in atomic units:
                           1         2         3
     Eigenvalues --  1555.581662415.185933246.94591
           X            0.99926   0.03852   0.00168
           Y           -0.03849   0.99915  -0.01441
           Z           -0.00223   0.01433   0.99989
 This molecule is an asymmetric top.
 Rotational symmetry number  1.
 Warning -- assumption of classical behavior for rotation
           may cause significant error
 Rotational temperatures (Kelvin)      0.05568     0.03586     0.02668
 Rotational constants (GHZ):           1.16017     0.74725     0.55583
 Zero-point vibrational energy     811475.7 (Joules/Mol)
                                  193.94735 (Kcal/Mol)
 Warning -- explicit consideration of  17 degrees of freedom as
           vibrations may cause significant error
 Vibrational temperatures:     52.97   100.42   144.46   181.88   228.32
          (Kelvin)            277.74   309.31   351.21   400.39   406.31
                              445.91   512.39   575.22   634.36   749.39
                              773.76   862.99   959.75  1027.41  1119.03
                             1172.52  1219.64  1253.20  1265.17  1298.29
                             1325.70  1340.60  1356.77  1365.97  1385.28
                             1413.72  1470.07  1477.93  1490.80  1510.19
                             1523.39  1555.37  1577.08  1581.42  1638.78
                             1653.44  1665.64  1727.51  1736.13  1777.02
                             1806.06  1819.85  1842.94  1850.10  1891.26
                             1903.54  1921.51  1936.56  1944.53  1959.27
                             1968.32  1987.00  1998.44  2020.65  2026.31
                             2030.06  2078.22  2174.30  2181.32  2184.18
                             2189.71  2196.99  2202.64  2215.18  2217.16
                             2227.87  2249.01  4318.95  4333.47  4340.85
                             4364.28  4370.63  4374.36  4376.23  4385.07
                             4387.20  4403.22  4422.31  4424.46  4437.83
                             4454.24  4455.45  4457.72  4464.66  4474.16
                             4490.23  4509.13  5033.96

 Zero-point correction=                           0.309075 (Hartree/Particle)
 Thermal correction to Energy=                    0.321466
 Thermal correction to Enthalpy=                  0.322410
 Thermal correction to Gibbs Free Energy=         0.270430
 Sum of electronic and zero-point Energies=           -486.278286
 Sum of electronic and thermal Energies=              -486.265894
 Sum of electronic and thermal Enthalpies=            -486.264950
 Sum of electronic and thermal Free Energies=         -486.316930

                     E (Thermal)             CV                S
                      KCal/Mol        Cal/Mol-Kelvin    Cal/Mol-Kelvin
 Total                  201.723             48.494            109.402
 Electronic               0.000              0.000              0.000
 Translational            0.889              2.981             41.250
 Rotational               0.889              2.981             30.879
 Vibrational            199.946             42.532             37.273
 Vibration     1          0.594              1.982              5.424
 Vibration     2          0.598              1.969              4.159
 Vibration     3          0.604              1.949              3.446
 Vibration     4          0.611              1.927              3.000
 Vibration     5          0.621              1.893              2.565
 Vibration     6          0.635              1.850              2.198
 Vibration     7          0.645              1.818              2.001
 Vibration     8          0.659              1.773              1.773
 Vibration     9          0.679              1.714              1.544
 Vibration    10          0.681              1.706              1.519
 Vibration    11          0.699              1.655              1.363
 Vibration    12          0.732              1.563              1.139
 Vibration    13          0.766              1.471              0.963
 Vibration    14          0.801              1.381              0.824
 Vibration    15          0.876              1.204              0.608
 Vibration    16          0.893              1.166              0.570
 Vibration    17          0.958              1.032              0.450

 Optimization completed.
    -- Stationary point found.
 Normal termination of Gaussian 16 at Wed Dec  9 17:19:05 2020.

 ----------------------------------------------------------------------
 # B3LYP/6-311++G(d,p) empiricaldispersion=gd3bj scf=xqc pop=npa geom=c
 heck
 ----------------------------------------------------------------------

 ---------------------------------------
 CID_112571382_JID_2240_Energie_neutraal
 ---------------------------------------
 Structure from the checkpoint file:  "JID_2240.chk"
 Charge =  0 Multiplicity = 1

 SCF Done:  E(RB3LYP) =  -486.721610608     A.U. after   13 cycles
 Normal termination of Gaussian 16 at Wed Dec  9 17:23:34 2020.

 ----------------------------------------------------------------------
 # B3LYP/6-311++G(d,p) empiricaldispersion=gd3bj scf=xqc pop=npa geom=c
 heck
 ----------------------------------------------------------------------

 -------------------------------------
 CID_112571382_JID_2240_Energie_kation
 -------------------------------------
 Structure from the checkpoint file:  "JID_2240.chk"
 Charge =  1 Multiplicity = 2

 SCF Done:  E(UB3LYP) =  -486.411702798     A.U. after   20 cycles
 Normal termination of Gaussian 16 at Wed Dec  9 17:33:11 2020.
 Gaussian 16:  ES64L-G16RevA.03 25-Dec-2016

 ----------------------------------------------------------------------
 # B3LYP/6-311++G(d,p) empiricaldispersion=gd3bj scf=xqc pop=npa geom=c
 heck
 ----------------------------------------------------------------------

 ------------------------------------
 CID_112571382_JID_2240_Energie_anion
 ------------------------------------
 Structure from the checkpoint file:  "JID_2240.chk"
 Charge = -1 Multiplicity = 2

                         Standard orientation:
 ---------------------------------------------------------------------
 Center     Atomic      Atomic             Coordinates (Angstroms)
 Number     Number       Type             X           Y           Z
 ---------------------------------------------------------------------
      1          6           0       -2.454264   -1.988123    0.639165
      2          6           0       -2.004749   -1.568752   -0.764033
      3          6           0       -1.754512   -0.065795   -0.965629
      4          6           0       -0.552312    0.609979   -0.275055
      5          6           0       -0.660976    2.150999   -0.519914
      6          7           0       -1.311699    2.299196    0.802662
      7          6           0       -0.809551    0.970933    1.220636
      8          6           0        0.790150   -0.071112   -0.602274
      9          6           0        2.050700    0.811552   -0.442964
     10          6           0        3.192105   -0.193414   -0.257708
     11          6           0        2.580367   -1.218312    0.708382
     12          6           0        1.103071   -1.339789    0.260632
     13          1           0       -1.665882   -1.851896    1.384860
     14          1           0       -2.740306   -3.046116    0.654996
     15          1           0       -3.322520   -1.402063    0.963994
     16          1           0       -1.116960   -2.142462   -1.054576
     17          1           0       -2.789321   -1.859990   -1.475507
     18          1           0       -1.630687    0.107845   -2.044739
     19          1           0       -2.658247    0.484216   -0.670913
     20          1           0        0.312273    2.649546   -0.605683
     21          1           0       -1.288397    2.463488   -1.364802
     22          1           0       -0.969676    3.078609    1.360370
     23          1           0       -1.541229    0.371642    1.771494
     24          1           0        0.125621    0.998295    1.801156
     25          1           0        0.749818   -0.380118   -1.656449
     26          1           0        2.199319    1.487728   -1.291217
     27          1           0        1.971910    1.433956    0.458981
     28          1           0        4.113999    0.261930    0.119898
     29          1           0        3.428868   -0.671565   -1.217782
     30          1           0        2.631447   -0.824821    1.731612
     31          1           0        3.103679   -2.180079    0.708070
     32          1           0        0.437712   -1.410557    1.125447
     33          1           0        0.950299   -2.250960   -0.325273
 ---------------------------------------------------------------------

 SCF Done:  E(UB3LYP) =  -486.704724368     A.U. after   29 cycles

 The electronic state is 2-A.
 Alpha  occ. eigenvalues --  -14.19086 -10.08417 -10.08390 -10.07784 -10.06571
 Alpha  occ. eigenvalues --  -10.06318 -10.06053 -10.05738 -10.05691 -10.05676
 Alpha  occ. eigenvalues --  -10.05660 -10.05559  -0.82524  -0.73314  -0.69055
 Alpha  occ. eigenvalues --   -0.64226  -0.60359  -0.59112  -0.56939  -0.55673
 Alpha  occ. eigenvalues --   -0.48862  -0.47136  -0.46365  -0.41922  -0.40735
 Alpha  occ. eigenvalues --   -0.38128  -0.36417  -0.34738  -0.34035  -0.33365
 Alpha  occ. eigenvalues --   -0.31269  -0.30280  -0.29651  -0.29231  -0.28470
 Alpha  occ. eigenvalues --   -0.26476  -0.24732  -0.24073  -0.23349  -0.23258
 Alpha  occ. eigenvalues --   -0.22938  -0.22523  -0.21623  -0.20721  -0.19251
 Alpha  occ. eigenvalues --   -0.18708  -0.12671   0.04655
 Alpha virt. eigenvalues --    0.06585   0.07210   0.07510   0.08903   0.09107
 Alpha virt. eigenvalues --    0.09313   0.09676   0.09838   0.11384   0.11901
 Alpha virt. eigenvalues --    0.12180   0.12362   0.12798   0.13152   0.13461

  Beta  occ. eigenvalues --  -14.19071 -10.08405 -10.08368 -10.07784 -10.06563
  Beta  occ. eigenvalues --  -10.06303 -10.06044 -10.05717 -10.05670 -10.05658
  Beta  occ. eigenvalues --  -10.05640 -10.05536  -0.82506  -0.73286  -0.69030
  Beta  occ. eigenvalues --   -0.64196  -0.60314  -0.59073  -0.56898  -0.55632
  Beta  occ. eigenvalues --   -0.48808  -0.47083  -0.46299  -0.41873  -0.40698
  Beta  occ. eigenvalues --   -0.38084  -0.36395  -0.34704  -0.33996  -0.33340
  Beta  occ. eigenvalues --   -0.31239  -0.30250  -0.29625  -0.29198  -0.28447
  Beta  occ. eigenvalues --   -0.26443  -0.24702  -0.24049  -0.23314  -0.23219
  Beta  occ. eigenvalues --   -0.22902  -0.22483  -0.21589  -0.20699  -0.19223
  Beta  occ. eigenvalues --   -0.18687  -0.12646
  Beta virt. eigenvalues --    0.06807   0.07535   0.07814   0.08135   0.09494
  Beta virt. eigenvalues --    0.09650   0.09759   0.10075   0.10137   0.11886
  Beta virt. eigenvalues --    0.12330   0.12580   0.12685   0.13107   0.13448

 Mulliken charges and spin densities:
               1          2
     1  C    0.415204  -0.965738
     2  C   -0.515561   0.281903
     3  C    0.177535  -0.753019
     4  C    0.426296   0.107697
     5  C    0.251794  -0.457525
     6  N   -0.279740   0.129248
     7  C    0.696524  -1.141865
     8  C   -1.178089   1.158848
     9  C    0.751584  -1.200566
    10  C   -0.547429   0.173722
    11  C    1.760195  -2.373776
    12  C   -0.741792   0.510695
    13  H   -0.223915   0.374285
    14  H   -0.272395   0.405866
    15  H    0.062971   0.073704
    16  H   -0.046270   0.171411
    17  H   -0.439112   0.616403
    18  H   -0.060885   0.219538
    19  H    0.148652  -0.001330
    20  H   -0.270489   0.427055
    21  H   -0.055446   0.227560
    22  H    0.025793   0.216784
    23  H    0.228587  -0.042828
    24  H   -0.336655   0.500846
    25  H   -0.048857   0.259289
    26  H   -0.265923   0.424242
    27  H   -0.081945   0.237079
    28  H   -0.384197   0.556821
    29  H    0.007580   0.121761
    30  H   -0.110610   0.244776
    31  H   -0.174872   0.330656
    32  H    0.183581  -0.080018
    33  H   -0.102116   0.246476
 Sum of Mulliken charges =  -1.00000   1.00000

 Dipole moment (field-independent basis, Debye):
    X=             -1.7543    Y=              0.3530    Z=             -0.2116  Tot=              1.8020
 Quadrupole moment (field-independent basis, Debye-Ang):
   XX=           -138.4442   YY=           -129.6918   ZZ=           -114.4168
   XY=             -5.1923   XZ=             -2.9173   YZ=             -1.5243

 Summary of Natural Population Analysis:

                                       Natural Population
                Natural  -----------------------------------------------
    Atom  No    Charge         Core      Valence    Rydberg      Total
 -----------------------------------------------------------------------
      C    1   -0.28564      0.99966     2.28063    0.00534     3.28564
      C    2   -0.19172      0.99963     2.18399    0.00810     3.19172
      C    3   -0.18523      0.99958     2.17517    0.01048     3.18523
      C    4   -0.03740      0.99953     2.02282    0.01505     3.03740
      C    5   -0.07663      0.99960     2.06619    0.01084     3.07663
      N    6   -0.34642      0.99976     2.83479    0.01187     3.84642
      C    7   -0.08344      0.99959     2.07301    0.01083     3.08344
      C    8   -0.10981      0.99955     2.09853    0.01173     3.10981
      C    9   -0.19079      0.99962     2.18224    0.00893     3.19079
      C   10   -0.18854      0.99963     2.18136    0.00755     3.18854
      C   11   -0.19012      0.99964     2.18273    0.00775     3.19012
      C   12   -0.19157      0.99962     2.18369    0.00826     3.19157
      H   13    0.09621      0.00000     0.40264    0.00115     0.40379
      H   14    0.09813      0.00000     0.40089    0.00098     0.40187
      H   15    0.09446      0.00000     0.40460    0.00093     0.40554
      H   16    0.09628      0.00000     0.40210    0.00162     0.40372
      H   17    0.09423      0.00000     0.40469    0.00108     0.40577
      H   18    0.09772      0.00000     0.40104    0.00124     0.40228
      H   19    0.10003      0.00000     0.39833    0.00164     0.39997
      H   20    0.08980      0.00000     0.40842    0.00178     0.41020
      H   21    0.08542      0.00000     0.41322    0.00136     0.41458
      H   22    0.17182      0.00000     0.32595    0.00223     0.32818
      H   23    0.08972      0.00000     0.40874    0.00154     0.41028
      H   24    0.08763      0.00000     0.41045    0.00192     0.41237
      H   25    0.09750      0.00000     0.40079    0.00171     0.40250
      H   26    0.10155      0.00000     0.39720    0.00125     0.39845
      H   27    0.09546      0.00000     0.40237    0.00216     0.40454
      H   28    0.09965      0.00000     0.39915    0.00121     0.40035
      H   29    0.09223      0.00000     0.40638    0.00139     0.40777
      H   30    0.09399      0.00000     0.40442    0.00158     0.40601
      H   31    0.09851      0.00000     0.40040    0.00109     0.40149
      H   32    0.09842      0.00000     0.40009    0.00149     0.40158
      H   33    0.09854      0.00000     0.40008    0.00138     0.40146
 =======================================================================
   * Total *   -0.00000     11.99543    34.85711    0.14746    47.00000

 Normal termination of Gaussian 16 at Wed Dec  9 17:47:59 2020.
