 Gaussian 16, Revision A.03,

 -----------------------------------------------------------
 # opt freq B3LYP/6-31G(d) empiricaldispersion=gd3bj scf=xqc
 -----------------------------------------------------------

 -------------------------------
 CID_150367305_JID_6018_neutraal
 -------------------------------
 Symbolic Z-matrix:
 Charge =  0 Multiplicity = 1

 SCF Done:  E(RB3LYP) =  -772.281517692     A.U. after   16 cycles
 SCF Done:  E(RB3LYP) =  -772.295031878     A.U. after   15 cycles
 SCF Done:  E(RB3LYP) =  -772.299830758     A.U. after   15 cycles
 SCF Done:  E(RB3LYP) =  -772.302464887     A.U. after   15 cycles
 SCF Done:  E(RB3LYP) =  -772.305549002     A.U. after   17 cycles
 SCF Done:  E(RB3LYP) =  -772.308066844     A.U. after   17 cycles
 SCF Done:  E(RB3LYP) =  -772.308788689     A.U. after   14 cycles
 SCF Done:  E(RB3LYP) =  -772.309179124     A.U. after   14 cycles
 SCF Done:  E(RB3LYP) =  -772.309509626     A.U. after   12 cycles
 SCF Done:  E(RB3LYP) =  -772.309614458     A.U. after   11 cycles
 SCF Done:  E(RB3LYP) =  -772.309691884     A.U. after   11 cycles
 SCF Done:  E(RB3LYP) =  -772.309698518     A.U. after   10 cycles
 SCF Done:  E(RB3LYP) =  -772.309700536     A.U. after   10 cycles
 SCF Done:  E(RB3LYP) =  -772.309700842     A.U. after    9 cycles
 SCF Done:  E(RB3LYP) =  -772.309701037     A.U. after    8 cycles
 SCF Done:  E(RB3LYP) =  -772.309700989     A.U. after    8 cycles
 Optimization completed.
    -- Stationary point found.
 Normal termination of Gaussian 16 at Thu Dec 10 21:18:34 2020.

 --------------------------------------------------------------------
 #N Geom=AllCheck Guess=TCheck SCRF=Check GenChk RB3LYP/6-31G(d) Freq
 --------------------------------------------------------------------

 Structure from the checkpoint file:  "JID_6018.chk"
 -------------------------------
 CID_150367305_JID_6018_neutraal
 -------------------------------
 Charge =  0 Multiplicity = 1

 SCF Done:  E(RB3LYP) =  -772.309700989     A.U. after    1 cycles

  Exact polarizability: 151.853 -13.441 137.735   0.695   4.305 103.030
 Approx polarizability: 224.837 -34.933 219.282  -9.407  21.401 162.877

                      1                      2                      3
                      A                      A                      A
 Frequencies --     41.9058                51.1864                70.5288
 Red. masses --      6.1235                 5.8520                 4.2721
 Frc consts  --      0.0063                 0.0090                 0.0125
 IR Inten    --      2.5606                 0.7412                 0.4501

                      4                      5                      6
                      A                      A                      A
 Frequencies --     92.8788               115.2025               153.8845
 Red. masses --      5.7705                 4.9412                 4.3986
 Frc consts  --      0.0293                 0.0386                 0.0614
 IR Inten    --      1.9730                 0.9611                 0.7740

                      7                      8                      9
                      A                      A                      A
 Frequencies --    179.8430               210.7475               243.4161
 Red. masses --      3.9665                 4.2006                 4.0564
 Frc consts  --      0.0756                 0.1099                 0.1416
 IR Inten    --      3.2920                 2.8007                 3.9206

                     10                     11                     12
                      A                      A                      A
 Frequencies --    257.2574               289.8140               337.8672
 Red. masses --      2.9135                 2.0085                 3.0066
 Frc consts  --      0.1136                 0.0994                 0.2022
 IR Inten    --      6.3003                 2.2898                 1.4007

                     13                     14                     15
                      A                      A                      A
 Frequencies --    378.4131               398.3302               410.6841
 Red. masses --      6.5508                 4.1787                 3.0448
 Frc consts  --      0.5527                 0.3906                 0.3026
 IR Inten    --      9.0514                 2.2095                 7.4208

                     16                     17                     18
                      A                      A                      A
 Frequencies --    439.6452               473.8740               476.5854
 Red. masses --      2.7795                 3.9284                 2.7996
 Frc consts  --      0.3165                 0.5198                 0.3747
 IR Inten    --     12.4029                 3.0275                10.5213

                     19                     20                     21
                      A                      A                      A
 Frequencies --    503.0016               535.7894               536.9970
 Red. masses --      2.5105                10.0477                 4.4174
 Frc consts  --      0.3742                 1.6994                 0.7505
 IR Inten    --     15.8646                28.8250                 5.8492

                     22                     23                     24
                      A                      A                      A
 Frequencies --    586.7936               608.7851               630.8537
 Red. masses --      1.9750                 1.6416                 7.4982
 Frc consts  --      0.4007                 0.3585                 1.7582
 IR Inten    --     24.3735                20.8042                13.0560

                     25                     26                     27
                      A                      A                      A
 Frequencies --    676.0140               700.3101               820.5544
 Red. masses --      2.7992                 2.9710                 3.2882
 Frc consts  --      0.7537                 0.8585                 1.3045
 IR Inten    --     43.1755                11.1512                39.4619

                     28                     29                     30
                      A                      A                      A
 Frequencies --    827.9843               845.9446               871.8652
 Red. masses --      2.0081                 1.6382                 3.2112
 Frc consts  --      0.8111                 0.6907                 1.4382
 IR Inten    --    111.6395                 5.6174                 1.7296

                     31                     32                     33
                      A                      A                      A
 Frequencies --    889.3679               909.4440               929.1022
 Red. masses --      4.0704                 1.9164                 2.5679
 Frc consts  --      1.8969                 0.9339                 1.3060
 IR Inten    --     14.9908                21.3301                 8.1237

                     34                     35                     36
                      A                      A                      A
 Frequencies --    956.3665               985.4747              1010.7594
 Red. masses --      2.5770                 3.0251                 2.7268
 Frc consts  --      1.3887                 1.7309                 1.6413
 IR Inten    --      2.1374                23.0026                14.6776

                     37                     38                     39
                      A                      A                      A
 Frequencies --   1034.4456              1043.6328              1046.5050
 Red. masses --      2.8507                 1.5607                 2.4505
 Frc consts  --      1.7973                 1.0016                 1.5812
 IR Inten    --      1.5774                 9.0641                15.9523

                     40                     41                     42
                      A                      A                      A
 Frequencies --   1101.3589              1127.7833              1143.1399
 Red. masses --      2.0505                 2.0879                 4.4134
 Frc consts  --      1.4654                 1.5646                 3.3980
 IR Inten    --     35.8784                12.6095                32.4586

                     43                     44                     45
                      A                      A                      A
 Frequencies --   1149.6447              1190.0532              1213.4359
 Red. masses --      1.9630                 4.0150                 2.4209
 Frc consts  --      1.5286                 3.3501                 2.1002
 IR Inten    --     10.0839                54.8284                13.6180

                     46                     47                     48
                      A                      A                      A
 Frequencies --   1223.6745              1231.3104              1252.1979
 Red. masses --      2.4251                 1.1064                 4.2471
 Frc consts  --      2.1395                 0.9883                 3.9237
 IR Inten    --     61.9997                 3.8231                51.8633

                     49                     50                     51
                      A                      A                      A
 Frequencies --   1268.9475              1287.6187              1297.5038
 Red. masses --      1.3845                 1.3051                 1.4079
 Frc consts  --      1.3135                 1.2749                 1.3965
 IR Inten    --      0.8915                15.8739                 5.6367

                     52                     53                     54
                      A                      A                      A
 Frequencies --   1317.2234              1355.5606              1363.9877
 Red. masses --      1.2629                 2.3312                 1.3331
 Frc consts  --      1.2910                 2.5239                 1.4613
 IR Inten    --     10.9474               141.3482                 0.5810

                     55                     56                     57
                      A                      A                      A
 Frequencies --   1370.5670              1396.9116              1403.5684
 Red. masses --      1.2631                 1.3663                 1.2379
 Frc consts  --      1.3979                 1.5708                 1.4368
 IR Inten    --      0.5591                 5.1654                11.0651

                     58                     59                     60
                      A                      A                      A
 Frequencies --   1413.4355              1414.3858              1425.9301
 Red. masses --      1.5358                 1.4717                 1.2792
 Frc consts  --      1.8078                 1.7346                 1.5324
 IR Inten    --     12.5918                31.7109                 6.9781

                     61                     62                     63
                      A                      A                      A
 Frequencies --   1433.7150              1442.3377              1500.2617
 Red. masses --      1.3797                 2.0270                 1.0967
 Frc consts  --      1.6709                 2.4844                 1.4543
 IR Inten    --     17.8708                34.3963                 4.9521

                     64                     65                     66
                      A                      A                      A
 Frequencies --   1501.9393              1503.3142              1512.6126
 Red. masses --      1.8724                 1.1079                 1.1158
 Frc consts  --      2.4885                 1.4752                 1.5041
 IR Inten    --     21.0345                 9.4203                10.9431

                     67                     68                     69
                      A                      A                      A
 Frequencies --   1517.1656              1519.6990              1532.3989
 Red. masses --      1.1205                 1.1163                 1.1269
 Frc consts  --      1.5196                 1.5189                 1.5591
 IR Inten    --      5.4845                 0.6863                13.4466

                     70                     71                     72
                      A                      A                      A
 Frequencies --   1543.1033              1790.3312              2221.0507
 Red. masses --      1.1472                 8.6593                13.9491
 Frc consts  --      1.6094                16.3530                40.5428
 IR Inten    --     11.8088               328.8382               415.9539

                     73                     74                     75
                      A                      A                      A
 Frequencies --   2975.1402              2982.5568              2985.9122
 Red. masses --      1.0714                 1.0730                 1.0734
 Frc consts  --      5.5874                 5.6240                 5.6387
 IR Inten    --     31.2061                68.2587                45.6998

                     76                     77                     78
                      A                      A                      A
 Frequencies --   2993.2967              3040.7924              3056.4301
 Red. masses --      1.0811                 1.0649                 1.0636
 Frc consts  --      5.7071                 5.8015                 5.8543
 IR Inten    --     30.5524                48.6157                70.4491

                     79                     80                     81
                      A                      A                      A
 Frequencies --   3058.3648              3089.1803              3097.1387
 Red. masses --      1.0668                 1.0911                 1.0998
 Frc consts  --      5.8790                 6.1351                 6.2158
 IR Inten    --     45.4138                36.9876                37.4792

                     82                     83                     84
                      A                      A                      A
 Frequencies --   3098.0697              3122.5666              3126.5354
 Red. masses --      1.0907                 1.1022                 1.1001
 Frc consts  --      6.1678                 6.3318                 6.3361
 IR Inten    --     20.6052                10.7995                19.4138

                     85                     86                     87
                      A                      A                      A
 Frequencies --   3135.8528              3441.3586              3586.3958
 Red. masses --      1.0915                 1.0732                 1.0762
 Frc consts  --      6.3237                 7.4887                 8.1557
 IR Inten    --     14.5668                 6.4335                20.7265

 - Thermochemistry -
 -------------------
 Temperature   298.150 Kelvin.  Pressure   1.00000 Atm.
 Atom     1 has atomic number  6 and mass  12.00000

 Molecular mass:   225.13381 amu.
 Principal axes and moments of inertia in atomic units:
                           1         2         3
     Eigenvalues --  2515.782333468.235605140.07138
           X            0.99904  -0.04353   0.00417
           Y            0.04358   0.99899  -0.01131
           Z           -0.00368   0.01148   0.99993
 This molecule is an asymmetric top.
 Rotational symmetry number  1.
 Warning -- assumption of classical behavior for rotation
           may cause significant error
 Rotational temperatures (Kelvin)      0.03443     0.02497     0.01685
 Rotational constants (GHZ):           0.71737     0.52036     0.35111
 Zero-point vibrational energy     683832.2 (Joules/Mol)
                                  163.43982 (Kcal/Mol)
 Warning -- explicit consideration of  23 degrees of freedom as
           vibrations may cause significant error
 Vibrational temperatures:     60.29    73.65   101.48   133.63   165.75
          (Kelvin)            221.41   258.75   303.22   350.22   370.14
                              416.98   486.12   544.45   573.11   590.88
                              632.55   681.80   685.70   723.71   770.88
                              772.62   844.27   875.91   907.66   972.63
                             1007.59  1180.59  1191.28  1217.13  1254.42
                             1279.60  1308.49  1336.77  1376.00  1417.88
                             1454.26  1488.34  1501.55  1505.69  1584.61
                             1622.63  1644.72  1654.08  1712.22  1745.86
                             1760.59  1771.58  1801.63  1825.73  1852.60
                             1866.82  1895.19  1950.35  1962.47  1971.94
                             2009.84  2019.42  2033.62  2034.99  2051.60
                             2062.80  2075.20  2158.54  2160.96  2162.93
                             2176.31  2182.86  2186.51  2204.78  2220.18
                             2575.89  3195.60  4280.56  4291.23  4296.06
                             4306.69  4375.02  4397.52  4400.30  4444.64
                             4456.09  4457.43  4492.68  4498.39  4511.79
                             4951.35  5160.02

 Zero-point correction=                           0.260458 (Hartree/Particle)
 Thermal correction to Energy=                    0.274759
 Thermal correction to Enthalpy=                  0.275703
 Thermal correction to Gibbs Free Energy=         0.218825
 Sum of electronic and zero-point Energies=           -772.049243
 Sum of electronic and thermal Energies=              -772.034942
 Sum of electronic and thermal Enthalpies=            -772.033998
 Sum of electronic and thermal Free Energies=         -772.090876

                     E (Thermal)             CV                S
                      KCal/Mol        Cal/Mol-Kelvin    Cal/Mol-Kelvin
 Total                  172.414             55.175            119.710
 Electronic               0.000              0.000              0.000
 Translational            0.889              2.981             42.137
 Rotational               0.889              2.981             32.173
 Vibrational            170.636             49.214             45.401
 Vibration     1          0.595              1.980              5.167
 Vibration     2          0.595              1.977              4.771
 Vibration     3          0.598              1.968              4.139
 Vibration     4          0.602              1.954              3.599
 Vibration     5          0.608              1.937              3.179
 Vibration     6          0.619              1.898              2.624
 Vibration     7          0.629              1.867              2.330
 Vibration     8          0.643              1.824              2.037
 Vibration     9          0.659              1.774              1.778
 Vibration    10          0.667              1.751              1.680
 Vibration    11          0.686              1.693              1.475
 Vibration    12          0.718              1.600              1.222
 Vibration    13          0.749              1.516              1.046
 Vibration    14          0.765              1.474              0.969
 Vibration    15          0.775              1.447              0.924
 Vibration    16          0.800              1.384              0.828
 Vibration    17          0.831              1.308              0.727
 Vibration    18          0.833              1.302              0.719
 Vibration    19          0.858              1.243              0.651
 Vibration    20          0.891              1.171              0.574
 Vibration    21          0.892              1.168              0.572
 Vibration    22          0.944              1.060              0.473
 Vibration    23          0.968              1.013              0.435

 Optimization completed.
    -- Stationary point found.
 Normal termination of Gaussian 16 at Thu Dec 10 21:29:50 2020.

 ----------------------------------------------------------------------
 # B3LYP/6-311++G(d,p) empiricaldispersion=gd3bj scf=xqc pop=npa geom=c
 heck
 ----------------------------------------------------------------------

 ---------------------------------------
 CID_150367305_JID_6018_Energie_neutraal
 ---------------------------------------
 Structure from the checkpoint file:  "JID_6018.chk"
 Charge =  0 Multiplicity = 1

 SCF Done:  E(RB3LYP) =  -772.528625490     A.U. after   16 cycles
 Normal termination of Gaussian 16 at Thu Dec 10 21:34:57 2020.

 ----------------------------------------------------------------------
 # B3LYP/6-311++G(d,p) empiricaldispersion=gd3bj scf=xqc pop=npa geom=c
 heck
 ----------------------------------------------------------------------

 -------------------------------------
 CID_150367305_JID_6018_Energie_kation
 -------------------------------------
 Structure from the checkpoint file:  "JID_6018.chk"
 Charge =  1 Multiplicity = 2

 SCF Done:  E(UB3LYP) =  -772.259451695     A.U. after   27 cycles
 Normal termination of Gaussian 16 at Thu Dec 10 21:46:48 2020.
 Gaussian 16:  ES64L-G16RevA.03 25-Dec-2016

 ----------------------------------------------------------------------
 # B3LYP/6-311++G(d,p) empiricaldispersion=gd3bj scf=xqc pop=npa geom=c
 heck
 ----------------------------------------------------------------------

 ------------------------------------
 CID_150367305_JID_6018_Energie_anion
 ------------------------------------
 Structure from the checkpoint file:  "JID_6018.chk"
 Charge = -1 Multiplicity = 2

                         Standard orientation:
 ---------------------------------------------------------------------
 Center     Atomic      Atomic             Coordinates (Angstroms)
 Number     Number       Type             X           Y           Z
 ---------------------------------------------------------------------
      1          6           0       -2.319953   -0.754302    1.341473
      2          6           0       -1.173915    0.261975    1.202898
      3          7           0       -0.721287    0.413165   -0.177840
      4          6           0       -1.793506    0.591695   -1.147960
      5          6           0       -2.905160   -0.454825   -0.984375
      6          7           0       -3.414009   -0.520766    0.391279
      7          6           0        0.528058   -0.146776   -0.565629
      8          6           0        0.675896   -1.669502   -0.284068
      9          8           0       -0.258756   -2.426770   -0.511055
     10          7           0        1.885001   -2.120545    0.148334
     11          6           0        3.009431   -1.285762    0.544754
     12          6           0        2.930272    0.046736   -0.180629
     13          7           0        1.615398    0.620057    0.094980
     14          7           0        1.628015    1.968030   -0.447758
     15          7           0        0.744853    2.681843    0.069805
     16          7           0        0.016761    3.485275    0.426971
     17          1           0       -1.936277   -1.762234    1.160318
     18          1           0       -2.726394   -0.719997    2.359713
     19          1           0       -0.312721   -0.010792    1.821621
     20          1           0       -1.520166    1.248003    1.557023
     21          1           0       -2.224105    1.597273   -1.000660
     22          1           0       -1.366767    0.564786   -2.156460
     23          1           0       -2.507351   -1.441342   -1.241431
     24          1           0       -3.740300   -0.228564   -1.658542
     25          1           0       -3.857756    0.371643    0.616451
     26          1           0        0.612143   -0.043926   -1.659818
     27          1           0        1.915755   -3.115740    0.336612
     28          1           0        3.006924   -1.113842    1.629417
     29          1           0        3.941367   -1.796423    0.280580
     30          1           0        3.106398   -0.089145   -1.261555
     31          1           0        3.689422    0.729615    0.205994
 ---------------------------------------------------------------------

 SCF Done:  E(UB3LYP) =  -772.529314876     A.U. after   32 cycles

 The electronic state is 2-A.
 Alpha  occ. eigenvalues --  -18.98777 -14.31212 -14.23861 -14.23526 -14.23067
 Alpha  occ. eigenvalues --  -14.22386 -14.20246 -14.20214 -10.17024 -10.13422
 Alpha  occ. eigenvalues --  -10.10706 -10.09592 -10.09353 -10.09034 -10.08869
 Alpha  occ. eigenvalues --  -10.08769  -0.99202  -0.94200  -0.88146  -0.84011
 Alpha  occ. eigenvalues --   -0.82902  -0.79564  -0.75544  -0.66276  -0.65619
 Alpha  occ. eigenvalues --   -0.60671  -0.55628  -0.54519  -0.53536  -0.48716
 Alpha  occ. eigenvalues --   -0.45383  -0.43932  -0.42087  -0.40596  -0.39476
 Alpha  occ. eigenvalues --   -0.37913  -0.36918  -0.36460  -0.35187  -0.34730
 Alpha  occ. eigenvalues --   -0.33960  -0.33444  -0.32097  -0.31459  -0.31359
 Alpha  occ. eigenvalues --   -0.30769  -0.28927  -0.27840  -0.27039  -0.26570
 Alpha  occ. eigenvalues --   -0.25165  -0.24553  -0.24114  -0.21511  -0.17218
 Alpha  occ. eigenvalues --   -0.15977  -0.15646  -0.13871  -0.10152  -0.09524
 Alpha  occ. eigenvalues --    0.04239
 Alpha virt. eigenvalues --    0.06389   0.07412   0.08448   0.08809   0.09389
 Alpha virt. eigenvalues --    0.09516   0.10412   0.10838   0.11379   0.12253
 Alpha virt. eigenvalues --    0.12399   0.12510   0.13204   0.14802   0.15003

  Beta  occ. eigenvalues --  -18.98763 -14.30860 -14.23842 -14.23578 -14.22934
  Beta  occ. eigenvalues --  -14.21882 -14.20243 -14.20214 -10.17013 -10.13418
  Beta  occ. eigenvalues --  -10.10664 -10.09590 -10.09329 -10.09029 -10.08868
  Beta  occ. eigenvalues --  -10.08769  -0.98527  -0.94166  -0.87893  -0.83975
  Beta  occ. eigenvalues --   -0.82804  -0.79521  -0.75290  -0.66268  -0.65557
  Beta  occ. eigenvalues --   -0.60535  -0.55510  -0.54512  -0.53464  -0.48683
  Beta  occ. eigenvalues --   -0.45322  -0.43653  -0.41997  -0.40491  -0.39412
  Beta  occ. eigenvalues --   -0.37810  -0.36572  -0.35789  -0.34749  -0.34632
  Beta  occ. eigenvalues --   -0.33852  -0.33348  -0.31992  -0.31330  -0.31012
  Beta  occ. eigenvalues --   -0.30049  -0.28916  -0.27665  -0.26860  -0.26524
  Beta  occ. eigenvalues --   -0.25157  -0.24523  -0.24094  -0.20629  -0.17158
  Beta  occ. eigenvalues --   -0.15932  -0.15602  -0.13711  -0.10018  -0.09434
  Beta virt. eigenvalues --    0.07167   0.07640   0.08293   0.09377   0.09465
  Beta virt. eigenvalues --    0.09874   0.10452   0.10600   0.10879   0.11906
  Beta virt. eigenvalues --    0.12431   0.12469   0.12602   0.13328   0.14963

 Mulliken charges and spin densities:
               1          2
     1  C   -0.522503  -0.020009
     2  C   -0.087043  -0.013514
     3  N    0.313134   0.026286
     4  C    0.054487  -0.044202
     5  C   -0.483286  -0.060451
     6  N   -0.124068   0.004585
     7  C    0.249021  -1.259405
     8  C   -0.628617   0.695119
     9  O   -0.335409   0.014190
    10  N   -0.442646   0.233111
    11  C    1.682852  -2.049944
    12  C   -0.417661   0.198558
    13  N    0.018007   0.153274
    14  N   -0.337142  -0.208172
    15  N    0.562519   0.197995
    16  N   -0.480672   0.399942
    17  H    0.206064   0.006752
    18  H    0.120333   0.018475
    19  H    0.139247   0.016595
    20  H    0.201482  -0.010087
    21  H    0.145257   0.025817
    22  H    0.069633   0.028354
    23  H    0.205299   0.002006
    24  H    0.142662   0.010764
    25  H    0.203798   0.001952
    26  H   -0.013627   0.181174
    27  H   -0.193867   0.508830
    28  H    0.038110   0.123528
    29  H   -1.013972   1.217353
    30  H    0.029494   0.099362
    31  H   -0.300888   0.501762
 Sum of Mulliken charges =  -1.00000   1.00000

 Dipole moment (field-independent basis, Debye):
    X=             -6.4725    Y=              0.8073    Z=              0.0085  Tot=              6.5227
 Quadrupole moment (field-independent basis, Debye-Ang):
   XX=           -156.1066   YY=           -152.8445   ZZ=           -110.2081
   XY=              5.2763   XZ=              0.0783   YZ=             -1.5540

 Summary of Natural Population Analysis:

                                       Natural Population
                Natural  -----------------------------------------------
    Atom  No    Charge         Core      Valence    Rydberg      Total
 -----------------------------------------------------------------------
      C    1   -0.10024      0.99962     2.09026    0.01036     3.10024
      C    2   -0.09598      0.99962     2.08521    0.01115     3.09598
      N    3   -0.28416      0.99969     2.76971    0.01477     3.78416
      C    4   -0.08680      0.99962     2.07566    0.01152     3.08680
      C    5   -0.10070      0.99962     2.09084    0.01024     3.10070
      N    6   -0.33442      0.99977     2.82396    0.01070     3.83442
      C    7    0.06008      0.99952     1.92378    0.01662     2.93992
      C    8    0.33588      0.99964     1.64056    0.02393     2.66412
      O    9   -0.33038      0.99988     3.32427    0.00623     4.33038
      N   10   -0.31255      0.99967     2.80209    0.01079     3.81255
      C   11   -0.08733      0.99960     2.07558    0.01214     3.08733
      C   12   -0.08946      0.99961     2.07693    0.01292     3.08946
      N   13   -0.18965      0.99968     2.67685    0.01312     3.68965
      N   14   -0.15112      0.99972     2.63636    0.01504     3.65112
      N   15    0.14131      0.99971     2.34321    0.01577     3.35869
      N   16    0.01241      0.99981     2.47497    0.01281     3.48759
      H   17    0.10306      0.00000     0.39548    0.00146     0.39694
      H   18    0.08706      0.00000     0.41164    0.00129     0.41294
      H   19    0.10472      0.00000     0.39364    0.00163     0.39528
      H   20    0.09185      0.00000     0.40692    0.00123     0.40815
      H   21    0.08711      0.00000     0.41130    0.00159     0.41289
      H   22    0.09774      0.00000     0.40098    0.00128     0.40226
      H   23    0.10468      0.00000     0.39399    0.00132     0.39532
      H   24    0.08616      0.00000     0.41248    0.00135     0.41384
      H   25    0.16292      0.00000     0.33513    0.00195     0.33708
      H   26    0.09947      0.00000     0.39843    0.00210     0.40053
      H   27    0.19688      0.00000     0.29973    0.00338     0.30312
      H   28    0.09223      0.00000     0.40599    0.00178     0.40777
      H   29    0.10455      0.00000     0.38790    0.00755     0.39545
      H   30    0.08524      0.00000     0.41259    0.00217     0.41476
      H   31    0.10940      0.00000     0.38873    0.00186     0.39060
 =======================================================================
   * Total *    0.00000     15.99477    43.76518    0.24005    60.00000

 Normal termination of Gaussian 16 at Thu Dec 10 22:01:09 2020.
