 Gaussian 16, Revision A.03,

 -----------------------------------------------------------
 # opt freq B3LYP/6-31G(d) empiricaldispersion=gd3bj scf=xqc
 -----------------------------------------------------------

 ------------------------------
 CID_65275436_JID_4576_neutraal
 ------------------------------
 Symbolic Z-matrix:
 Charge =  0 Multiplicity = 1

 SCF Done:  E(RB3LYP) =  -989.652817501     A.U. after   15 cycles
 SCF Done:  E(RB3LYP) =  -989.659101424     A.U. after   12 cycles
 SCF Done:  E(RB3LYP) =  -989.660214100     A.U. after   12 cycles
 SCF Done:  E(RB3LYP) =  -989.660600628     A.U. after   11 cycles
 SCF Done:  E(RB3LYP) =  -989.661135370     A.U. after   13 cycles
 SCF Done:  E(RB3LYP) =  -989.661150390     A.U. after   14 cycles
 SCF Done:  E(RB3LYP) =  -989.661817785     A.U. after   11 cycles
 SCF Done:  E(RB3LYP) =  -989.662168844     A.U. after   11 cycles
 SCF Done:  E(RB3LYP) =  -989.662282172     A.U. after   11 cycles
 SCF Done:  E(RB3LYP) =  -989.662355883     A.U. after   11 cycles
 SCF Done:  E(RB3LYP) =  -989.662363410     A.U. after   10 cycles
 SCF Done:  E(RB3LYP) =  -989.662367366     A.U. after    8 cycles
 SCF Done:  E(RB3LYP) =  -989.662367709     A.U. after    7 cycles
 SCF Done:  E(RB3LYP) =  -989.662367765     A.U. after    7 cycles
 Optimization completed.
    -- Stationary point found.
 Normal termination of Gaussian 16 at Thu Dec 10 10:09:22 2020.

 --------------------------------------------------------------------
 #N Geom=AllCheck Guess=TCheck SCRF=Check GenChk RB3LYP/6-31G(d) Freq
 --------------------------------------------------------------------

 Structure from the checkpoint file:  "JID_4576.chk"
 ------------------------------
 CID_65275436_JID_4576_neutraal
 ------------------------------
 Charge =  0 Multiplicity = 1

 SCF Done:  E(RB3LYP) =  -989.662367765     A.U. after    1 cycles

  Exact polarizability: 152.290   1.167 135.945  -0.001  -0.002  98.367
 Approx polarizability: 212.582   4.660 220.476  -0.003  -0.007 144.598

                      1                      2                      3
                      A                      A                      A
 Frequencies --     21.9211                52.0860                59.9887
 Red. masses --      3.1231                 6.0923                 4.2993
 Frc consts  --      0.0009                 0.0097                 0.0091
 IR Inten    --      0.0319                 0.1013                 2.1598

                      4                      5                      6
                      A                      A                      A
 Frequencies --     86.9305               126.8138               135.1533
 Red. masses --      2.9449                 3.1107                 3.3974
 Frc consts  --      0.0131                 0.0295                 0.0366
 IR Inten    --      2.8185                 3.8661                 0.0557

                      7                      8                      9
                      A                      A                      A
 Frequencies --    214.5048               224.8041               271.8636
 Red. masses --      2.7942                 1.0323                 2.0369
 Frc consts  --      0.0757                 0.0307                 0.0887
 IR Inten    --      9.5854                 0.0001                 0.2459

                     10                     11                     12
                      A                      A                      A
 Frequencies --    278.3494               284.0459               292.6631
 Red. masses --      1.1868                 1.6364                 3.4418
 Frc consts  --      0.0542                 0.0778                 0.1737
 IR Inten    --      1.3082                 0.1594                 4.9384

                     13                     14                     15
                      A                      A                      A
 Frequencies --    308.0171               330.6410               342.5493
 Red. masses --      3.1364                 3.0934                 2.8888
 Frc consts  --      0.1753                 0.1993                 0.1997
 IR Inten    --      1.5900                 2.1120                 1.9916

                     16                     17                     18
                      A                      A                      A
 Frequencies --    379.0470               413.2348               457.3514
 Red. masses --      4.4453                 3.0996                 3.2074
 Frc consts  --      0.3763                 0.3118                 0.3953
 IR Inten    --      6.9812                 2.3557                 3.2141

                     19                     20                     21
                      A                      A                      A
 Frequencies --    502.9213               561.8689               612.0188
 Red. masses --      2.7379                 3.1035                10.5726
 Frc consts  --      0.4080                 0.5773                 2.3333
 IR Inten    --      1.3907                 1.8021                 8.9825

                     22                     23                     24
                      A                      A                      A
 Frequencies --    618.3460               652.7168               764.8397
 Red. masses --     11.7593                 5.6054                 8.4177
 Frc consts  --      2.6491                 1.4070                 2.9012
 IR Inten    --      2.3892                 2.0351                 3.4180

                     25                     26                     27
                      A                      A                      A
 Frequencies --    767.4461               794.6446               837.5730
 Red. masses --      9.9065                 8.0190                 3.1845
 Frc consts  --      3.4377                 2.9834                 1.3163
 IR Inten    --      7.7443                24.8191                 5.0983

                     28                     29                     30
                      A                      A                      A
 Frequencies --    853.2021               881.1993               896.6966
 Red. masses --      2.4921                 1.1811                 1.2409
 Frc consts  --      1.0688                 0.5403                 0.5879
 IR Inten    --     74.9290                 1.7375                23.4684

                     31                     32                     33
                      A                      A                      A
 Frequencies --    947.9356               948.1063               959.4137
 Red. masses --      1.7825                 4.3650                 1.6850
 Frc consts  --      0.9437                 2.3118                 0.9138
 IR Inten    --      0.7397                33.7004                 0.0596

                     34                     35                     36
                      A                      A                      A
 Frequencies --    977.1927               980.8692               991.3438
 Red. masses --      4.0850                 1.2008                 4.5008
 Frc consts  --      2.2983                 0.6807                 2.6061
 IR Inten    --     11.5384                 0.0729                24.9584

                     37                     38                     39
                      A                      A                      A
 Frequencies --   1049.9269              1060.1216              1063.6147
 Red. masses --      2.5730                 1.4077                 1.4116
 Frc consts  --      1.6711                 0.9321                 0.9409
 IR Inten    --      0.7871                 0.0225                 3.3952

                     40                     41                     42
                      A                      A                      A
 Frequencies --   1094.3742              1095.4545              1186.5325
 Red. masses --      1.3219                 4.0029                 2.3136
 Frc consts  --      0.9328                 2.8302                 1.9191
 IR Inten    --      4.2784                85.5451                60.5840

                     43                     44                     45
                      A                      A                      A
 Frequencies --   1233.4441              1244.2474              1261.1285
 Red. masses --      3.2503                 2.6426                 3.2691
 Frc consts  --      2.9135                 2.4104                 3.0634
 IR Inten    --    122.8083                 2.9177               120.4510

                     46                     47                     48
                      A                      A                      A
 Frequencies --   1267.4538              1277.4198              1280.4230
 Red. masses --      4.8427                 1.3036                 1.3094
 Frc consts  --      4.5835                 1.2533                 1.2648
 IR Inten    --    176.0710                 0.0343                10.1395

                     49                     50                     51
                      A                      A                      A
 Frequencies --   1320.4856              1341.7743              1360.7953
 Red. masses --      1.2846                 1.4455                 4.9736
 Frc consts  --      1.3197                 1.5333                 5.4263
 IR Inten    --      0.6567                15.3429                79.8256

                     52                     53                     54
                      A                      A                      A
 Frequencies --   1414.8324              1420.0056              1420.1797
 Red. masses --      1.1589                 1.3178                 1.2155
 Frc consts  --      1.3668                 1.5656                 1.4444
 IR Inten    --     10.2341                37.3642                 5.0813

                     55                     56                     57
                      A                      A                      A
 Frequencies --   1428.3145              1455.0449              1506.5740
 Red. masses --      1.2493                 1.2587                 1.0485
 Frc consts  --      1.5017                 1.5701                 1.4022
 IR Inten    --      3.4497                15.1008                 0.0250

                     58                     59                     60
                      A                      A                      A
 Frequencies --   1513.8346              1518.6071              1520.3524
 Red. masses --      1.2488                 1.0816                 1.0455
 Frc consts  --      1.6861                 1.4696                 1.4239
 IR Inten    --     16.0470                 0.6056                 0.1951

                     61                     62                     63
                      A                      A                      A
 Frequencies --   1523.4272              1529.5687              1531.1360
 Red. masses --      2.4532                 1.0506                 1.0559
 Frc consts  --      3.3546                 1.4482                 1.4585
 IR Inten    --     86.1719                 4.0327                 4.9765

                     64                     65                     66
                      A                      A                      A
 Frequencies --   1541.8071              1556.2288              1596.4226
 Red. masses --      1.1623                 1.2305                 7.1418
 Frc consts  --      1.6279                 1.7558                10.7239
 IR Inten    --     21.2617                22.8523               302.9320

                     67                     68                     69
                      A                      A                      A
 Frequencies --   3048.4974              3050.9672              3060.4622
 Red. masses --      1.0346                 1.0353                 1.0366
 Frc consts  --      5.6650                 5.6781                 5.7203
 IR Inten    --     28.1028                12.9793                30.2214

                     70                     71                     72
                      A                      A                      A
 Frequencies --   3083.4860              3085.7796              3115.1054
 Red. masses --      1.0610                 1.0670                 1.1031
 Frc consts  --      5.9438                 5.9862                 6.3070
 IR Inten    --     76.1712                 5.7930                12.3524

                     73                     74                     75
                      A                      A                      A
 Frequencies --   3117.0524              3121.6409              3128.4209
 Red. masses --      1.1024                 1.0880                 1.1012
 Frc consts  --      6.3106                 6.2466                 6.3501
 IR Inten    --     22.4223                19.7771                45.3081

                     76                     77                     78
                      A                      A                      A
 Frequencies --   3133.5510              3137.3488              3140.2032
 Red. masses --      1.1026                 1.1016                 1.1025
 Frc consts  --      6.3790                 6.3886                 6.4053
 IR Inten    --      1.7474                42.5085                24.7781

                     79                     80                     81
                      A                      A                      A
 Frequencies --   3155.0146              3159.1990              3482.1106
 Red. masses --      1.1054                 1.1038                 1.0755
 Frc consts  --      6.4830                 6.4909                 7.6829
 IR Inten    --      0.2626                42.2503                 1.4046

 - Thermochemistry -
 -------------------
 Temperature   298.150 Kelvin.  Pressure   1.00000 Atm.
 Atom     1 has atomic number  6 and mass  12.00000

 Molecular mass:   213.09358 amu.
 Principal axes and moments of inertia in atomic units:
                           1         2         3
     Eigenvalues --  2022.653274040.283295390.60064
           X            0.99971  -0.02395   0.00000
           Y            0.02395   0.99971  -0.00000
           Z           -0.00000   0.00000   1.00000
 This molecule is an asymmetric top.
 Rotational symmetry number  1.
 Warning -- assumption of classical behavior for rotation
           may cause significant error
 Rotational temperatures (Kelvin)      0.04282     0.02144     0.01607
 Rotational constants (GHZ):           0.89226     0.44669     0.33479
 Zero-point vibrational energy     636776.2 (Joules/Mol)
                                  152.19317 (Kcal/Mol)
 Warning -- explicit consideration of  22 degrees of freedom as
           vibrations may cause significant error
 Vibrational temperatures:     31.54    74.94    86.31   125.07   182.46
          (Kelvin)            194.46   308.62   323.44   391.15   400.48
                              408.68   421.08   443.17   475.72   492.85
                              545.36   594.55   658.03   723.59   808.40
                              880.56   889.66   939.11  1100.43  1104.18
                             1143.32  1205.08  1227.57  1267.85  1290.15
                             1363.87  1364.11  1380.38  1405.96  1411.25
                             1426.32  1510.61  1525.28  1530.30  1574.56
                             1576.11  1707.16  1774.65  1790.19  1814.48
                             1823.58  1837.92  1842.24  1899.88  1930.51
                             1957.88  2035.63  2043.07  2043.32  2055.03
                             2093.49  2167.62  2178.07  2184.94  2187.45
                             2191.87  2200.71  2202.96  2218.32  2239.07
                             2296.90  4386.11  4389.66  4403.32  4436.45
                             4439.75  4481.94  4484.74  4491.34  4501.10
                             4508.48  4513.95  4518.05  4539.36  4545.38
                             5009.98

 Zero-point correction=                           0.242535 (Hartree/Particle)
 Thermal correction to Energy=                    0.256840
 Thermal correction to Enthalpy=                  0.257784
 Thermal correction to Gibbs Free Energy=         0.200226
 Sum of electronic and zero-point Energies=           -989.419833
 Sum of electronic and thermal Energies=              -989.405528
 Sum of electronic and thermal Enthalpies=            -989.404584
 Sum of electronic and thermal Free Energies=         -989.462142

                     E (Thermal)             CV                S
                      KCal/Mol        Cal/Mol-Kelvin    Cal/Mol-Kelvin
 Total                  161.169             53.635            121.141
 Electronic               0.000              0.000              0.000
 Translational            0.889              2.981             41.973
 Rotational               0.889              2.981             32.155
 Vibrational            159.392             47.673             47.013
 Vibration     1          0.593              1.985              6.452
 Vibration     2          0.596              1.977              4.737
 Vibration     3          0.597              1.973              4.458
 Vibration     4          0.601              1.958              3.728
 Vibration     5          0.611              1.926              2.994
 Vibration     6          0.613              1.918              2.871
 Vibration     7          0.644              1.819              2.005
 Vibration     8          0.649              1.803              1.920
 Vibration     9          0.675              1.725              1.584
 Vibration    10          0.679              1.714              1.544
 Vibration    11          0.682              1.703              1.509
 Vibration    12          0.688              1.687              1.459
 Vibration    13          0.698              1.658              1.373
 Vibration    14          0.713              1.614              1.257
 Vibration    15          0.722              1.590              1.200
 Vibration    16          0.749              1.515              1.043
 Vibration    17          0.777              1.441              0.915
 Vibration    18          0.815              1.345              0.774
 Vibration    19          0.858              1.244              0.651
 Vibration    20          0.918              1.114              0.520
 Vibration    21          0.971              1.006              0.429
 Vibration    22          0.978              0.993              0.419

                           ! Non-Optimized Parameters !
 Normal termination of Gaussian 16 at Thu Dec 10 10:18:20 2020.

 ----------------------------------------------------------------------
 # B3LYP/6-311++G(d,p) empiricaldispersion=gd3bj scf=xqc pop=npa geom=c
 heck
 ----------------------------------------------------------------------

 --------------------------------------
 CID_65275436_JID_4576_Energie_neutraal
 --------------------------------------
 Structure from the checkpoint file:  "JID_4576.chk"
 Charge =  0 Multiplicity = 1

 SCF Done:  E(RB3LYP) =  -989.852976046     A.U. after   15 cycles
 Normal termination of Gaussian 16 at Thu Dec 10 10:22:46 2020.

 ----------------------------------------------------------------------
 # B3LYP/6-311++G(d,p) empiricaldispersion=gd3bj scf=xqc pop=npa geom=c
 heck
 ----------------------------------------------------------------------

 ------------------------------------
 CID_65275436_JID_4576_Energie_kation
 ------------------------------------
 Structure from the checkpoint file:  "JID_4576.chk"
 Charge =  1 Multiplicity = 2

 SCF Done:  E(UB3LYP) =  -989.538868798     A.U. after   33 cycles
 SCF Done:  E(UB3LYP) =  -989.538868798     a.u. after    1 cycles
 Normal termination of Gaussian 16 at Thu Dec 10 10:37:07 2020.
 Gaussian 16:  ES64L-G16RevA.03 25-Dec-2016

 ----------------------------------------------------------------------
 # B3LYP/6-311++G(d,p) empiricaldispersion=gd3bj scf=xqc pop=npa geom=c
 heck
 ----------------------------------------------------------------------

 -----------------------------------
 CID_65275436_JID_4576_Energie_anion
 -----------------------------------
 Structure from the checkpoint file:  "JID_4576.chk"
 Charge = -1 Multiplicity = 2

                         Standard orientation:
 ---------------------------------------------------------------------
 Center     Atomic      Atomic             Coordinates (Angstroms)
 Number     Number       Type             X           Y           Z
 ---------------------------------------------------------------------
      1          6           0        2.004790   -1.781064    1.259371
      2          6           0        2.286164   -0.935026    0.000001
      3          6           0        3.745801   -0.462580   -0.000300
      4          6           0        2.004360   -1.781430   -1.259021
      5          6           0        1.339937    0.249325    0.000054
      6          7           0        1.777023    1.486068   -0.000052
      7         16           0        0.434624    2.521509   -0.000077
      8          6           0       -0.654299    1.144765    0.000053
      9          7           0       -0.022922    0.006459    0.000202
     10          8           0       -1.964960    1.356173    0.000161
     11          6           0       -2.879486    0.238623    0.000031
     12          6           0       -2.813667   -0.875568   -1.061646
     13          7           0       -3.164049   -1.877850   -0.000200
     14          6           0       -2.814106   -0.875760    1.061575
     15          1           0        2.658924   -2.660347    1.271557
     16          1           0        0.965543   -2.122261    1.277144
     17          1           0        2.194720   -1.202248    2.170165
     18          1           0        4.412725   -1.331940   -0.000110
     19          1           0        3.965548    0.144524   -0.883280
     20          1           0        3.965740    0.145078    0.882243
     21          1           0        0.965071   -2.122505   -1.276426
     22          1           0        2.194102   -1.202921   -2.170054
     23          1           0        2.658413   -2.660775   -1.271133
     24          1           0       -3.852726    0.732893   -0.000074
     25          1           0       -3.512825   -0.802543   -1.900659
     26          1           0       -1.804706   -1.057971   -1.434256
     27          1           0       -4.173144   -2.021886   -0.000418
     28          1           0       -1.805334   -1.058240    1.434628
     29          1           0       -3.513683   -0.802837    1.900249
 ---------------------------------------------------------------------

 SCF Done:  E(UB3LYP) =  -989.842004843     A.U. after   33 cycles
 SCF Done:  E(UB3LYP) =  -989.842004843     a.u. after    1 cycles

 The electronic state is 2-A.
 Alpha  occ. eigenvalues --  -88.79672 -19.08078 -14.22509 -14.21362 -14.19588
 Alpha  occ. eigenvalues --  -10.19468 -10.14072 -10.13510 -10.10313 -10.09201
 Alpha  occ. eigenvalues --  -10.08919 -10.07194 -10.06842 -10.06823  -7.88151
 Alpha  occ. eigenvalues --   -5.84539  -5.84102  -5.83630  -1.00379  -0.90112
 Alpha  occ. eigenvalues --   -0.82745  -0.77469  -0.73780  -0.66843  -0.61860
 Alpha  occ. eigenvalues --   -0.59909  -0.59751  -0.57749  -0.53343  -0.52677
 Alpha  occ. eigenvalues --   -0.45802  -0.45120  -0.41484  -0.40296  -0.38776
 Alpha  occ. eigenvalues --   -0.37773  -0.35245  -0.34417  -0.33969  -0.31971
 Alpha  occ. eigenvalues --   -0.31603  -0.29884  -0.29699  -0.29586  -0.28267
 Alpha  occ. eigenvalues --   -0.27730  -0.27158  -0.26368  -0.25071  -0.24692
 Alpha  occ. eigenvalues --   -0.24196  -0.22548  -0.21254  -0.19093  -0.18304
 Alpha  occ. eigenvalues --   -0.15140  -0.12762   0.04510
 Alpha virt. eigenvalues --    0.05988   0.06265   0.08012   0.08366   0.08541
 Alpha virt. eigenvalues --    0.08871   0.09057   0.09632   0.10878   0.11053
 Alpha virt. eigenvalues --    0.11086   0.12113   0.12391   0.12911   0.13214

  Beta  occ. eigenvalues --  -88.79664 -19.08058 -14.22419 -14.21382 -14.19558
  Beta  occ. eigenvalues --  -10.19322 -10.14026 -10.13484 -10.10316 -10.09185
  Beta  occ. eigenvalues --  -10.08888 -10.07189 -10.06834 -10.06799  -7.88144
  Beta  occ. eigenvalues --   -5.84537  -5.84101  -5.83599  -1.00293  -0.90022
  Beta  occ. eigenvalues --   -0.82691  -0.77373  -0.73743  -0.66738  -0.61788
  Beta  occ. eigenvalues --   -0.59888  -0.59718  -0.57684  -0.53229  -0.52592
  Beta  occ. eigenvalues --   -0.45719  -0.45053  -0.41404  -0.40204  -0.38747
  Beta  occ. eigenvalues --   -0.37495  -0.35184  -0.34393  -0.33912  -0.31870
  Beta  occ. eigenvalues --   -0.31541  -0.29848  -0.29643  -0.29533  -0.28198
  Beta  occ. eigenvalues --   -0.27710  -0.27029  -0.26309  -0.25017  -0.24653
  Beta  occ. eigenvalues --   -0.24169  -0.22356  -0.21169  -0.18967  -0.18266
  Beta  occ. eigenvalues --   -0.14793  -0.12721
  Beta virt. eigenvalues --    0.06237   0.07199   0.07736   0.08171   0.08714
  Beta virt. eigenvalues --    0.08744   0.09058   0.09761   0.10098   0.10999
  Beta virt. eigenvalues --    0.11009   0.11618   0.12303   0.12552   0.13204

 Mulliken charges and spin densities:
               1          2
     1  C   -0.121704  -0.486588
     2  C   -0.173987   1.502966
     3  C   -0.217014  -0.443519
     4  C   -0.529191  -0.081604
     5  C   -0.343491  -0.998094
     6  N    0.051565   0.025692
     7  S    0.191376   0.031895
     8  C    0.262346  -0.292592
     9  N    0.087013  -0.007194
    10  O   -0.024321  -0.014096
    11  C   -1.285755   1.216511
    12  C    1.097010  -1.542587
    13  N   -0.147410   0.067565
    14  C    1.636538  -2.085427
    15  H   -0.207940   0.362300
    16  H    0.183732  -0.032023
    17  H    0.017354   0.132007
    18  H   -0.019945   0.162906
    19  H    0.108231   0.047534
    20  H    0.120985   0.038483
    21  H    0.118926   0.030750
    22  H    0.115296   0.029434
    23  H    0.055353   0.095204
    24  H   -1.078214   1.342500
    25  H   -0.493459   0.643736
    26  H    0.265181  -0.057138
    27  H   -0.069836   0.337688
    28  H    0.158645   0.053871
    29  H   -0.757283   0.919818
 Sum of Mulliken charges =  -1.00000   1.00000

 Dipole moment (field-independent basis, Debye):
    X=              9.2105    Y=              2.1704    Z=             -1.9090  Tot=              9.6534
 Quadrupole moment (field-independent basis, Debye-Ang):
   XX=           -191.5887   YY=           -130.2697   ZZ=           -118.4590
   XY=             -5.6618   XZ=              1.8438   YZ=              2.3885

 Summary of Natural Population Analysis:

                                       Natural Population
                Natural  -----------------------------------------------
    Atom  No    Charge         Core      Valence    Rydberg      Total
 -----------------------------------------------------------------------
      C    1   -0.28121      0.99963     2.27437    0.00721     3.28121
      C    2   -0.06344      0.99954     2.05304    0.01086     3.06344
      C    3   -0.28180      0.99964     2.27586    0.00631     3.28180
      C    4   -0.27953      0.99963     2.27438    0.00552     3.27953
      C    5    0.21887      0.99957     1.76184    0.01971     2.78113
      N    6   -0.31648      0.99967     2.80652    0.01028     3.81648
      S    7    0.24359      4.99946     2.73288    0.02407     7.75641
      C    8    0.22948      0.99955     1.74608    0.02489     2.77052
      N    9   -0.30283      0.99961     2.79353    0.00970     3.80283
      O   10   -0.26684      0.99983     3.25713    0.00988     4.26684
      C   11    0.04689      0.99948     1.93507    0.01856     2.95311
      C   12   -0.09647      0.99963     2.08612    0.01073     3.09647
      N   13   -0.33411      0.99978     2.82014    0.01418     3.83411
      C   14   -0.09564      0.99963     2.08507    0.01094     3.09564
      H   15    0.09767      0.00000     0.40141    0.00092     0.40233
      H   16    0.10894      0.00000     0.39006    0.00100     0.39106
      H   17    0.10023      0.00000     0.39896    0.00081     0.39977
      H   18    0.09545      0.00000     0.40368    0.00086     0.40455
      H   19    0.10364      0.00000     0.39523    0.00112     0.39636
      H   20    0.10465      0.00000     0.39413    0.00122     0.39535
      H   21    0.10864      0.00000     0.39042    0.00095     0.39136
      H   22    0.09865      0.00000     0.40056    0.00079     0.40135
      H   23    0.09657      0.00000     0.40264    0.00078     0.40343
      H   24    0.10194      0.00000     0.39267    0.00539     0.39806
      H   25    0.09325      0.00000     0.40505    0.00171     0.40675
      H   26    0.09856      0.00000     0.39924    0.00220     0.40144
      H   27    0.17625      0.00000     0.31736    0.00639     0.32375
      H   28    0.09896      0.00000     0.39858    0.00245     0.40104
      H   29    0.09615      0.00000     0.40037    0.00349     0.40385
 =======================================================================
   * Total *    0.00000     17.99466    38.79240    0.21294    57.00000

 Normal termination of Gaussian 16 at Thu Dec 10 10:51:24 2020.
