 Gaussian 16, Revision A.03,

 -----------------------------------------------------------
 # opt freq B3LYP/6-31G(d) empiricaldispersion=gd3bj scf=xqc
 -----------------------------------------------------------

 -------------------------------
 CID_143333898_JID_1137_neutraal
 -------------------------------
 Symbolic Z-matrix:
 Charge =  0 Multiplicity = 1

 SCF Done:  E(RB3LYP) =  -428.671208556     A.U. after   16 cycles
 SCF Done:  E(RB3LYP) =  -428.690106738     A.U. after   13 cycles
 SCF Done:  E(RB3LYP) =  -428.693998512     A.U. after   13 cycles
 SCF Done:  E(RB3LYP) =  -428.695357433     A.U. after   13 cycles
 SCF Done:  E(RB3LYP) =  -428.695870694     A.U. after   12 cycles
 SCF Done:  E(RB3LYP) =  -428.696030121     A.U. after   12 cycles
 SCF Done:  E(RB3LYP) =  -428.696077254     A.U. after   11 cycles
 SCF Done:  E(RB3LYP) =  -428.696091765     A.U. after   10 cycles
 SCF Done:  E(RB3LYP) =  -428.696094924     A.U. after    9 cycles
 SCF Done:  E(RB3LYP) =  -428.696095556     A.U. after    8 cycles
 SCF Done:  E(RB3LYP) =  -428.696095674     A.U. after    8 cycles
 Optimization completed.
    -- Stationary point found.
 Normal termination of Gaussian 16 at Tue Dec  8 19:15:42 2020.

 --------------------------------------------------------------------
 #N Geom=AllCheck Guess=TCheck SCRF=Check GenChk RB3LYP/6-31G(d) Freq
 --------------------------------------------------------------------

 Structure from the checkpoint file:  "JID_1137.chk"
 -------------------------------
 CID_143333898_JID_1137_neutraal
 -------------------------------
 Charge =  0 Multiplicity = 1

 SCF Done:  E(RB3LYP) =  -428.696095674     A.U. after    1 cycles

  Exact polarizability: 139.060  -6.277 114.293  -1.398   0.562  92.051
 Approx polarizability: 233.900 -16.000 172.191  -6.607   5.605 147.588

                      1                      2                      3
                      A                      A                      A
 Frequencies --     55.6351               121.1614               164.9853
 Red. masses --      2.7750                 2.7030                 1.9941
 Frc consts  --      0.0051                 0.0234                 0.0320
 IR Inten    --      0.0904                 0.4158                 1.8581

                      4                      5                      6
                      A                      A                      A
 Frequencies --    194.3397               225.2620               234.2504
 Red. masses --      1.2166                 1.2247                 2.7633
 Frc consts  --      0.0271                 0.0366                 0.0893
 IR Inten    --      1.4823                 0.2459                 0.9439

                      7                      8                      9
                      A                      A                      A
 Frequencies --    236.6102               274.5041               309.0829
 Red. masses --      1.4508                 1.7374                 2.8593
 Frc consts  --      0.0479                 0.0771                 0.1609
 IR Inten    --      0.1413                 0.0843                 0.7211

                     10                     11                     12
                      A                      A                      A
 Frequencies --    323.5465               364.8100               388.2853
 Red. masses --      3.0620                 2.2442                 3.1090
 Frc consts  --      0.1889                 0.1760                 0.2762
 IR Inten    --      0.9819                10.8742                18.3504

                     13                     14                     15
                      A                      A                      A
 Frequencies --    405.5967               458.2606               470.9772
 Red. masses --      2.7610                 2.8686                 2.2923
 Frc consts  --      0.2676                 0.3549                 0.2996
 IR Inten    --      0.7644                40.3535                 2.7641

                     16                     17                     18
                      A                      A                      A
 Frequencies --    511.8333               544.2428               598.7041
 Red. masses --      3.4438                 3.3097                 2.7617
 Frc consts  --      0.5316                 0.5776                 0.5832
 IR Inten    --     16.8092                30.2316                 5.0355

                     19                     20                     21
                      A                      A                      A
 Frequencies --    660.9131               776.2197               797.9306
 Red. masses --      3.1958                 3.3174                 1.7176
 Frc consts  --      0.8225                 1.1777                 0.6443
 IR Inten    --      1.0793                 7.2215               169.5371

                     22                     23                     24
                      A                      A                      A
 Frequencies --    824.4711               856.6163               892.0372
 Red. masses --      1.9557                 1.8982                 2.1421
 Frc consts  --      0.7833                 0.8207                 1.0043
 IR Inten    --      4.0250                 6.0049                 7.1685

                     25                     26                     27
                      A                      A                      A
 Frequencies --    931.5672               938.4723               946.5942
 Red. masses --      1.5479                 1.6289                 1.7344
 Frc consts  --      0.7915                 0.8453                 0.9157
 IR Inten    --     27.9528                18.4623                 3.2531

                     28                     29                     30
                      A                      A                      A
 Frequencies --   1035.3503              1039.2069              1041.7844
 Red. masses --      1.7063                 1.3237                 1.8100
 Frc consts  --      1.0776                 0.8422                 1.1574
 IR Inten    --      3.9451                34.3932                 3.2647

                     31                     32                     33
                      A                      A                      A
 Frequencies --   1066.1367              1085.5446              1095.5419
 Red. masses --      1.5393                 1.9597                 1.8129
 Frc consts  --      1.0308                 1.3606                 1.2820
 IR Inten    --      2.9091                11.7108                 9.7830

                     34                     35                     36
                      A                      A                      A
 Frequencies --   1098.1275              1124.3187              1144.3083
 Red. masses --      1.4893                 2.4463                 2.4916
 Frc consts  --      1.0581                 1.8220                 1.9223
 IR Inten    --      8.1015                 3.8941                 0.6212

                     37                     38                     39
                      A                      A                      A
 Frequencies --   1169.6953              1214.9391              1223.9408
 Red. masses --      1.9325                 1.9620                 1.2578
 Frc consts  --      1.5578                 1.7063                 1.1101
 IR Inten    --     24.5143                 0.3546                 3.2058

                     40                     41                     42
                      A                      A                      A
 Frequencies --   1255.3999              1304.4716              1350.4982
 Red. masses --      1.5015                 1.3095                 1.3599
 Frc consts  --      1.3942                 1.3129                 1.4614
 IR Inten    --      8.5550                13.9732                 0.8656

                     43                     44                     45
                      A                      A                      A
 Frequencies --   1354.8735              1356.6888              1410.1379
 Red. masses --      1.3279                 1.3687                 1.2904
 Frc consts  --      1.4362                 1.4843                 1.5118
 IR Inten    --      3.0671                 0.1674                10.0752

                     46                     47                     48
                      A                      A                      A
 Frequencies --   1431.9707              1436.6740              1439.0518
 Red. masses --      1.2480                 1.3471                 1.2300
 Frc consts  --      1.5077                 1.6382                 1.5008
 IR Inten    --      2.6197                 6.9622                 1.7384

                     49                     50                     51
                      A                      A                      A
 Frequencies --   1455.4028              1499.7223              1507.1408
 Red. masses --      1.2280                 1.1020                 1.0904
 Frc consts  --      1.5325                 1.4604                 1.4593
 IR Inten    --      1.2090                 4.2917                 3.7244

                     52                     53                     54
                      A                      A                      A
 Frequencies --   1512.5262              1524.4597              1526.1730
 Red. masses --      1.0517                 1.0581                 1.0628
 Frc consts  --      1.4175                 1.4488                 1.4585
 IR Inten    --      4.4142                 1.0109                10.5264

                     55                     56                     57
                      A                      A                      A
 Frequencies --   1527.2548              1530.7938              1616.1093
 Red. masses --      1.0473                 1.0640                 5.0447
 Frc consts  --      1.4393                 1.4690                 7.7629
 IR Inten    --      4.2084                 5.8119                21.8848

                     58                     59                     60
                      A                      A                      A
 Frequencies --   1632.4415              1654.1129              3006.6196
 Red. masses --      4.6336                 5.3463                 1.0822
 Frc consts  --      7.2752                 8.6185                 5.7636
 IR Inten    --      0.9022                 2.8850                16.4739

                     61                     62                     63
                      A                      A                      A
 Frequencies --   3011.0940              3015.5865              3028.1961
 Red. masses --      1.0556                 1.0490                 1.0406
 Frc consts  --      5.6387                 5.6207                 5.6223
 IR Inten    --     28.5095                34.7130                66.0967

                     64                     65                     66
                      A                      A                      A
 Frequencies --   3046.6314              3053.9647              3069.1476
 Red. masses --      1.0357                 1.1005                 1.0927
 Frc consts  --      5.6639                 6.0476                 6.0641
 IR Inten    --     29.4425                15.2261                23.3191

                     67                     68                     69
                      A                      A                      A
 Frequencies --   3071.6768              3092.9901              3111.6362
 Red. masses --      1.0998                 1.0859                 1.0991
 Frc consts  --      6.1137                 6.1207                 6.2698
 IR Inten    --     30.1743                23.3165                20.2126

                     70                     71                     72
                      A                      A                      A
 Frequencies --   3113.6008              3127.0049              3128.6353
 Red. masses --      1.0891                 1.1021                 1.0981
 Frc consts  --      6.2210                 6.3492                 6.3331
 IR Inten    --     27.9769                21.7277                22.0305

                     73                     74                     75
                      A                      A                      A
 Frequencies --   3132.1385              3134.1698              3174.1340
 Red. masses --      1.0977                 1.0874                 1.0877
 Frc consts  --      6.3446                 6.2935                 6.4566
 IR Inten    --     36.3832                31.5101                21.8250

 - Thermochemistry -
 -------------------
 Temperature   298.150 Kelvin.  Pressure   1.00000 Atm.
 Atom     1 has atomic number  6 and mass  12.00000

 Molecular mass:   148.12520 amu.
 Principal axes and moments of inertia in atomic units:
                           1         2         3
     Eigenvalues --  1360.495411691.058262577.09048
           X            0.99986  -0.01491  -0.00709
           Y            0.01478   0.99972  -0.01852
           Z            0.00736   0.01841   0.99980
 This molecule is an asymmetric top.
 Rotational symmetry number  1.
 Warning -- assumption of classical behavior for rotation
           may cause significant error
 Rotational temperatures (Kelvin)      0.06366     0.05122     0.03361
 Rotational constants (GHZ):           1.32653     1.06723     0.70030
 Zero-point vibrational energy     630963.9 (Joules/Mol)
                                  150.80400 (Kcal/Mol)
 Warning -- explicit consideration of  18 degrees of freedom as
           vibrations may cause significant error
 Vibrational temperatures:     80.05   174.32   237.38   279.61   324.10
          (Kelvin)            337.03   340.43   394.95   444.70   465.51
                              524.88   558.66   583.56   659.33   677.63
                              736.41   783.04   861.40   950.91  1116.81
                             1148.04  1186.23  1232.48  1283.44  1340.32
                             1350.25  1361.94  1489.64  1495.19  1498.90
                             1533.93  1561.86  1576.24  1579.96  1617.64
                             1646.40  1682.93  1748.03  1760.98  1806.24
                             1876.84  1943.07  1949.36  1951.97  2028.87
                             2060.29  2067.05  2070.47  2094.00  2157.77
                             2168.44  2176.19  2193.36  2195.82  2197.38
                             2202.47  2325.22  2348.72  2379.90  4325.86
                             4332.29  4338.76  4356.90  4383.42  4393.97
                             4415.82  4419.46  4450.12  4476.95  4479.78
                             4499.06  4501.41  4506.45  4509.37  4566.87

 Zero-point correction=                           0.240321 (Hartree/Particle)
 Thermal correction to Energy=                    0.251735
 Thermal correction to Enthalpy=                  0.252679
 Thermal correction to Gibbs Free Energy=         0.204162
 Sum of electronic and zero-point Energies=           -428.455774
 Sum of electronic and thermal Energies=              -428.444361
 Sum of electronic and thermal Enthalpies=            -428.443416
 Sum of electronic and thermal Free Energies=         -428.491934

                     E (Thermal)             CV                S
                      KCal/Mol        Cal/Mol-Kelvin    Cal/Mol-Kelvin
 Total                  157.966             44.916            102.113
 Electronic               0.000              0.000              0.000
 Translational            0.889              2.981             40.889
 Rotational               0.889              2.981             30.162
 Vibrational            156.189             38.955             31.062
 Vibration     1          0.596              1.975              4.606
 Vibration     2          0.609              1.932              3.082
 Vibration     3          0.623              1.885              2.492
 Vibration     4          0.635              1.848              2.186
 Vibration     5          0.650              1.803              1.916
 Vibration     6          0.654              1.788              1.846
 Vibration     7          0.655              1.785              1.828
 Vibration     8          0.677              1.720              1.568
 Vibration     9          0.698              1.656              1.367
 Vibration    10          0.708              1.628              1.292
 Vibration    11          0.738              1.545              1.102
 Vibration    12          0.756              1.495              1.007
 Vibration    13          0.771              1.458              0.942
 Vibration    14          0.816              1.343              0.771
 Vibration    15          0.828              1.314              0.735
 Vibration    16          0.867              1.224              0.629
 Vibration    17          0.899              1.152              0.556
 Vibration    18          0.957              1.035              0.452

 Optimization completed.
    -- Stationary point found.
 Normal termination of Gaussian 16 at Tue Dec  8 19:22:14 2020.

 ----------------------------------------------------------------------
 # B3LYP/6-311++G(d,p) empiricaldispersion=gd3bj scf=xqc pop=npa geom=c
 heck
 ----------------------------------------------------------------------

 ---------------------------------------
 CID_143333898_JID_1137_Energie_neutraal
 ---------------------------------------
 Structure from the checkpoint file:  "JID_1137.chk"
 Charge =  0 Multiplicity = 1

 SCF Done:  E(RB3LYP) =  -428.813062815     A.U. after   15 cycles
 Normal termination of Gaussian 16 at Tue Dec  8 19:25:19 2020.

 ----------------------------------------------------------------------
 # B3LYP/6-311++G(d,p) empiricaldispersion=gd3bj scf=xqc pop=npa geom=c
 heck
 ----------------------------------------------------------------------

 -------------------------------------
 CID_143333898_JID_1137_Energie_kation
 -------------------------------------
 Structure from the checkpoint file:  "JID_1137.chk"
 Charge =  1 Multiplicity = 2

 SCF Done:  E(UB3LYP) =  -428.559987418     A.U. after   20 cycles
 Normal termination of Gaussian 16 at Tue Dec  8 19:31:07 2020.
 Gaussian 16:  ES64L-G16RevA.03 25-Dec-2016

 ----------------------------------------------------------------------
 # B3LYP/6-311++G(d,p) empiricaldispersion=gd3bj scf=xqc pop=npa geom=c
 heck
 ----------------------------------------------------------------------

 ------------------------------------
 CID_143333898_JID_1137_Energie_anion
 ------------------------------------
 Structure from the checkpoint file:  "JID_1137.chk"
 Charge = -1 Multiplicity = 2

                         Standard orientation:
 ---------------------------------------------------------------------
 Center     Atomic      Atomic             Coordinates (Angstroms)
 Number     Number       Type             X           Y           Z
 ---------------------------------------------------------------------
      1          6           0        3.225958    0.179784    0.183582
      2          6           0        1.763069   -0.241377    0.401659
      3          6           0        1.285808   -1.308380   -0.550089
      4          6           0        0.227307   -2.052011   -0.158639
      5          6           0       -0.968509   -1.640617   -0.896703
      6          6           0       -1.748679   -0.806801   -0.162020
      7          6           0       -1.691490    0.627751   -0.620487
      8          6           0       -0.411439    1.369921   -0.114762
      9          6           0        0.848408    1.011887    0.257684
     10          6           0       -0.719798    2.860717   -0.071195
     11          6           0       -2.048701   -1.002853    1.299182
     12          1           0        3.373104    0.547929   -0.838729
     13          1           0        3.891522   -0.675706    0.335807
     14          1           0        3.526659    0.976352    0.873762
     15          1           0        1.655918   -0.604160    1.435653
     16          1           0        1.340733   -1.004694   -1.597535
     17          1           0        0.115138   -2.281385    0.898613
     18          1           0       -0.793930   -1.367104   -1.937456
     19          1           0       -1.697998    0.694271   -1.717544
     20          1           0       -2.551244    1.217552   -0.271195
     21          1           0        1.438586    1.884140    0.549719
     22          1           0        0.156603    3.462204    0.184554
     23          1           0       -1.509895    3.076587    0.661148
     24          1           0       -1.095867    3.208855   -1.043249
     25          1           0       -2.006000   -2.054592    1.595501
     26          1           0       -1.356211   -0.431993    1.936467
     27          1           0       -3.058724   -0.636377    1.525215
 ---------------------------------------------------------------------

 SCF Done:  E(UB3LYP) =  -428.797074184     A.U. after   33 cycles
 SCF Done:  E(UB3LYP) =  -428.797074184     a.u. after    1 cycles

 The electronic state is 2-A.
 Alpha  occ. eigenvalues --  -10.08099 -10.07750 -10.07133 -10.06583 -10.06476
 Alpha  occ. eigenvalues --  -10.06253 -10.05887 -10.05707 -10.05526 -10.04741
 Alpha  occ. eigenvalues --  -10.04663  -0.74297  -0.69427  -0.68595  -0.63055
 Alpha  occ. eigenvalues --   -0.58589  -0.56468  -0.56184  -0.50106  -0.45106
 Alpha  occ. eigenvalues --   -0.41977  -0.40825  -0.36313  -0.35547  -0.33672
 Alpha  occ. eigenvalues --   -0.32351  -0.30734  -0.30353  -0.30187  -0.28323
 Alpha  occ. eigenvalues --   -0.27595  -0.27216  -0.26969  -0.25216  -0.24793
 Alpha  occ. eigenvalues --   -0.24219  -0.22420  -0.21432  -0.17222  -0.13097
 Alpha  occ. eigenvalues --   -0.07314   0.05026
 Alpha virt. eigenvalues --    0.07179   0.07461   0.07765   0.08047   0.09103
 Alpha virt. eigenvalues --    0.09813   0.10188   0.10636   0.10946   0.11255
 Alpha virt. eigenvalues --    0.12132   0.12573   0.13288   0.13589   0.14176

  Beta  occ. eigenvalues --  -10.08080 -10.07729 -10.07097 -10.06544 -10.06465
  Beta  occ. eigenvalues --  -10.06101 -10.05871 -10.05687 -10.05512 -10.04654
  Beta  occ. eigenvalues --  -10.04612  -0.74187  -0.69370  -0.68480  -0.62967
  Beta  occ. eigenvalues --   -0.58541  -0.56381  -0.56069  -0.49986  -0.44907
  Beta  occ. eigenvalues --   -0.41902  -0.40744  -0.36249  -0.35487  -0.33611
  Beta  occ. eigenvalues --   -0.32270  -0.30692  -0.30289  -0.30131  -0.28258
  Beta  occ. eigenvalues --   -0.27495  -0.27147  -0.26902  -0.25166  -0.24744
  Beta  occ. eigenvalues --   -0.24135  -0.22337  -0.21375  -0.16740  -0.13009
  Beta  occ. eigenvalues --   -0.07010
  Beta virt. eigenvalues --    0.07350   0.07656   0.08227   0.08486   0.08643
  Beta virt. eigenvalues --    0.09650   0.10398   0.10622   0.10969   0.11172
  Beta virt. eigenvalues --    0.11576   0.12549   0.12864   0.13620   0.13935

 Mulliken charges and spin densities:
               1          2
     1  C    0.084289  -0.767471
     2  C    0.009309   0.434792
     3  C   -0.688153   0.376069
     4  C    0.436641  -0.291372
     5  C    0.114341  -0.497820
     6  C   -0.542262   1.437159
     7  C   -0.342817  -0.631821
     8  C   -1.528197   2.617307
     9  C    0.862507  -2.042103
    10  C    2.015932  -2.700119
    11  C    0.385719  -1.161343
    12  H    0.008004   0.127253
    13  H    0.067823   0.081700
    14  H   -0.276946   0.408379
    15  H   -0.079767   0.242253
    16  H    0.087048   0.025583
    17  H   -0.051581   0.189943
    18  H    0.065918   0.082871
    19  H   -0.120085   0.323953
    20  H   -0.122841   0.291538
    21  H    0.282002  -0.124849
    22  H   -0.801578   0.948224
    23  H   -0.268690   0.420415
    24  H   -0.390747   0.544852
    25  H    0.048820   0.099011
    26  H   -0.061826   0.226057
    27  H   -0.192864   0.339541
 Sum of Mulliken charges =  -1.00000   1.00000

 Dipole moment (field-independent basis, Debye):
    X=              0.8040    Y=             -4.6243    Z=             -0.8664  Tot=              4.7729
 Quadrupole moment (field-independent basis, Debye-Ang):
   XX=           -113.7148   YY=           -127.8836   ZZ=            -98.1853
   XY=              1.7202   XZ=             -1.4487   YZ=              0.8593

 Summary of Natural Population Analysis:

                                       Natural Population
                Natural  -----------------------------------------------
    Atom  No    Charge         Core      Valence    Rydberg      Total
 -----------------------------------------------------------------------
      C    1   -0.27999      0.99965     2.27392    0.00641     3.27999
      C    2   -0.13488      0.99956     2.12428    0.01104     3.13488
      C    3   -0.08617      0.99943     2.07489    0.01185     3.08617
      C    4   -0.06417      0.99935     2.05276    0.01205     3.06417
      C    5   -0.08155      0.99931     2.07119    0.01105     3.08155
      C    6   -0.02183      0.99944     2.00962    0.01277     3.02183
      C    7   -0.21380      0.99954     2.20262    0.01165     3.21380
      C    8    0.00351      0.99950     1.98590    0.01109     2.99649
      C    9   -0.10097      0.99945     2.08966    0.01186     3.10097
      C   10   -0.29046      0.99963     2.28438    0.00646     3.29046
      C   11   -0.30818      0.99962     2.30169    0.00687     3.30818
      H   12    0.09684      0.00000     0.40211    0.00105     0.40316
      H   13    0.09716      0.00000     0.40174    0.00111     0.40284
      H   14    0.09849      0.00000     0.40042    0.00109     0.40151
      H   15    0.10078      0.00000     0.39707    0.00215     0.39922
      H   16    0.08536      0.00000     0.41284    0.00181     0.41464
      H   17    0.09149      0.00000     0.40663    0.00189     0.40851
      H   18    0.08975      0.00000     0.40873    0.00152     0.41025
      H   19    0.11082      0.00000     0.38795    0.00122     0.38918
      H   20    0.10140      0.00000     0.39695    0.00165     0.39860
      H   21    0.09242      0.00000     0.40562    0.00196     0.40758
      H   22    0.10247      0.00000     0.39567    0.00187     0.39753
      H   23    0.09979      0.00000     0.39861    0.00160     0.40021
      H   24    0.10201      0.00000     0.39535    0.00264     0.39799
      H   25    0.10084      0.00000     0.39816    0.00100     0.39916
      H   26    0.10525      0.00000     0.39326    0.00149     0.39475
      H   27    0.10362      0.00000     0.39520    0.00118     0.39638
 =======================================================================
   * Total *   -0.00000     10.99447    29.86722    0.13831    41.00000

 Normal termination of Gaussian 16 at Tue Dec  8 19:40:57 2020.
