 Gaussian 16, Revision A.03,

 -----------------------------------------------------------
 # opt freq B3LYP/6-31G(d) empiricaldispersion=gd3bj scf=xqc
 -----------------------------------------------------------

 ------------------------------
 CID_11073994_JID_3104_neutraal
 ------------------------------
 Symbolic Z-matrix:
 Charge =  0 Multiplicity = 1

 SCF Done:  E(RB3LYP) =  -579.290057891     A.U. after   14 cycles
 SCF Done:  E(RB3LYP) =  -579.292749816     A.U. after   11 cycles
 SCF Done:  E(RB3LYP) =  -579.292871420     A.U. after   11 cycles
 SCF Done:  E(RB3LYP) =  -579.293135738     A.U. after   11 cycles
 SCF Done:  E(RB3LYP) =  -579.293195300     A.U. after   11 cycles
 SCF Done:  E(RB3LYP) =  -579.293229220     A.U. after   10 cycles
 SCF Done:  E(RB3LYP) =  -579.293281269     A.U. after   11 cycles
 SCF Done:  E(RB3LYP) =  -579.293320100     A.U. after   11 cycles
 SCF Done:  E(RB3LYP) =  -579.293365228     A.U. after   11 cycles
 SCF Done:  E(RB3LYP) =  -579.293372693     A.U. after   10 cycles
 SCF Done:  E(RB3LYP) =  -579.293459107     A.U. after    9 cycles
 SCF Done:  E(RB3LYP) =  -579.293459219     A.U. after    8 cycles
 SCF Done:  E(RB3LYP) =  -579.293459282     A.U. after    8 cycles
 SCF Done:  E(RB3LYP) =  -579.293459337     A.U. after    7 cycles
 SCF Done:  E(RB3LYP) =  -579.293459337     A.U. after    6 cycles
 Optimization completed.
    -- Stationary point found.
 Normal termination of Gaussian 16 at Wed Dec  9 22:36:47 2020.

 --------------------------------------------------------------------
 #N Geom=AllCheck Guess=TCheck SCRF=Check GenChk RB3LYP/6-31G(d) Freq
 --------------------------------------------------------------------

 Structure from the checkpoint file:  "JID_3104.chk"
 ------------------------------
 CID_11073994_JID_3104_neutraal
 ------------------------------
 Charge =  0 Multiplicity = 1

 SCF Done:  E(RB3LYP) =  -579.293459337     A.U. after    1 cycles

  Exact polarizability: 156.697  -1.527 130.638  11.081  -2.806  77.436
 Approx polarizability: 215.083   2.738 205.535  21.603  -6.418 111.357

                      1                      2                      3
                      A                      A                      A
 Frequencies --     18.9629                21.9600                35.0915
 Red. masses --      1.0474                 3.9484                 1.0423
 Frc consts  --      0.0002                 0.0011                 0.0008
 IR Inten    --      0.2647                 0.3183                 0.2118

                      4                      5                      6
                      A                      A                      A
 Frequencies --     53.7330                65.9052               177.6680
 Red. masses --      3.3140                 4.1099                 3.3838
 Frc consts  --      0.0056                 0.0105                 0.0629
 IR Inten    --      1.2251                 0.4914                 2.2540

                      7                      8                      9
                      A                      A                      A
 Frequencies --    203.9765               219.0830               236.2636
 Red. masses --      3.1264                 3.1492                 3.0075
 Frc consts  --      0.0766                 0.0891                 0.0989
 IR Inten    --      2.8156                 0.5533                 1.6933

                     10                     11                     12
                      A                      A                      A
 Frequencies --    252.3672               264.8129               288.7823
 Red. masses --      2.6588                 2.6599                 1.2045
 Frc consts  --      0.0998                 0.1099                 0.0592
 IR Inten    --      0.8413                 0.3107                 2.2542

                     13                     14                     15
                      A                      A                      A
 Frequencies --    308.8984               326.9323               399.5423
 Red. masses --      1.1680                 4.0553                 3.0941
 Frc consts  --      0.0657                 0.2554                 0.2910
 IR Inten    --     99.9078                 1.0979                20.4260

                     16                     17                     18
                      A                      A                      A
 Frequencies --    448.0379               455.0130               515.7053
 Red. masses --      2.3609                 2.2524                 4.8528
 Frc consts  --      0.2792                 0.2748                 0.7604
 IR Inten    --      2.4815                 7.6802                 1.8391

                     19                     20                     21
                      A                      A                      A
 Frequencies --    528.9595               540.6961               576.1137
 Red. masses --      3.1627                 5.2425                 4.0667
 Frc consts  --      0.5214                 0.9030                 0.7953
 IR Inten    --      0.1484                 0.3656                 1.0827

                     22                     23                     24
                      A                      A                      A
 Frequencies --    587.7788               606.5090               700.8995
 Red. masses --      4.0355                 4.3203                 2.4833
 Frc consts  --      0.8214                 0.9364                 0.7188
 IR Inten    --      1.6269                 9.1551                 2.8960

                     25                     26                     27
                      A                      A                      A
 Frequencies --    841.2145               842.7497               858.7588
 Red. masses --      1.4481                 2.5454                 1.2764
 Frc consts  --      0.6038                 1.0651                 0.5546
 IR Inten    --     31.1744                 2.9937                 5.4186

                     28                     29                     30
                      A                      A                      A
 Frequencies --    882.3104               927.6447               951.1681
 Red. masses --      1.4068                 1.4024                 2.8397
 Frc consts  --      0.6452                 0.7111                 1.5137
 IR Inten    --      5.1775                 2.0665                 6.0147

                     31                     32                     33
                      A                      A                      A
 Frequencies --    969.1908               979.2026              1016.1619
 Red. masses --      1.9998                 3.1080                 5.1759
 Frc consts  --      1.1068                 1.7558                 3.1489
 IR Inten    --      9.0102                 5.0926                 0.7875

                     34                     35                     36
                      A                      A                      A
 Frequencies --   1033.5346              1049.0865              1072.7059
 Red. masses --      1.8516                 1.5247                 1.5118
 Frc consts  --      1.1653                 0.9887                 1.0250
 IR Inten    --      1.6006                 0.6226                 8.5709

                     37                     38                     39
                      A                      A                      A
 Frequencies --   1075.0274              1085.1912              1108.3681
 Red. masses --      1.4993                 1.7890                 2.4980
 Frc consts  --      1.0209                 1.2413                 1.8081
 IR Inten    --      0.2750                88.6892               129.1683

                     40                     41                     42
                      A                      A                      A
 Frequencies --   1148.8477              1175.8261              1198.6976
 Red. masses --      2.6112                 1.8701                 1.4821
 Frc consts  --      2.0306                 1.5233                 1.2547
 IR Inten    --      2.7530               102.6173                 1.9810

                     43                     44                     45
                      A                      A                      A
 Frequencies --   1211.3896              1277.3360              1312.5483
 Red. masses --      1.9288                 1.3381                 1.9065
 Frc consts  --      1.6677                 1.2863                 1.9352
 IR Inten    --     89.0382                 4.0798                13.2773

                     46                     47                     48
                      A                      A                      A
 Frequencies --   1317.7478              1335.8996              1379.6652
 Red. masses --      1.3184                 2.3141                 1.8675
 Frc consts  --      1.3488                 2.4333                 2.0944
 IR Inten    --      1.9688                92.7033                60.0883

                     49                     50                     51
                      A                      A                      A
 Frequencies --   1397.5464              1420.4156              1427.1098
 Red. masses --      2.1779                 1.4218                 1.1980
 Frc consts  --      2.5062                 1.6901                 1.4375
 IR Inten    --     21.3598                 5.0872                41.8934

                     52                     53                     54
                      A                      A                      A
 Frequencies --   1440.1852              1442.4380              1446.5362
 Red. masses --      1.2352                 1.2824                 1.3672
 Frc consts  --      1.5094                 1.5720                 1.6855
 IR Inten    --      0.3340                 2.0272                27.7637

                     55                     56                     57
                      A                      A                      A
 Frequencies --   1485.3976              1498.8612              1514.9461
 Red. masses --      2.0434                 2.1162                 1.0466
 Frc consts  --      2.6564                 2.8011                 1.4152
 IR Inten    --     23.4752                 1.1291                 9.2680

                     58                     59                     60
                      A                      A                      A
 Frequencies --   1515.6310              1519.6692              1524.8369
 Red. masses --      1.0450                 1.0597                 1.0527
 Frc consts  --      1.4143                 1.4418                 1.4421
 IR Inten    --      0.1778                 6.9606                 7.5002

                     61                     62                     63
                      A                      A                      A
 Frequencies --   1534.2417              1538.2220              1541.1731
 Red. masses --      1.2948                 1.3444                 1.1234
 Frc consts  --      1.7957                 1.8743                 1.5722
 IR Inten    --      2.0245                74.0943                 7.4323

                     64                     65                     66
                      A                      A                      A
 Frequencies --   1655.9390              1669.9321              3040.5866
 Red. masses --      5.5540                 5.9716                 1.0447
 Frc consts  --      8.9731                 9.8116                 5.6908
 IR Inten    --    132.9521                68.1803                12.5872

                     67                     68                     69
                      A                      A                      A
 Frequencies --   3042.2520              3044.5054              3053.2063
 Red. masses --      1.0378                 1.0377                 1.0641
 Frc consts  --      5.6592                 5.6671                 5.8447
 IR Inten    --     36.2701                30.4568                29.3166

                     70                     71                     72
                      A                      A                      A
 Frequencies --   3081.4080              3092.9671              3096.6715
 Red. masses --      1.0827                 1.1008                 1.1004
 Frc consts  --      6.0569                 6.2047                 6.2170
 IR Inten    --     16.2409                21.4310                21.6475

                     73                     74                     75
                      A                      A                      A
 Frequencies --   3115.3011              3122.2107              3128.2159
 Red. masses --      1.0946                 1.1017                 1.1004
 Frc consts  --      6.2593                 6.3276                 6.3442
 IR Inten    --     27.1318                46.0101                14.9318

                     76                     77                     78
                      A                      A                      A
 Frequencies --   3128.8078              3146.5274              3176.7498
 Red. masses --      1.1010                 1.1024                 1.0900
 Frc consts  --      6.3505                 6.4308                 6.4809
 IR Inten    --     20.7601                21.7722                19.5311

                     79                     80                     81
                      A                      A                      A
 Frequencies --   3205.3306              3219.8283              3723.0356
 Red. masses --      1.0906                 1.0886                 1.0659
 Frc consts  --      6.6020                 6.6495                 8.7048
 IR Inten    --      6.5602                15.7160                 7.5079

 - Thermochemistry -
 -------------------
 Temperature   298.150 Kelvin.  Pressure   1.00000 Atm.
 Atom     1 has atomic number  6 and mass  12.00000

 Molecular mass:   180.11503 amu.
 Principal axes and moments of inertia in atomic units:
                           1         2         3
     Eigenvalues --  1312.525684266.420115105.52328
           X            0.99996  -0.00930  -0.00002
           Y            0.00930   0.99991  -0.00917
           Z            0.00011   0.00917   0.99996
 This molecule is an asymmetric top.
 Rotational symmetry number  1.
 Warning -- assumption of classical behavior for rotation
           may cause significant error
 Rotational temperatures (Kelvin)      0.06599     0.02030     0.01696
 Rotational constants (GHZ):           1.37501     0.42301     0.35349
 Zero-point vibrational energy     657196.4 (Joules/Mol)
                                  157.07370 (Kcal/Mol)
 Warning -- explicit consideration of  23 degrees of freedom as
           vibrations may cause significant error
 Vibrational temperatures:     27.28    31.60    50.49    77.31    94.82
          (Kelvin)            255.62   293.48   315.21   339.93   363.10
                              381.01   415.49   444.44   470.38   574.85
                              644.63   654.66   741.98   761.05   777.94
                              828.90   845.68   872.63  1008.44  1210.32
                             1212.53  1235.56  1269.45  1334.67  1368.52
                             1394.45  1408.85  1462.03  1487.03  1509.40
                             1543.38  1546.72  1561.35  1594.69  1652.94
                             1691.75  1724.66  1742.92  1837.80  1888.46
                             1895.95  1922.06  1985.03  2010.76  2043.66
                             2053.29  2072.11  2075.35  2081.24  2137.16
                             2156.53  2179.67  2180.65  2186.47  2193.90
                             2207.43  2213.16  2217.40  2382.53  2402.66
                             4374.73  4377.12  4380.36  4392.88  4433.46
                             4450.09  4455.42  4482.22  4492.16  4500.80
                             4501.66  4527.15  4570.63  4611.76  4632.61
                             5356.62

 Zero-point correction=                           0.250313 (Hartree/Particle)
 Thermal correction to Energy=                    0.264704
 Thermal correction to Enthalpy=                  0.265648
 Thermal correction to Gibbs Free Energy=         0.206387
 Sum of electronic and zero-point Energies=           -579.043146
 Sum of electronic and thermal Energies=              -579.028756
 Sum of electronic and thermal Enthalpies=            -579.027811
 Sum of electronic and thermal Free Energies=         -579.087072

                     E (Thermal)             CV                S
                      KCal/Mol        Cal/Mol-Kelvin    Cal/Mol-Kelvin
 Total                  166.104             52.372            124.725
 Electronic               0.000              0.000              0.000
 Translational            0.889              2.981             41.472
 Rotational               0.889              2.981             31.725
 Vibrational            164.327             46.410             51.528
 Vibration     1          0.593              1.986              6.740
 Vibration     2          0.593              1.985              6.449
 Vibration     3          0.594              1.982              5.519
 Vibration     4          0.596              1.976              4.675
 Vibration     5          0.597              1.971              4.272
 Vibration     6          0.628              1.870              2.353
 Vibration     7          0.640              1.834              2.097
 Vibration     8          0.647              1.812              1.967
 Vibration     9          0.655              1.785              1.831
 Vibration    10          0.664              1.759              1.714
 Vibration    11          0.671              1.738              1.630
 Vibration    12          0.685              1.695              1.481
 Vibration    13          0.698              1.657              1.368
 Vibration    14          0.711              1.622              1.275
 Vibration    15          0.766              1.471              0.964
 Vibration    16          0.807              1.365              0.802
 Vibration    17          0.813              1.350              0.781
 Vibration    18          0.871              1.215              0.620
 Vibration    19          0.884              1.186              0.590
 Vibration    20          0.896              1.160              0.564
 Vibration    21          0.933              1.083              0.493
 Vibration    22          0.945              1.058              0.471
 Vibration    23          0.965              1.018              0.439

                           ! Non-Optimized Parameters !
 Normal termination of Gaussian 16 at Wed Dec  9 22:43:26 2020.

 ----------------------------------------------------------------------
 # B3LYP/6-311++G(d,p) empiricaldispersion=gd3bj scf=xqc pop=npa geom=c
 heck
 ----------------------------------------------------------------------

 --------------------------------------
 CID_11073994_JID_3104_Energie_neutraal
 --------------------------------------
 Structure from the checkpoint file:  "JID_3104.chk"
 Charge =  0 Multiplicity = 1

 SCF Done:  E(RB3LYP) =  -579.462908759     A.U. after   14 cycles
 Normal termination of Gaussian 16 at Wed Dec  9 22:46:26 2020.

 ----------------------------------------------------------------------
 # B3LYP/6-311++G(d,p) empiricaldispersion=gd3bj scf=xqc pop=npa geom=c
 heck
 ----------------------------------------------------------------------

 ------------------------------------
 CID_11073994_JID_3104_Energie_kation
 ------------------------------------
 Structure from the checkpoint file:  "JID_3104.chk"
 Charge =  1 Multiplicity = 2

 SCF Done:  E(UB3LYP) =  -579.173867416     A.U. after   23 cycles
 Normal termination of Gaussian 16 at Wed Dec  9 22:53:13 2020.
 Gaussian 16:  ES64L-G16RevA.03 25-Dec-2016

 ----------------------------------------------------------------------
 # B3LYP/6-311++G(d,p) empiricaldispersion=gd3bj scf=xqc pop=npa geom=c
 heck
 ----------------------------------------------------------------------

 -----------------------------------
 CID_11073994_JID_3104_Energie_anion
 -----------------------------------
 Structure from the checkpoint file:  "JID_3104.chk"
 Charge = -1 Multiplicity = 2

                         Standard orientation:
 ---------------------------------------------------------------------
 Center     Atomic      Atomic             Coordinates (Angstroms)
 Number     Number       Type             X           Y           Z
 ---------------------------------------------------------------------
      1          6           0        1.767141    2.896992   -0.212312
      2          6           0        1.619830    1.394792   -0.164477
      3          6           0        2.711505    0.575020    0.108154
      4          6           0        2.573512   -0.821759    0.155259
      5          6           0        1.322359   -1.382222   -0.075660
      6          6           0        0.212696   -0.569241   -0.352671
      7          6           0        0.361067    0.816488   -0.394390
      8          8           0       -0.953456   -1.253731   -0.566394
      9          6           0       -2.166666   -0.580457   -0.886014
     10          6           0       -3.069266   -0.398076    0.342381
     11          6           0       -2.494336    0.518538    1.416657
     12          8           0       -4.354631    0.042875   -0.097609
     13          6           0        3.770352   -1.695830    0.442496
     14          1           0        1.092464    3.387142    0.500426
     15          1           0        2.789145    3.204613    0.027994
     16          1           0        1.524573    3.290038   -1.207570
     17          1           0        3.685454    1.023210    0.290674
     18          1           0        1.175986   -2.457629   -0.049355
     19          1           0       -0.482703    1.467401   -0.589718
     20          1           0       -1.979577    0.380455   -1.381266
     21          1           0       -2.688966   -1.224306   -1.598957
     22          1           0       -3.241464   -1.391044    0.771433
     23          1           0       -2.347198    1.534427    1.025442
     24          1           0       -3.184281    0.575207    2.264295
     25          1           0       -1.525184    0.157997    1.772754
     26          1           0       -4.271050    0.979119   -0.340770
     27          1           0        4.513378   -1.626683   -0.361898
     28          1           0        4.271258   -1.391674    1.369279
     29          1           0        3.483697   -2.746898    0.542719
 ---------------------------------------------------------------------

 SCF Done:  E(UB3LYP) =  -579.450193311     A.U. after   33 cycles
 SCF Done:  E(UB3LYP) =  -579.450193311     a.u. after    1 cycles

 The electronic state is 2-A.
 Alpha  occ. eigenvalues --  -19.05631 -19.02659 -10.13770 -10.12941 -10.12677
 Alpha  occ. eigenvalues --  -10.08728 -10.08594 -10.07532 -10.06776 -10.06695
 Alpha  occ. eigenvalues --  -10.06543 -10.06388 -10.06321  -0.97149  -0.92894
 Alpha  occ. eigenvalues --   -0.76226  -0.68873  -0.68477  -0.65357  -0.60547
 Alpha  occ. eigenvalues --   -0.59420  -0.58342  -0.52294  -0.48881  -0.47749
 Alpha  occ. eigenvalues --   -0.42997  -0.40574  -0.39786  -0.39130  -0.36084
 Alpha  occ. eigenvalues --   -0.35005  -0.33589  -0.32981  -0.32400  -0.31660
 Alpha  occ. eigenvalues --   -0.31014  -0.30100  -0.29653  -0.28682  -0.27776
 Alpha  occ. eigenvalues --   -0.27217  -0.26009  -0.25327  -0.23709  -0.22762
 Alpha  occ. eigenvalues --   -0.21843  -0.18380  -0.14480  -0.12378   0.04362
 Alpha virt. eigenvalues --    0.06065   0.07149   0.08089   0.08321   0.08561
 Alpha virt. eigenvalues --    0.08900   0.09182   0.10116   0.10416   0.10658
 Alpha virt. eigenvalues --    0.11207   0.11496   0.12279   0.12698   0.13420

  Beta  occ. eigenvalues --  -19.05625 -19.02613 -10.13771 -10.12937 -10.12657
  Beta  occ. eigenvalues --  -10.08728 -10.08594 -10.07507 -10.06771 -10.06677
  Beta  occ. eigenvalues --  -10.06505 -10.06353 -10.06306  -0.97135  -0.92798
  Beta  occ. eigenvalues --   -0.76215  -0.68846  -0.68451  -0.65321  -0.60497
  Beta  occ. eigenvalues --   -0.59380  -0.58298  -0.52224  -0.48843  -0.47704
  Beta  occ. eigenvalues --   -0.42965  -0.40513  -0.39762  -0.39094  -0.36055
  Beta  occ. eigenvalues --   -0.34951  -0.33552  -0.32953  -0.32359  -0.31624
  Beta  occ. eigenvalues --   -0.30984  -0.30067  -0.29628  -0.28640  -0.27722
  Beta  occ. eigenvalues --   -0.27190  -0.25978  -0.25300  -0.23663  -0.22731
  Beta  occ. eigenvalues --   -0.21814  -0.18343  -0.14467  -0.12366
  Beta virt. eigenvalues --    0.06419   0.07391   0.07768   0.08222   0.08713
  Beta virt. eigenvalues --    0.08914   0.09234   0.09369   0.10477   0.10637
  Beta virt. eigenvalues --    0.10883   0.11524   0.11897   0.12744   0.13090

 Mulliken charges and spin densities:
               1          2
     1  C    1.817217  -2.436803
     2  C    0.054403   0.573040
     3  C   -0.344389  -0.631082
     4  C   -0.013972   0.631314
     5  C    0.119828  -1.096615
     6  C   -1.550685   1.342970
     7  C   -0.834494   1.503823
     8  O   -0.082637   0.009422
     9  C    0.225926  -0.535971
    10  C   -0.202830   0.032445
    11  C    0.281317  -0.783761
    12  O   -0.229702   0.009250
    13  C    1.706820  -2.164286
    14  H   -0.158890   0.318988
    15  H   -0.463749   0.616634
    16  H   -0.288456   0.455809
    17  H   -0.188847   0.310492
    18  H    0.113972   0.027858
    19  H    0.347194  -0.235313
    20  H   -0.536144   0.704530
    21  H   -0.028561   0.209931
    22  H    0.156836   0.025531
    23  H   -0.464988   0.649314
    24  H   -0.129971   0.286079
    25  H    0.194204  -0.046301
    26  H   -0.067383   0.332817
    27  H   -0.075739   0.238513
    28  H   -0.127325   0.281480
    29  H   -0.228955   0.369892
 Sum of Mulliken charges =  -1.00000   1.00000

 Dipole moment (field-independent basis, Debye):
    X=              0.9617    Y=             -5.0451    Z=              0.7509  Tot=              5.1906
 Quadrupole moment (field-independent basis, Debye-Ang):
   XX=           -162.8414   YY=           -128.5140   ZZ=           -108.0721
   XY=              7.4665   XZ=             -4.0807   YZ=              2.4620

 Summary of Natural Population Analysis:

                                       Natural Population
                Natural  -----------------------------------------------
    Atom  No    Charge         Core      Valence    Rydberg      Total
 -----------------------------------------------------------------------
      C    1   -0.29269      0.99964     2.28721    0.00584     3.29269
      C    2    0.00026      0.99953     1.99060    0.00960     2.99974
      C    3   -0.11946      0.99946     2.11053    0.00946     3.11946
      C    4   -0.00695      0.99952     1.99744    0.00999     3.00695
      C    5   -0.12775      0.99947     2.11984    0.00844     3.12775
      C    6    0.16857      0.99937     1.81803    0.01403     2.83143
      C    7   -0.14942      0.99946     2.14136    0.00860     3.14942
      O    8   -0.27950      0.99985     3.27048    0.00916     4.27950
      C    9   -0.01860      0.99953     2.00567    0.01340     3.01860
      C   10    0.05166      0.99959     1.93520    0.01355     2.94834
      C   11   -0.30250      0.99964     2.29670    0.00615     3.30250
      O   12   -0.37128      0.99990     3.36444    0.00694     4.37128
      C   13   -0.29007      0.99964     2.28552    0.00491     3.29007
      H   14    0.10660      0.00000     0.39204    0.00135     0.39340
      H   15    0.10138      0.00000     0.39739    0.00123     0.39862
      H   16    0.10627      0.00000     0.39240    0.00133     0.39373
      H   17    0.09829      0.00000     0.40045    0.00126     0.40171
      H   18    0.10217      0.00000     0.39641    0.00143     0.39783
      H   19    0.10680      0.00000     0.39068    0.00252     0.39320
      H   20    0.08785      0.00000     0.41003    0.00212     0.41215
      H   21    0.09331      0.00000     0.40541    0.00128     0.40669
      H   22    0.08422      0.00000     0.41426    0.00152     0.41578
      H   23    0.10163      0.00000     0.39619    0.00218     0.39837
      H   24    0.10233      0.00000     0.39681    0.00086     0.39767
      H   25    0.10705      0.00000     0.39173    0.00121     0.39295
      H   26    0.23181      0.00000     0.26076    0.00743     0.26819
      H   27    0.10375      0.00000     0.39496    0.00129     0.39625
      H   28    0.10375      0.00000     0.39496    0.00130     0.39625
      H   29    0.10051      0.00000     0.39847    0.00102     0.39949
 =======================================================================
   * Total *   -0.00000     12.99461    35.85599    0.14940    49.00000

 Normal termination of Gaussian 16 at Wed Dec  9 23:04:33 2020.
