 Gaussian 16, Revision A.03,

 -----------------------------------------------------------
 # opt freq B3LYP/6-31G(d) empiricaldispersion=gd3bj scf=xqc
 -----------------------------------------------------------

 ------------------------------
 CID_78846565_JID_5575_neutraal
 ------------------------------
 Symbolic Z-matrix:
 Charge =  0 Multiplicity = 1

 SCF Done:  E(RB3LYP) =  -711.130401918     A.U. after   14 cycles
 SCF Done:  E(RB3LYP) =  -711.134254022     A.U. after   12 cycles
 SCF Done:  E(RB3LYP) =  -711.133593109     A.U. after   13 cycles
 SCF Done:  E(RB3LYP) =  -711.134765663     A.U. after   11 cycles
 SCF Done:  E(RB3LYP) =  -711.135027246     A.U. after   11 cycles
 SCF Done:  E(RB3LYP) =  -711.135215775     A.U. after   12 cycles
 SCF Done:  E(RB3LYP) =  -711.135383329     A.U. after   12 cycles
 SCF Done:  E(RB3LYP) =  -711.135453577     A.U. after   12 cycles
 SCF Done:  E(RB3LYP) =  -711.135578036     A.U. after   12 cycles
 SCF Done:  E(RB3LYP) =  -711.135773584     A.U. after   13 cycles
 SCF Done:  E(RB3LYP) =  -711.136077584     A.U. after   12 cycles
 SCF Done:  E(RB3LYP) =  -711.136081888     A.U. after   10 cycles
 SCF Done:  E(RB3LYP) =  -711.136083238     A.U. after   10 cycles
 SCF Done:  E(RB3LYP) =  -711.136083183     A.U. after    8 cycles
 SCF Done:  E(RB3LYP) =  -711.136083262     A.U. after    8 cycles
 Optimization completed.
    -- Stationary point found.
 Normal termination of Gaussian 16 at Thu Dec 10 16:43:07 2020.

 --------------------------------------------------------------------
 #N Geom=AllCheck Guess=TCheck SCRF=Check GenChk RB3LYP/6-31G(d) Freq
 --------------------------------------------------------------------

 Structure from the checkpoint file:  "JID_5575.chk"
 ------------------------------
 CID_78846565_JID_5575_neutraal
 ------------------------------
 Charge =  0 Multiplicity = 1

 SCF Done:  E(RB3LYP) =  -711.136083261     A.U. after    1 cycles

  Exact polarizability: 159.479  -0.641 116.467  -0.925   5.540 105.474
 Approx polarizability: 190.571   5.204 170.439   3.775  18.017 173.588

                      1                      2                      3
                      A                      A                      A
 Frequencies --     24.1036                27.6512                50.3608
 Red. masses --      3.4347                 4.6831                 5.6721
 Frc consts  --      0.0012                 0.0021                 0.0085
 IR Inten    --      0.2959                 1.1036                 1.5508

                      4                      5                      6
                      A                      A                      A
 Frequencies --     74.3465                87.8061               101.7330
 Red. masses --      4.6406                 2.8915                 3.2739
 Frc consts  --      0.0151                 0.0131                 0.0200
 IR Inten    --      0.5255                 2.8038                 1.1425

                      7                      8                      9
                      A                      A                      A
 Frequencies --    122.4794               132.6217               196.2733
 Red. masses --      3.8244                 2.4235                 1.0464
 Frc consts  --      0.0338                 0.0251                 0.0237
 IR Inten    --      2.3359                 2.7488                 0.4017

                     10                     11                     12
                      A                      A                      A
 Frequencies --    221.5027               245.6896               286.4573
 Red. masses --      2.3930                 1.7376                 2.4690
 Frc consts  --      0.0692                 0.0618                 0.1194
 IR Inten    --      3.1027                 1.4254                 1.4270

                     13                     14                     15
                      A                      A                      A
 Frequencies --    293.4234               341.9299               360.7087
 Red. masses --      2.6729                 2.7375                 2.6632
 Frc consts  --      0.1356                 0.1886                 0.2042
 IR Inten    --      2.3424                 5.8240                 0.9158

                     16                     17                     18
                      A                      A                      A
 Frequencies --    373.7839               416.6246               430.8925
 Red. masses --      3.1611                 1.9110                 3.4461
 Frc consts  --      0.2602                 0.1954                 0.3770
 IR Inten    --     16.5147                 2.5592                10.3079

                     19                     20                     21
                      A                      A                      A
 Frequencies --    443.7164               494.9082               532.0750
 Red. masses --      2.9816                 2.9836                 2.6923
 Frc consts  --      0.3459                 0.4306                 0.4491
 IR Inten    --      0.9220                 3.8964                 2.0552

                     22                     23                     24
                      A                      A                      A
 Frequencies --    566.6802               590.5449               602.0846
 Red. masses --      2.4430                 4.2035                 2.8531
 Frc consts  --      0.4622                 0.8637                 0.6094
 IR Inten    --      0.3189                11.5540                 7.3186

                     25                     26                     27
                      A                      A                      A
 Frequencies --    679.0614               721.7205               777.4725
 Red. masses --      4.3609                 3.1811                 1.9635
 Frc consts  --      1.1848                 0.9763                 0.6993
 IR Inten    --      3.7310                 3.0483                 5.3871

                     28                     29                     30
                      A                      A                      A
 Frequencies --    789.0683               825.7563               850.5525
 Red. masses --      2.0687                 1.5633                 3.3740
 Frc consts  --      0.7589                 0.6280                 1.4381
 IR Inten    --      2.4856                 0.8656                13.4982

                     31                     32                     33
                      A                      A                      A
 Frequencies --    862.5705               894.3239               907.3328
 Red. masses --      2.6683                 2.6246                 2.4825
 Frc consts  --      1.1697                 1.2368                 1.2042
 IR Inten    --      4.8834                 1.5661                 1.1923

                     34                     35                     36
                      A                      A                      A
 Frequencies --    940.5502               959.8707               986.5999
 Red. masses --      1.5268                 2.6130                 2.2420
 Frc consts  --      0.7958                 1.4185                 1.2858
 IR Inten    --      4.9298                 3.1051                16.2107

                     37                     38                     39
                      A                      A                      A
 Frequencies --   1004.0886              1031.8229              1050.0503
 Red. masses --      1.8749                 1.5864                 2.2924
 Frc consts  --      1.1137                 0.9951                 1.4893
 IR Inten    --     50.9274                 6.6531                44.2416

                     40                     41                     42
                      A                      A                      A
 Frequencies --   1060.5636              1067.7449              1081.9128
 Red. masses --      1.7456                 1.8480                 2.5020
 Frc consts  --      1.1568                 1.2413                 1.7255
 IR Inten    --      7.0140                 5.8261                30.5753

                     43                     44                     45
                      A                      A                      A
 Frequencies --   1120.5075              1126.8697              1140.1573
 Red. masses --      1.6406                 1.8914                 1.9127
 Frc consts  --      1.2136                 1.4151                 1.4649
 IR Inten    --     21.2594                 4.0803                 2.7369

                     46                     47                     48
                      A                      A                      A
 Frequencies --   1173.6353              1192.5479              1216.8579
 Red. masses --      2.5000                 2.0679                 1.7893
 Frc consts  --      2.0289                 1.7327                 1.5610
 IR Inten    --     51.9491                99.0455               164.6116

                     49                     50                     51
                      A                      A                      A
 Frequencies --   1232.8205              1257.6855              1287.0216
 Red. masses --      1.5110                 1.4659                 2.0561
 Frc consts  --      1.3531                 1.3662                 2.0066
 IR Inten    --     86.2658               159.6484                 5.0173

                     52                     53                     54
                      A                      A                      A
 Frequencies --   1306.6849              1309.4303              1324.3662
 Red. masses --      1.6217                 1.2081                 1.1921
 Frc consts  --      1.6314                 1.2204                 1.2319
 IR Inten    --     67.4763                 2.1847                12.0472

                     55                     56                     57
                      A                      A                      A
 Frequencies --   1342.7328              1374.3455              1384.0454
 Red. masses --      1.3635                 1.3226                 1.6979
 Frc consts  --      1.4483                 1.4719                 1.9164
 IR Inten    --     10.4419                 1.5431                22.8642

                     58                     59                     60
                      A                      A                      A
 Frequencies --   1400.1833              1402.9758              1409.3357
 Red. masses --      1.3620                 1.3620                 1.3954
 Frc consts  --      1.5732                 1.5795                 1.6329
 IR Inten    --      9.8924                 0.8459                 9.6602

                     61                     62                     63
                      A                      A                      A
 Frequencies --   1413.6810              1425.3871              1437.6254
 Red. masses --      1.2824                 1.3294                 1.4746
 Frc consts  --      1.5100                 1.5913                 1.7956
 IR Inten    --     15.2109                 1.2955                13.0532

                     64                     65                     66
                      A                      A                      A
 Frequencies --   1448.6085              1479.0783              1501.7120
 Red. masses --      1.2983                 2.3363                 1.0921
 Frc consts  --      1.6051                 3.0113                 1.4511
 IR Inten    --      5.2382               219.5193                 1.8162

                     67                     68                     69
                      A                      A                      A
 Frequencies --   1503.8757              1508.6694              1514.2546
 Red. masses --      1.0830                 1.0787                 1.0973
 Frc consts  --      1.4431                 1.4465                 1.4824
 IR Inten    --     10.0638                 3.6412                20.0905

                     70                     71                     72
                      A                      A                      A
 Frequencies --   1518.3204              1518.7730              1519.8818
 Red. masses --      1.0756                 1.0954                 1.0561
 Frc consts  --      1.4609                 1.4887                 1.4373
 IR Inten    --      1.9470                 1.7691                15.6857

                     73                     74                     75
                      A                      A                      A
 Frequencies --   1530.5633              1539.2110              1543.3133
 Red. masses --      1.0759                 1.0534                 1.1425
 Frc consts  --      1.4850                 1.4704                 1.6033
 IR Inten    --     21.0659                 7.4794                 5.6580

                     76                     77                     78
                      A                      A                      A
 Frequencies --   1761.6107              1808.2177              3043.1689
 Red. masses --      9.4031                10.8955                 1.0611
 Frc consts  --     17.1927                20.9893                 5.7896
 IR Inten    --    310.4229               165.0888                32.4106

                     79                     80                     81
                      A                      A                      A
 Frequencies --   3044.5389              3049.6708              3058.3414
 Red. masses --      1.0715                 1.0665                 1.0397
 Frc consts  --      5.8520                 5.8440                 5.7294
 IR Inten    --     32.2631                18.9954                 5.5956

                     82                     83                     84
                      A                      A                      A
 Frequencies --   3060.5971              3061.1258              3071.8653
 Red. masses --      1.0370                 1.0688                 1.0731
 Frc consts  --      5.7234                 5.9005                 5.9660
 IR Inten    --     21.4095                10.3169                33.0468

                     85                     86                     87
                      A                      A                      A
 Frequencies --   3077.3209              3088.7267              3092.7625
 Red. masses --      1.0984                 1.0703                 1.0631
 Frc consts  --      6.1287                 6.0159                 5.9911
 IR Inten    --     12.2443                 9.6899                49.1112

                     88                     89                     90
                      A                      A                      A
 Frequencies --   3107.7990              3113.5775              3119.3117
 Red. masses --      1.0972                 1.1034                 1.1007
 Frc consts  --      6.2435                 6.3023                 6.3102
 IR Inten    --     33.1880                36.8021                12.6550

                     91                     92                     93
                      A                      A                      A
 Frequencies --   3127.8984              3132.9541              3150.6565
 Red. masses --      1.1025                 1.1023                 1.1077
 Frc consts  --      6.3554                 6.3746                 6.4786
 IR Inten    --     36.0629                30.7650                14.1564

                     94                     95                     96
                      A                      A                      A
 Frequencies --   3163.2170              3169.9076              3178.0413
 Red. masses --      1.0976                 1.0928                 1.0999
 Frc consts  --      6.4709                 6.4699                 6.5449
 IR Inten    --     21.6878                 2.5898                 8.0379

 - Thermochemistry -
 -------------------
 Temperature   298.150 Kelvin.  Pressure   1.00000 Atm.
 Atom     1 has atomic number  6 and mass  12.00000

 Molecular mass:   213.13649 amu.
 Principal axes and moments of inertia in atomic units:
                           1         2         3
     Eigenvalues --  1428.122265807.637286363.46687
           X            0.99962  -0.02737  -0.00126
           Y            0.02733   0.99936  -0.02309
           Z            0.00189   0.02305   0.99973
 This molecule is an asymmetric top.
 Rotational symmetry number  1.
 Warning -- assumption of classical behavior for rotation
           may cause significant error
 Rotational temperatures (Kelvin)      0.06065     0.01491     0.01361
 Rotational constants (GHZ):           1.26372     0.31075     0.28361
 Zero-point vibrational energy     785922.2 (Joules/Mol)
                                  187.83991 (Kcal/Mol)
 Warning -- explicit consideration of  24 degrees of freedom as
           vibrations may cause significant error
 Vibrational temperatures:     34.68    39.78    72.46   106.97   126.33
          (Kelvin)            146.37   176.22   190.81   282.39   318.69
                              353.49   412.15   422.17   491.96   518.98
                              537.79   599.43   619.96   638.41   712.06
                              765.54   815.33   849.66   866.27   977.02
                             1038.39  1118.61  1135.29  1188.08  1223.76
                             1241.05  1286.73  1305.45  1353.24  1381.04
                             1419.50  1444.66  1484.56  1510.79  1525.91
                             1536.25  1556.63  1612.16  1621.31  1640.43
                             1688.60  1715.81  1750.79  1773.75  1809.53
                             1851.74  1880.03  1883.98  1905.47  1931.89
                             1977.38  1991.33  2014.55  2018.57  2027.72
                             2033.97  2050.81  2068.42  2084.22  2128.06
                             2160.63  2163.74  2170.64  2178.67  2184.52
                             2185.18  2186.77  2202.14  2214.58  2220.48
                             2534.56  2601.62  4378.44  4380.41  4387.80
                             4400.27  4403.52  4404.28  4419.73  4427.58
                             4443.99  4449.80  4471.43  4479.74  4487.99
                             4500.35  4507.62  4533.09  4551.16  4560.79
                             4572.49

 Zero-point correction=                           0.299342 (Hartree/Particle)
 Thermal correction to Energy=                    0.315034
 Thermal correction to Enthalpy=                  0.315978
 Thermal correction to Gibbs Free Energy=         0.254506
 Sum of electronic and zero-point Energies=           -710.836741
 Sum of electronic and thermal Energies=              -710.821049
 Sum of electronic and thermal Enthalpies=            -710.820105
 Sum of electronic and thermal Free Energies=         -710.881577

                     E (Thermal)             CV                S
                      KCal/Mol        Cal/Mol-Kelvin    Cal/Mol-Kelvin
 Total                  197.687             58.130            129.379
 Electronic               0.000              0.000              0.000
 Translational            0.889              2.981             41.974
 Rotational               0.889              2.981             32.334
 Vibrational            195.909             52.168             55.071
 Vibration     1          0.593              1.985              6.264
 Vibration     2          0.593              1.984              5.991
 Vibration     3          0.595              1.977              4.803
 Vibration     4          0.599              1.966              4.035
 Vibration     5          0.601              1.958              3.708
 Vibration     6          0.604              1.948              3.421
 Vibration     7          0.610              1.930              3.061
 Vibration     8          0.613              1.921              2.908
 Vibration     9          0.636              1.845              2.168
 Vibration    10          0.648              1.808              1.947
 Vibration    11          0.660              1.770              1.761
 Vibration    12          0.684              1.699              1.495
 Vibration    13          0.688              1.686              1.454
 Vibration    14          0.721              1.592              1.203
 Vibration    15          0.735              1.553              1.119
 Vibration    16          0.745              1.526              1.064
 Vibration    17          0.780              1.434              0.904
 Vibration    18          0.792              1.403              0.856
 Vibration    19          0.803              1.375              0.815
 Vibration    20          0.851              1.261              0.671
 Vibration    21          0.887              1.179              0.583
 Vibration    22          0.923              1.103              0.511
 Vibration    23          0.948              1.052              0.466
 Vibration    24          0.960              1.027              0.446

 Optimization completed.
    -- Stationary point found.
 Normal termination of Gaussian 16 at Thu Dec 10 16:56:34 2020.

 ----------------------------------------------------------------------
 # B3LYP/6-311++G(d,p) empiricaldispersion=gd3bj scf=xqc pop=npa geom=c
 heck
 ----------------------------------------------------------------------

 --------------------------------------
 CID_78846565_JID_5575_Energie_neutraal
 --------------------------------------
 Structure from the checkpoint file:  "JID_5575.chk"
 Charge =  0 Multiplicity = 1

 SCF Done:  E(RB3LYP) =  -711.340346890     A.U. after   14 cycles
 Normal termination of Gaussian 16 at Thu Dec 10 17:03:17 2020.

 ----------------------------------------------------------------------
 # B3LYP/6-311++G(d,p) empiricaldispersion=gd3bj scf=xqc pop=npa geom=c
 heck
 ----------------------------------------------------------------------

 ------------------------------------
 CID_78846565_JID_5575_Energie_kation
 ------------------------------------
 Structure from the checkpoint file:  "JID_5575.chk"
 Charge =  1 Multiplicity = 2

 SCF Done:  E(UB3LYP) =  -711.029586459     A.U. after   23 cycles
 Normal termination of Gaussian 16 at Thu Dec 10 17:20:03 2020.
 Gaussian 16:  ES64L-G16RevA.03 25-Dec-2016

 ----------------------------------------------------------------------
 # B3LYP/6-311++G(d,p) empiricaldispersion=gd3bj scf=xqc pop=npa geom=c
 heck
 ----------------------------------------------------------------------

 -----------------------------------
 CID_78846565_JID_5575_Energie_anion
 -----------------------------------
 Structure from the checkpoint file:  "JID_5575.chk"
 Charge = -1 Multiplicity = 2

                         Standard orientation:
 ---------------------------------------------------------------------
 Center     Atomic      Atomic             Coordinates (Angstroms)
 Number     Number       Type             X           Y           Z
 ---------------------------------------------------------------------
      1          6           0       -3.055221    1.818581   -0.938281
      2          6           0       -4.066684    1.075931   -0.062028
      3          6           0       -3.761666   -0.407418    0.104206
      4          8           0       -2.502433   -0.594834    0.793470
      5          6           0       -1.434702   -0.983378    0.060924
      6          8           0       -1.474250   -1.216014   -1.130268
      7          6           0       -0.196600   -1.069723    0.940652
      8          6           0        0.260547    0.349592    1.360910
      9          6           0        0.916458    1.096728    0.195371
     10          7           0        2.019145    0.311911   -0.353570
     11          6           0        1.614190   -0.995565   -0.861938
     12          6           0        0.946258   -1.828474    0.243725
     13          6           0        3.308667    0.692036   -0.067760
     14          8           0        3.561550    1.728423    0.540117
     15          6           0        4.428073   -0.216123   -0.559904
     16          1           0       -2.065545    1.831856   -0.470741
     17          1           0       -3.361544    2.858617   -1.091088
     18          1           0       -2.952888    1.341616   -1.918757
     19          1           0       -4.120537    1.543058    0.929426
     20          1           0       -5.071047    1.152163   -0.500096
     21          1           0       -4.509114   -0.894521    0.736224
     22          1           0       -3.710144   -0.916607   -0.860524
     23          1           0       -0.500133   -1.608989    1.845635
     24          1           0       -0.590956    0.915647    1.752094
     25          1           0        0.995131    0.255721    2.169089
     26          1           0        0.187796    1.276394   -0.606440
     27          1           0        1.323222    2.053246    0.521332
     28          1           0        2.479436   -1.523492   -1.261714
     29          1           0        0.904841   -0.849102   -1.682424
     30          1           0        1.699777   -2.081356    1.000270
     31          1           0        0.573662   -2.765895   -0.182358
     32          1           0        4.405082   -1.192597   -0.062533
     33          1           0        4.372264   -0.388898   -1.640028
     34          1           0        5.371834    0.276059   -0.324188
 ---------------------------------------------------------------------

 SCF Done:  E(UB3LYP) =  -711.328803941     A.U. after   33 cycles
 SCF Done:  E(UB3LYP) =  -711.328803941     a.u. after    1 cycles

 The electronic state is 2-A.
 Alpha  occ. eigenvalues --  -19.07556 -19.02366 -18.99087 -14.24643 -10.21174
 Alpha  occ. eigenvalues --  -10.17851 -10.13242 -10.11195 -10.10911 -10.10021
 Alpha  occ. eigenvalues --  -10.08676 -10.08321 -10.08162 -10.08150 -10.07242
 Alpha  occ. eigenvalues --   -1.01603  -0.94345  -0.93218  -0.84854  -0.73054
 Alpha  occ. eigenvalues --   -0.70066  -0.67906  -0.65055  -0.62262  -0.58915
 Alpha  occ. eigenvalues --   -0.54822  -0.53737  -0.50361  -0.46841  -0.45444
 Alpha  occ. eigenvalues --   -0.41708  -0.40241  -0.39758  -0.38756  -0.38302
 Alpha  occ. eigenvalues --   -0.37101  -0.35954  -0.35663  -0.34369  -0.34049
 Alpha  occ. eigenvalues --   -0.32756  -0.31883  -0.31291  -0.30377  -0.29748
 Alpha  occ. eigenvalues --   -0.28971  -0.27755  -0.27548  -0.27049  -0.26427
 Alpha  occ. eigenvalues --   -0.26134  -0.25030  -0.24627  -0.23913  -0.21170
 Alpha  occ. eigenvalues --   -0.19040  -0.16377  -0.14782   0.04017
 Alpha virt. eigenvalues --    0.05512   0.06721   0.07370   0.08094   0.08419
 Alpha virt. eigenvalues --    0.08751   0.09054   0.09782   0.09925   0.10552
 Alpha virt. eigenvalues --    0.10974   0.11211   0.11431   0.12058   0.12335

  Beta  occ. eigenvalues --  -19.07551 -19.02361 -18.99081 -14.24644 -10.21174
  Beta  occ. eigenvalues --  -10.17846 -10.13220 -10.11183 -10.10907 -10.10010
  Beta  occ. eigenvalues --  -10.08663 -10.08293 -10.08134 -10.08116 -10.07226
  Beta  occ. eigenvalues --   -1.01592  -0.94334  -0.93207  -0.84846  -0.73024
  Beta  occ. eigenvalues --   -0.70028  -0.67879  -0.65013  -0.62226  -0.58882
  Beta  occ. eigenvalues --   -0.54778  -0.53699  -0.50305  -0.46802  -0.45421
  Beta  occ. eigenvalues --   -0.41666  -0.40210  -0.39715  -0.38739  -0.38276
  Beta  occ. eigenvalues --   -0.37069  -0.35920  -0.35631  -0.34345  -0.34015
  Beta  occ. eigenvalues --   -0.32733  -0.31857  -0.31265  -0.30356  -0.29718
  Beta  occ. eigenvalues --   -0.28938  -0.27726  -0.27520  -0.27016  -0.26397
  Beta  occ. eigenvalues --   -0.26099  -0.24996  -0.24598  -0.23885  -0.21144
  Beta  occ. eigenvalues --   -0.19029  -0.16366  -0.14771
  Beta virt. eigenvalues --    0.06203   0.06617   0.07333   0.07887   0.08446
  Beta virt. eigenvalues --    0.08986   0.09071   0.09426   0.10185   0.10286
  Beta virt. eigenvalues --    0.10935   0.11065   0.11408   0.11754   0.12274

 Mulliken charges and spin densities:
               1          2
     1  C   -0.273370  -0.126168
     2  C    0.477731  -0.731772
     3  C    0.456528  -0.607658
     4  O    0.018945   0.054061
     5  C   -0.082196  -0.748670
     6  O   -0.211200   0.019852
     7  C   -1.060461   1.811835
     8  C    1.053933  -1.389215
     9  C   -0.691037   0.201733
    10  N    0.152145   0.008403
    11  C   -1.067991   0.679503
    12  C    1.837292  -2.444373
    13  C   -0.475311   0.605271
    14  O   -0.354655  -0.000577
    15  C    0.827369  -1.363697
    16  H    0.257075  -0.175123
    17  H   -0.244076   0.394968
    18  H    0.132749   0.018865
    19  H   -0.070103   0.230952
    20  H   -0.437355   0.586830
    21  H   -0.511099   0.685033
    22  H    0.150316   0.033090
    23  H   -0.516753   0.800590
    24  H    0.103049   0.089573
    25  H    0.041646   0.145198
    26  H    0.079673   0.134771
    27  H    0.170736   0.053061
    28  H   -0.092914   0.267756
    29  H    0.104576   0.109578
    30  H   -0.207653   0.394105
    31  H   -0.164237   0.343428
    32  H   -0.324136   0.500543
    33  H   -0.177282   0.344065
    34  H    0.098067   0.074190
 Sum of Mulliken charges =  -1.00000   1.00000

 Dipole moment (field-independent basis, Debye):
    X=              0.8076    Y=              1.3873    Z=             -1.9864  Tot=              2.5539
 Quadrupole moment (field-independent basis, Debye-Ang):
   XX=           -190.5765   YY=           -140.2919   ZZ=           -125.9014
   XY=              4.3604   XZ=             -0.4580   YZ=              1.5751

 Summary of Natural Population Analysis:

                                       Natural Population
                Natural  -----------------------------------------------
    Atom  No    Charge         Core      Valence    Rydberg      Total
 -----------------------------------------------------------------------
      C    1   -0.28815      0.99966     2.28247    0.00602     3.28815
      C    2   -0.20051      0.99964     2.19311    0.00777     3.20051
      C    3   -0.01538      0.99954     2.00417    0.01167     3.01538
      O    4   -0.28460      0.99986     3.27453    0.01022     4.28460
      C    5    0.41604      0.99965     1.55735    0.02696     2.58396
      O    6   -0.31243      0.99987     3.30751    0.00505     4.31243
      C    7   -0.15512      0.99954     2.14363    0.01195     3.15512
      C    8   -0.19053      0.99961     2.18253    0.00839     3.19053
      C    9   -0.09136      0.99960     2.08215    0.00961     3.09136
      N   10   -0.25800      0.99964     2.74809    0.01026     3.75800
      C   11   -0.08685      0.99960     2.07693    0.01032     3.08685
      C   12   -0.19359      0.99962     2.18346    0.01051     3.19359
      C   13    0.34515      0.99966     1.63264    0.02255     2.65485
      O   14   -0.33109      0.99988     3.32555    0.00566     4.33109
      C   15   -0.33227      0.99963     2.32752    0.00512     3.33227
      H   16    0.09619      0.00000     0.40260    0.00121     0.40381
      H   17    0.09985      0.00000     0.39929    0.00086     0.40015
      H   18    0.10009      0.00000     0.39900    0.00091     0.39991
      H   19    0.09833      0.00000     0.40029    0.00138     0.40167
      H   20    0.10088      0.00000     0.39726    0.00185     0.39912
      H   21    0.09444      0.00000     0.40381    0.00175     0.40556
      H   22    0.09719      0.00000     0.40142    0.00139     0.40281
      H   23    0.11861      0.00000     0.37938    0.00201     0.38139
      H   24    0.10776      0.00000     0.39112    0.00111     0.39224
      H   25    0.10404      0.00000     0.39478    0.00118     0.39596
      H   26    0.09338      0.00000     0.40533    0.00129     0.40662
      H   27    0.11804      0.00000     0.38085    0.00111     0.38196
      H   28    0.10464      0.00000     0.39399    0.00137     0.39536
      H   29    0.10408      0.00000     0.39454    0.00138     0.39592
      H   30    0.10227      0.00000     0.39563    0.00209     0.39773
      H   31    0.10817      0.00000     0.39045    0.00138     0.39183
      H   32    0.11177      0.00000     0.38667    0.00156     0.38823
      H   33    0.10701      0.00000     0.39204    0.00096     0.39299
      H   34    0.11192      0.00000     0.38725    0.00082     0.38808
 =======================================================================
   * Total *    0.00000     14.99499    42.81734    0.18767    58.00000

 Normal termination of Gaussian 16 at Thu Dec 10 17:45:36 2020.
