 Gaussian 16, Revision A.03,

 -----------------------------------------------------------
 # opt freq B3LYP/6-31G(d) empiricaldispersion=gd3bj scf=xqc
 -----------------------------------------------------------

 ------------------------------
 CID_150807477_JID_524_neutraal
 ------------------------------
 Symbolic Z-matrix:
 Charge =  0 Multiplicity = 1

 SCF Done:  E(RB3LYP) =  -507.848225078     A.U. after   16 cycles
 SCF Done:  E(RB3LYP) =  -507.854274793     A.U. after   14 cycles
 SCF Done:  E(RB3LYP) =  -507.856189928     A.U. after   14 cycles
 SCF Done:  E(RB3LYP) =  -507.856637865     A.U. after   14 cycles
 SCF Done:  E(RB3LYP) =  -507.856885749     A.U. after   14 cycles
 SCF Done:  E(RB3LYP) =  -507.856977355     A.U. after   13 cycles
 SCF Done:  E(RB3LYP) =  -507.857059097     A.U. after   14 cycles
 SCF Done:  E(RB3LYP) =  -507.857114816     A.U. after   16 cycles
 SCF Done:  E(RB3LYP) =  -507.857081069     A.U. after   12 cycles
 SCF Done:  E(RB3LYP) =  -507.857297282     A.U. after   14 cycles
 SCF Done:  E(RB3LYP) =  -507.859032162     A.U. after   14 cycles
 SCF Done:  E(RB3LYP) =  -507.859031241     A.U. after   10 cycles
 SCF Done:  E(RB3LYP) =  -507.859034256     A.U. after   11 cycles
 SCF Done:  E(RB3LYP) =  -507.859034573     A.U. after   10 cycles
 SCF Done:  E(RB3LYP) =  -507.859034671     A.U. after    9 cycles
 Optimization completed.
    -- Stationary point found.
 Normal termination of Gaussian 16 at Tue Dec  8 13:43:30 2020.

 --------------------------------------------------------------------
 #N Geom=AllCheck Guess=TCheck SCRF=Check GenChk RB3LYP/6-31G(d) Freq
 --------------------------------------------------------------------

 Structure from the checkpoint file:  "JID_524.chk"
 ------------------------------
 CID_150807477_JID_524_neutraal
 ------------------------------
 Charge =  0 Multiplicity = 1

 SCF Done:  E(RB3LYP) =  -507.859034671     A.U. after    1 cycles

  Exact polarizability:  89.588  -7.250  92.499   2.042  -8.934  67.834
 Approx polarizability: 109.952 -18.436 142.982   5.965 -35.275 123.968

                      1                      2                      3
                      A                      A                      A
 Frequencies --     30.4909                40.1819                65.2597
 Red. masses --      6.6205                 2.6011                 7.3562
 Frc consts  --      0.0036                 0.0025                 0.0185
 IR Inten    --      0.2680                 1.4834                 0.4482

                      4                      5                      6
                      A                      A                      A
 Frequencies --     99.1406               114.6982               151.8944
 Red. masses --      2.4645                 1.9656                 3.3869
 Frc consts  --      0.0143                 0.0152                 0.0460
 IR Inten    --      1.0343                 0.5212                 2.0455

                      7                      8                      9
                      A                      A                      A
 Frequencies --    195.6464               235.9978               253.7826
 Red. masses --      3.2025                 1.2430                 1.6058
 Frc consts  --      0.0722                 0.0408                 0.0609
 IR Inten    --      1.5717                 0.0258                 1.1686

                     10                     11                     12
                      A                      A                      A
 Frequencies --    303.7956               334.8521               371.8074
 Red. masses --      2.7422                 2.7381                 5.4128
 Frc consts  --      0.1491                 0.1809                 0.4409
 IR Inten    --      1.8845                 2.5919                 2.0751

                     13                     14                     15
                      A                      A                      A
 Frequencies --    406.2452               442.6414               535.2233
 Red. masses --      2.3699                 3.7294                13.5715
 Frc consts  --      0.2304                 0.4305                 2.2906
 IR Inten    --      0.8739                 7.1197                 7.2765

                     16                     17                     18
                      A                      A                      A
 Frequencies --    619.0852               730.8040               776.4315
 Red. masses --      6.0735                 5.2639                 6.8247
 Frc consts  --      1.3715                 1.6564                 2.4240
 IR Inten    --      0.8843                 2.6951                13.4849

                     19                     20                     21
                      A                      A                      A
 Frequencies --    788.8796               814.7889               843.5110
 Red. masses --      1.4434                 1.8020                 2.1009
 Frc consts  --      0.5292                 0.7048                 0.8807
 IR Inten    --     78.9577                 2.8546                 2.0302

                     22                     23                     24
                      A                      A                      A
 Frequencies --    893.4848               975.2586              1019.4103
 Red. masses --      2.2977                 2.5497                 1.4726
 Frc consts  --      1.0807                 1.4288                 0.9017
 IR Inten    --     13.4274                 8.0105                23.1555

                     25                     26                     27
                      A                      A                      A
 Frequencies --   1050.7327              1106.6736              1134.4695
 Red. masses --      3.2714                 2.0204                 2.1198
 Frc consts  --      2.1280                 1.4579                 1.6074
 IR Inten    --     23.5473                 7.0868                12.8931

                     28                     29                     30
                      A                      A                      A
 Frequencies --   1143.1173              1165.6505              1180.0443
 Red. masses --      2.1823                10.2288                 1.8356
 Frc consts  --      1.6801                 8.1887                 1.5060
 IR Inten    --     40.2889                54.6418                52.0485

                     31                     32                     33
                      A                      A                      A
 Frequencies --   1216.3776              1254.3558              1332.5422
 Red. masses --      2.0960                 2.2222                 1.1798
 Frc consts  --      1.8272                 2.0600                 1.2342
 IR Inten    --     10.3498                 3.2620                 6.2780

                     34                     35                     36
                      A                      A                      A
 Frequencies --   1353.5014              1405.8029              1422.7832
 Red. masses --      1.1792                 1.3205                 1.2445
 Frc consts  --      1.2728                 1.5376                 1.4843
 IR Inten    --     29.6912                15.1887                22.7117

                     37                     38                     39
                      A                      A                      A
 Frequencies --   1443.6239              1483.1423              1502.0060
 Red. masses --      1.3057                 1.1590                 1.1625
 Frc consts  --      1.6033                 1.5021                 1.5452
 IR Inten    --      9.9109                 0.9514                 7.6830

                     40                     41                     42
                      A                      A                      A
 Frequencies --   1516.0727              1518.0662              1523.4276
 Red. masses --      1.0556                 1.1130                 1.0630
 Frc consts  --      1.4296                 1.5112                 1.4535
 IR Inten    --      6.6786                28.4540                 6.4406

                     43                     44                     45
                      A                      A                      A
 Frequencies --   1524.9556              1537.1074              1546.2374
 Red. masses --      1.0845                 1.0608                 1.0480
 Frc consts  --      1.4859                 1.4767                 1.4762
 IR Inten    --      4.5913                 4.5859                12.5350

                     46                     47                     48
                      A                      A                      A
 Frequencies --   2187.5611              2958.3358              2967.9427
 Red. masses --     13.9784                 1.0617                 1.0717
 Frc consts  --     39.4120                 5.4745                 5.5620
 IR Inten    --    309.2614                76.5781                91.1241

                     49                     50                     51
                      A                      A                      A
 Frequencies --   3024.4815              3063.3546              3070.2729
 Red. masses --      1.0596                 1.0390                 1.0998
 Frc consts  --      5.7109                 5.7448                 6.1084
 IR Inten    --     38.6069                22.8707                24.5019

                     52                     53                     54
                      A                      A                      A
 Frequencies --   3081.3378              3116.3671              3128.4001
 Red. masses --      1.0734                 1.0903                 1.1027
 Frc consts  --      6.0046                 6.2389                 6.3582
 IR Inten    --     32.8882                13.9293                30.1123

                     55                     56                     57
                      A                      A                      A
 Frequencies --   3131.3479              3151.0616              3505.2448
 Red. masses --      1.1024                 1.1024                 1.0740
 Frc consts  --      6.3685                 6.4493                 7.7751
 IR Inten    --     32.6501                18.1075                 0.3985

 - Thermochemistry -
 -------------------
 Temperature   298.150 Kelvin.  Pressure   1.00000 Atm.
 Atom     1 has atomic number  6 and mass  12.00000

 Molecular mass:   145.09636 amu.
 Principal axes and moments of inertia in atomic units:
                           1         2         3
     Eigenvalues --  1161.339971901.659482710.28671
           X            0.99487   0.10114  -0.00057
           Y           -0.10113   0.99483   0.00946
           Z            0.00152  -0.00935   0.99996
 This molecule is an asymmetric top.
 Rotational symmetry number  1.
 Warning -- assumption of classical behavior for rotation
           may cause significant error
 Rotational temperatures (Kelvin)      0.07458     0.04555     0.03196
 Rotational constants (GHZ):           1.55402     0.94903     0.66589
 Zero-point vibrational energy     453323.1 (Joules/Mol)
                                  108.34683 (Kcal/Mol)
 Warning -- explicit consideration of  16 degrees of freedom as
           vibrations may cause significant error
 Vibrational temperatures:     43.87    57.81    93.89   142.64   165.03
          (Kelvin)            218.54   281.49   339.55   365.14   437.09
                              481.78   534.95   584.50   636.86   770.07
                              890.73  1051.46  1117.11  1135.02  1172.30
                             1213.62  1285.53  1403.18  1466.70  1511.77
                             1592.26  1632.25  1644.69  1677.11  1697.82
                             1750.10  1804.74  1917.23  1947.39  2022.64
                             2047.07  2077.05  2133.91  2161.05  2181.29
                             2184.16  2191.87  2194.07  2211.55  2224.69
                             3147.41  4256.39  4270.21  4351.55  4407.48
                             4417.44  4433.36  4483.76  4501.07  4505.31
                             4533.67  5043.27

 Zero-point correction=                           0.172662 (Hartree/Particle)
 Thermal correction to Energy=                    0.184501
 Thermal correction to Enthalpy=                  0.185445
 Thermal correction to Gibbs Free Energy=         0.133265
 Sum of electronic and zero-point Energies=           -507.686373
 Sum of electronic and thermal Energies=              -507.674534
 Sum of electronic and thermal Enthalpies=            -507.673590
 Sum of electronic and thermal Free Energies=         -507.725769

                     E (Thermal)             CV                S
                      KCal/Mol        Cal/Mol-Kelvin    Cal/Mol-Kelvin
 Total                  115.776             40.511            109.821
 Electronic               0.000              0.000              0.000
 Translational            0.889              2.981             40.828
 Rotational               0.889              2.981             30.171
 Vibrational            113.999             34.549             38.822
 Vibration     1          0.594              1.984              5.797
 Vibration     2          0.594              1.981              5.250
 Vibration     3          0.597              1.971              4.291
 Vibration     4          0.604              1.950              3.471
 Vibration     5          0.608              1.937              3.188
 Vibration     6          0.619              1.901              2.648
 Vibration     7          0.636              1.846              2.174
 Vibration     8          0.655              1.786              1.833
 Vibration     9          0.665              1.756              1.704
 Vibration    10          0.695              1.667              1.396
 Vibration    11          0.716              1.606              1.237
 Vibration    12          0.744              1.530              1.072
 Vibration    13          0.771              1.457              0.940
 Vibration    14          0.802              1.377              0.818
 Vibration    15          0.890              1.172              0.576
 Vibration    16          0.979              0.992              0.418

 Optimization completed.
    -- Stationary point found.
 Normal termination of Gaussian 16 at Tue Dec  8 13:48:23 2020.

 ----------------------------------------------------------------------
 # B3LYP/6-311++G(d,p) empiricaldispersion=gd3bj scf=xqc pop=npa geom=c
 heck
 ----------------------------------------------------------------------

 --------------------------------------
 CID_150807477_JID_524_Energie_neutraal
 --------------------------------------
 Structure from the checkpoint file:  "JID_524.chk"
 Charge =  0 Multiplicity = 1

 SCF Done:  E(RB3LYP) =  -508.009108928     A.U. after   15 cycles
 Normal termination of Gaussian 16 at Tue Dec  8 13:53:16 2020.

 ----------------------------------------------------------------------
 # B3LYP/6-311++G(d,p) empiricaldispersion=gd3bj scf=xqc pop=npa geom=c
 heck
 ----------------------------------------------------------------------

 ------------------------------------
 CID_150807477_JID_524_Energie_kation
 ------------------------------------
 Structure from the checkpoint file:  "JID_524.chk"
 Charge =  1 Multiplicity = 2

 SCF Done:  E(UB3LYP) =  -507.687260738     A.U. after   33 cycles
 SCF Done:  E(UB3LYP) =  -507.687260744     a.u. after    2 cycles
 Normal termination of Gaussian 16 at Tue Dec  8 14:03:19 2020.
 Gaussian 16:  ES64L-G16RevA.03 25-Dec-2016

 ----------------------------------------------------------------------
 # B3LYP/6-311++G(d,p) empiricaldispersion=gd3bj scf=xqc pop=npa geom=c
 heck
 ----------------------------------------------------------------------

 -----------------------------------
 CID_150807477_JID_524_Energie_anion
 -----------------------------------
 Structure from the checkpoint file:  "JID_524.chk"
 Charge = -1 Multiplicity = 2

                         Standard orientation:
 ---------------------------------------------------------------------
 Center     Atomic      Atomic             Coordinates (Angstroms)
 Number     Number       Type             X           Y           Z
 ---------------------------------------------------------------------
      1          6           0        1.357953    2.515136    0.140595
      2          6           0       -0.014368    1.862175    0.248939
      3          7           0        0.086435    0.400622    0.351002
      4          6           0       -1.173310   -0.271947    0.653826
      5          7           0       -2.274047    0.048959   -0.241961
      6          6           0       -3.355891   -0.928866   -0.195688
      7          8           0        0.518072   -0.088875   -0.937228
      8          7           0        1.902863   -0.522579   -0.852190
      9          7           0        1.974013   -1.459070   -0.021764
     10          7           0        2.163260   -2.285163    0.742321
     11          1           0        1.985414    2.239666    0.993952
     12          1           0        1.254807    3.605420    0.116810
     13          1           0        1.865743    2.198394   -0.774044
     14          1           0       -0.516141    2.189560    1.169179
     15          1           0       -0.647241    2.147859   -0.603362
     16          1           0       -0.984321   -1.346494    0.585716
     17          1           0       -1.379131   -0.038688    1.714156
     18          1           0       -2.644154    0.969555   -0.017434
     19          1           0       -3.787398   -1.092571    0.809077
     20          1           0       -4.161199   -0.607093   -0.862961
     21          1           0       -2.984932   -1.892982   -0.561158
 ---------------------------------------------------------------------

 SCF Done:  E(UB3LYP) =  -508.016511393     A.U. after   28 cycles

 The electronic state is 2-A.
 Alpha  occ. eigenvalues --  -19.02029 -14.27128 -14.22036 -14.21526 -14.19135
 Alpha  occ. eigenvalues --  -14.18417 -10.09873 -10.08348 -10.07426 -10.04032
 Alpha  occ. eigenvalues --   -0.97775  -0.91814  -0.80867  -0.77271  -0.69808
 Alpha  occ. eigenvalues --   -0.63015  -0.56524  -0.52422  -0.47563  -0.41685
 Alpha  occ. eigenvalues --   -0.38245  -0.36026  -0.35014  -0.33435  -0.33315
 Alpha  occ. eigenvalues --   -0.32348  -0.30282  -0.29391  -0.28029  -0.27481
 Alpha  occ. eigenvalues --   -0.26754  -0.24960  -0.24190  -0.23268  -0.20115
 Alpha  occ. eigenvalues --   -0.14337  -0.11716  -0.11197  -0.07808   0.04758
 Alpha virt. eigenvalues --    0.06846   0.08223   0.09569   0.09840   0.11718
 Alpha virt. eigenvalues --    0.12090   0.12490   0.13521   0.14255   0.14778
 Alpha virt. eigenvalues --    0.15616   0.16632   0.17340   0.17901   0.18644

  Beta  occ. eigenvalues --  -19.01654 -14.26721 -14.22027 -14.21526 -14.18403
  Beta  occ. eigenvalues --  -14.18396 -10.09866 -10.08330 -10.07406 -10.04023
  Beta  occ. eigenvalues --   -0.96963  -0.91018  -0.80669  -0.76965  -0.69323
  Beta  occ. eigenvalues --   -0.62963  -0.56443  -0.52372  -0.47308  -0.41399
  Beta  occ. eigenvalues --   -0.38117  -0.35551  -0.34855  -0.33111  -0.32482
  Beta  occ. eigenvalues --   -0.31637  -0.29932  -0.29079  -0.27645  -0.26760
  Beta  occ. eigenvalues --   -0.26294  -0.24844  -0.23936  -0.23225  -0.18715
  Beta  occ. eigenvalues --   -0.13915  -0.11641  -0.11025  -0.07495
  Beta virt. eigenvalues --    0.07307   0.08466   0.09845   0.10080   0.11805
  Beta virt. eigenvalues --    0.12056   0.12328   0.12607   0.13682   0.14293
  Beta virt. eigenvalues --    0.14899   0.15684   0.16813   0.17546   0.17981

 Mulliken charges and spin densities:
               1          2
     1  C   -0.188581  -0.416160
     2  C    0.189446  -0.383275
     3  N   -0.127971   0.075437
     4  C   -0.371873  -0.096636
     5  N   -0.213864   0.086964
     6  C    0.218428  -0.591163
     7  O    0.074401   0.069502
     8  N   -0.058222   0.080122
     9  N    0.050501   0.067404
    10  N   -0.447947   0.411296
    11  H    0.126092   0.021799
    12  H   -0.022222   0.120049
    13  H    0.110405   0.069263
    14  H   -0.415749   0.539424
    15  H    0.168059  -0.026579
    16  H    0.215314  -0.047925
    17  H   -0.010847   0.144653
    18  H   -0.132977   0.350919
    19  H   -0.147368   0.256478
    20  H   -0.100519   0.218090
    21  H    0.085493   0.050339
 Sum of Mulliken charges =  -1.00000   1.00000

 Dipole moment (field-independent basis, Debye):
    X=             -1.9092    Y=              1.4503    Z=             -0.0595  Tot=              2.3983
 Quadrupole moment (field-independent basis, Debye-Ang):
   XX=            -98.6671   YY=            -87.1475   ZZ=            -80.9606
   XY=             11.4189   XZ=              0.9571   YZ=              1.1462

 Summary of Natural Population Analysis:

                                       Natural Population
                Natural  -----------------------------------------------
    Atom  No    Charge         Core      Valence    Rydberg      Total
 -----------------------------------------------------------------------
      C    1   -0.28930      0.99966     2.28443    0.00521     3.28930
      C    2   -0.09541      0.99962     2.08243    0.01336     3.09541
      N    3   -0.12640      0.99969     2.61165    0.01505     3.62640
      C    4    0.00410      0.99961     1.97994    0.01635     2.99590
      N    5   -0.34142      0.99974     2.82961    0.01208     3.84142
      C    6   -0.17898      0.99967     2.17055    0.00876     3.17898
      O    7   -0.13039      0.99992     3.12003    0.01044     4.13039
      N    8   -0.09590      0.99974     2.57951    0.01665     3.59590
      N    9    0.12370      0.99972     2.36004    0.01654     3.37630
      N   10    0.04771      0.99982     2.43900    0.01347     3.45229
      H   11    0.09831      0.00000     0.40023    0.00146     0.40169
      H   12    0.09059      0.00000     0.40859    0.00082     0.40941
      H   13    0.10843      0.00000     0.38976    0.00181     0.39157
      H   14    0.09057      0.00000     0.40741    0.00202     0.40943
      H   15    0.08635      0.00000     0.41154    0.00211     0.41365
      H   16    0.09802      0.00000     0.40035    0.00163     0.40198
      H   17    0.08008      0.00000     0.41841    0.00151     0.41992
      H   18    0.17049      0.00000     0.32548    0.00403     0.32951
      H   19    0.07578      0.00000     0.42270    0.00152     0.42422
      H   20    0.09265      0.00000     0.40650    0.00085     0.40735
      H   21    0.09102      0.00000     0.40795    0.00103     0.40898
 =======================================================================
   * Total *    0.00000      9.99718    28.85609    0.14673    39.00000

 Normal termination of Gaussian 16 at Tue Dec  8 14:12:26 2020.
