 Gaussian 16, Revision A.03,

 -----------------------------------------------------------
 # opt freq B3LYP/6-31G(d) empiricaldispersion=gd3bj scf=xqc
 -----------------------------------------------------------

 ------------------------------
 CID_11851258_JID_4022_neutraal
 ------------------------------
 Symbolic Z-matrix:
 Charge =  0 Multiplicity = 1

 SCF Done:  E(RB3LYP) =  -723.956012727     A.U. after   14 cycles
 SCF Done:  E(RB3LYP) =  -723.958142505     A.U. after   13 cycles
 SCF Done:  E(RB3LYP) =  -723.957657925     A.U. after   13 cycles
 SCF Done:  E(RB3LYP) =  -723.958370373     A.U. after   12 cycles
 SCF Done:  E(RB3LYP) =  -723.958799553     A.U. after   11 cycles
 SCF Done:  E(RB3LYP) =  -723.958837884     A.U. after   11 cycles
 SCF Done:  E(RB3LYP) =  -723.958884392     A.U. after   11 cycles
 SCF Done:  E(RB3LYP) =  -723.958904392     A.U. after   10 cycles
 SCF Done:  E(RB3LYP) =  -723.958908354     A.U. after   11 cycles
 SCF Done:  E(RB3LYP) =  -723.958918652     A.U. after   10 cycles
 SCF Done:  E(RB3LYP) =  -723.958919298     A.U. after    9 cycles
 SCF Done:  E(RB3LYP) =  -723.958919523     A.U. after    8 cycles
 SCF Done:  E(RB3LYP) =  -723.958919671     A.U. after    8 cycles
 SCF Done:  E(RB3LYP) =  -723.958919689     A.U. after    7 cycles
 Optimization completed.
    -- Stationary point found.
 Normal termination of Gaussian 16 at Thu Dec 10 09:13:59 2020.

 --------------------------------------------------------------------
 #N Geom=AllCheck Guess=TCheck SCRF=Check GenChk RB3LYP/6-31G(d) Freq
 --------------------------------------------------------------------

 Structure from the checkpoint file:  "JID_4022.chk"
 ------------------------------
 CID_11851258_JID_4022_neutraal
 ------------------------------
 Charge =  0 Multiplicity = 1

 SCF Done:  E(RB3LYP) =  -723.958919689     A.U. after    1 cycles

  Exact polarizability: 142.579   4.298 115.192 -11.891   8.531  58.558
 Approx polarizability: 229.736   6.914 186.896 -30.200  15.592  91.001

                      1                      2                      3
                      A                      A                      A
 Frequencies --     37.4071                51.6981                71.2378
 Red. masses --      8.6021                 9.3579                 8.3105
 Frc consts  --      0.0071                 0.0147                 0.0248
 IR Inten    --      0.7085                 0.7467                 0.6962

                      4                      5                      6
                      A                      A                      A
 Frequencies --     94.0564               139.7246               189.6027
 Red. masses --      6.4685                 5.0800                 6.5121
 Frc consts  --      0.0337                 0.0584                 0.1379
 IR Inten    --      0.7684                 0.4249                 0.1888

                      7                      8                      9
                      A                      A                      A
 Frequencies --    213.8717               312.0966               339.5027
 Red. masses --      6.6861                 3.8420                 6.4033
 Frc consts  --      0.1802                 0.2205                 0.4348
 IR Inten    --      1.0849                 2.0794                 0.7013

                     10                     11                     12
                      A                      A                      A
 Frequencies --    355.4808               369.4332               401.6136
 Red. masses --      3.4600                 1.2045                 5.5511
 Frc consts  --      0.2576                 0.0969                 0.5275
 IR Inten    --      3.6593               114.3094                 8.9597

                     13                     14                     15
                      A                      A                      A
 Frequencies --    416.9060               436.5094               501.0689
 Red. masses --      6.7246                 3.1697                 2.1337
 Frc consts  --      0.6886                 0.3558                 0.3156
 IR Inten    --      5.3725                 8.7726                 4.5377

                     16                     17                     18
                      A                      A                      A
 Frequencies --    531.2217               543.4979               571.6114
 Red. masses --      3.9005                 2.9667                 4.5839
 Frc consts  --      0.6485                 0.5163                 0.8824
 IR Inten    --     12.5275                14.1725                25.7890

                     19                     20                     21
                      A                      A                      A
 Frequencies --    616.3923               621.7301               666.9798
 Red. masses --      3.1003                 1.3977                 4.1849
 Frc consts  --      0.6940                 0.3183                 1.0969
 IR Inten    --     33.2463                87.3801                24.1113

                     22                     23                     24
                      A                      A                      A
 Frequencies --    699.6650               718.0026               746.5145
 Red. masses --      1.6571                 3.7672                 5.6056
 Frc consts  --      0.4780                 1.1443                 1.8405
 IR Inten    --    105.2162                49.6138                19.0080

                     25                     26                     27
                      A                      A                      A
 Frequencies --    787.4696               824.4274               861.5918
 Red. masses --      5.2616                 2.3465                 2.1823
 Frc consts  --      1.9224                 0.9397                 0.9545
 IR Inten    --     27.0736                 3.7468                 7.6626

                     28                     29                     30
                      A                      A                      A
 Frequencies --    875.1831               878.7709               946.7470
 Red. masses --      3.0423                 1.6954                 2.2897
 Frc consts  --      1.3729                 0.7714                 1.2092
 IR Inten    --     11.1626                 6.0723                 3.9775

                     31                     32                     33
                      A                      A                      A
 Frequencies --    965.5966               973.2805              1082.9575
 Red. masses --      1.5734                 3.0468                 3.4474
 Frc consts  --      0.8644                 1.7005                 2.3821
 IR Inten    --      2.0341                 5.4318                56.8767

                     34                     35                     36
                      A                      A                      A
 Frequencies --   1169.8236              1195.6131              1206.7409
 Red. masses --      1.5627                 2.1855                 1.6854
 Frc consts  --      1.2600                 1.8407                 1.4460
 IR Inten    --     44.6288               191.6779               310.5481

                     37                     38                     39
                      A                      A                      A
 Frequencies --   1217.0201              1235.6080              1240.3427
 Red. masses --      1.5799                 1.8576                 1.3668
 Frc consts  --      1.3787                 1.6710                 1.2389
 IR Inten    --    237.2602                 4.9590                23.4394

                     40                     41                     42
                      A                      A                      A
 Frequencies --   1310.8454              1338.0811              1365.3582
 Red. masses --      1.9409                 1.8953                 1.4759
 Frc consts  --      1.9649                 1.9994                 1.6211
 IR Inten    --     51.9513                33.9379                 8.5792

                     43                     44                     45
                      A                      A                      A
 Frequencies --   1380.6741              1382.0276              1399.2872
 Red. masses --      2.4527                 3.4560                 3.5135
 Frc consts  --      2.7547                 3.8892                 4.0532
 IR Inten    --     46.7036                35.7720               103.0270

                     46                     47                     48
                      A                      A                      A
 Frequencies --   1479.5743              1490.8588              1557.8605
 Red. masses --      1.4229                 1.9008                 3.2061
 Frc consts  --      1.8353                 2.4893                 4.5844
 IR Inten    --     25.3209                58.1943                53.2100

                     49                     50                     51
                      A                      A                      A
 Frequencies --   1648.7836              1673.8900              1809.8549
 Red. masses --      5.8981                 6.2831                 9.4851
 Frc consts  --      9.4468                10.3723                18.3054
 IR Inten    --     10.3342                77.4610               268.2575

                     52                     53                     54
                      A                      A                      A
 Frequencies --   1854.6344              3067.6348              3136.3651
 Red. masses --      9.9876                 1.0683                 1.0935
 Frc consts  --     20.2409                 5.9231                 6.3375
 IR Inten    --    374.3033                14.8603                 1.1161

                     55                     56                     57
                      A                      A                      A
 Frequencies --   3192.0092              3215.0223              3221.9269
 Red. masses --      1.0890                 1.0903                 1.0935
 Frc consts  --      6.5377                 6.6397                 6.6883
 IR Inten    --     12.4386                 5.1109                 6.5087

                     58                     59                     60
                      A                      A                      A
 Frequencies --   3687.5334              3701.1791              3750.7599
 Red. masses --      1.0638                 1.0642                 1.0659
 Frc consts  --      8.5227                 8.5894                 8.8353
 IR Inten    --     47.6240                79.4226                48.6250

 - Thermochemistry -
 -------------------
 Temperature   298.150 Kelvin.  Pressure   1.00000 Atm.
 Atom     1 has atomic number  6 and mass  12.00000

 Molecular mass:   196.03717 amu.
 Principal axes and moments of inertia in atomic units:
                           1         2         3
     Eigenvalues --  1613.578493549.650394679.29863
           X            0.99999  -0.00327  -0.00231
           Y            0.00330   0.99987   0.01587
           Z            0.00225  -0.01588   0.99987
 This molecule is an asymmetric top.
 Rotational symmetry number  1.
 Warning -- assumption of classical behavior for rotation
           may cause significant error
 Rotational temperatures (Kelvin)      0.05368     0.02440     0.01851
 Rotational constants (GHZ):           1.11847     0.50843     0.38569
 Zero-point vibrational energy     429286.9 (Joules/Mol)
                                  102.60202 (Kcal/Mol)
 Warning -- explicit consideration of  19 degrees of freedom as
           vibrations may cause significant error
 Vibrational temperatures:     53.82    74.38   102.50   135.33   201.03
          (Kelvin)            272.80   307.71   449.04   488.47   511.46
                              531.53   577.83   599.83   628.04   720.93
                              764.31   781.97   822.42   886.85   894.53
                              959.64  1006.66  1033.05  1074.07  1132.99
                             1186.17  1239.64  1259.19  1264.36  1362.16
                             1389.28  1400.33  1558.13  1683.12  1720.22
                             1736.23  1751.02  1777.76  1784.58  1886.01
                             1925.20  1964.45  1986.48  1988.43  2013.26
                             2128.78  2145.01  2241.41  2372.23  2408.35
                             2603.98  2668.41  4413.64  4512.53  4592.59
                             4625.70  4635.63  5305.54  5325.17  5396.51

 Zero-point correction=                           0.163507 (Hartree/Particle)
 Thermal correction to Energy=                    0.175893
 Thermal correction to Enthalpy=                  0.176837
 Thermal correction to Gibbs Free Energy=         0.123729
 Sum of electronic and zero-point Energies=           -723.795413
 Sum of electronic and thermal Energies=              -723.783027
 Sum of electronic and thermal Enthalpies=            -723.782083
 Sum of electronic and thermal Free Energies=         -723.835190

                     E (Thermal)             CV                S
                      KCal/Mol        Cal/Mol-Kelvin    Cal/Mol-Kelvin
 Total                  110.374             46.709            111.774
 Electronic               0.000              0.000              0.000
 Translational            0.889              2.981             41.724
 Rotational               0.889              2.981             31.661
 Vibrational            108.597             40.748             38.389
 Vibration     1          0.594              1.982              5.392
 Vibration     2          0.596              1.977              4.751
 Vibration     3          0.598              1.968              4.119
 Vibration     4          0.603              1.953              3.574
 Vibration     5          0.615              1.914              2.808
 Vibration     6          0.633              1.854              2.232
 Vibration     7          0.644              1.820              2.010
 Vibration     8          0.700              1.651              1.351
 Vibration     9          0.719              1.597              1.214
 Vibration    10          0.731              1.564              1.142
 Vibration    11          0.742              1.535              1.082
 Vibration    12          0.767              1.467              0.957
 Vibration    13          0.780              1.434              0.903
 Vibration    14          0.797              1.391              0.838
 Vibration    15          0.856              1.248              0.655
 Vibration    16          0.886              1.181              0.584
 Vibration    17          0.899              1.154              0.558
 Vibration    18          0.928              1.093              0.501
 Vibration    19          0.976              0.997              0.422

 Optimization completed.
    -- Stationary point found.
 Normal termination of Gaussian 16 at Thu Dec 10 09:19:34 2020.

 ----------------------------------------------------------------------
 # B3LYP/6-311++G(d,p) empiricaldispersion=gd3bj scf=xqc pop=npa geom=c
 heck
 ----------------------------------------------------------------------

 --------------------------------------
 CID_11851258_JID_4022_Energie_neutraal
 --------------------------------------
 Structure from the checkpoint file:  "JID_4022.chk"
 Charge =  0 Multiplicity = 1

 SCF Done:  E(RB3LYP) =  -724.190941050     A.U. after   15 cycles
 Normal termination of Gaussian 16 at Thu Dec 10 09:21:26 2020.

 ----------------------------------------------------------------------
 # B3LYP/6-311++G(d,p) empiricaldispersion=gd3bj scf=xqc pop=npa geom=c
 heck
 ----------------------------------------------------------------------

 ------------------------------------
 CID_11851258_JID_4022_Energie_kation
 ------------------------------------
 Structure from the checkpoint file:  "JID_4022.chk"
 Charge =  1 Multiplicity = 2

 SCF Done:  E(UB3LYP) =  -723.877847354     A.U. after   22 cycles
 Normal termination of Gaussian 16 at Thu Dec 10 09:25:11 2020.
 Gaussian 16:  ES64L-G16RevA.03 25-Dec-2016

 ----------------------------------------------------------------------
 # B3LYP/6-311++G(d,p) empiricaldispersion=gd3bj scf=xqc pop=npa geom=c
 heck
 ----------------------------------------------------------------------

 -----------------------------------
 CID_11851258_JID_4022_Energie_anion
 -----------------------------------
 Structure from the checkpoint file:  "JID_4022.chk"
 Charge = -1 Multiplicity = 2

                         Standard orientation:
 ---------------------------------------------------------------------
 Center     Atomic      Atomic             Coordinates (Angstroms)
 Number     Number       Type             X           Y           Z
 ---------------------------------------------------------------------
      1          6           0       -2.177588   -1.669912   -0.147556
      2          6           0       -0.831886   -1.820184   -0.459414
      3          6           0        0.053941   -0.737523   -0.503483
      4          6           0       -0.468237    0.541338   -0.216885
      5          6           0       -1.825463    0.701196    0.097476
      6          6           0       -2.680414   -0.397081    0.133934
      7          8           0       -4.007898   -0.292185    0.435176
      8          6           0        0.407876    1.738831   -0.235492
      9          8           0        1.601897    1.750233   -0.469853
     10          8           0       -0.259671    2.891162    0.039794
     11          6           0        1.497090   -0.994590   -0.861350
     12          6           0        2.522913   -0.801067    0.244514
     13          8           0        3.718478   -0.837252    0.069781
     14          8           0        1.967190   -0.640728    1.469601
     15          1           0       -2.848504   -2.522054   -0.117818
     16          1           0       -0.451337   -2.814565   -0.675829
     17          1           0       -2.203475    1.694580    0.315214
     18          1           0       -4.218864    0.638002    0.610883
     19          1           0        0.415259    3.593329   -0.000383
     20          1           0        1.604845   -2.033530   -1.195849
     21          1           0        1.834100   -0.361170   -1.684538
     22          1           0        2.718624   -0.530487    2.081860
 ---------------------------------------------------------------------

 SCF Done:  E(UB3LYP) =  -724.200530440     A.U. after   28 cycles

 The electronic state is 2-A.
 Alpha  occ. eigenvalues --  -19.04549 -19.02238 -19.00682 -18.98667 -18.92883
 Alpha  occ. eigenvalues --  -10.17836 -10.11054 -10.08057 -10.04906 -10.02366
 Alpha  occ. eigenvalues --  -10.02040 -10.01125 -10.00773 -10.00434  -0.98474
 Alpha  occ. eigenvalues --   -0.94287  -0.93079  -0.89503  -0.84680  -0.70558
 Alpha  occ. eigenvalues --   -0.64158  -0.60719  -0.56881  -0.50486  -0.48913
 Alpha  occ. eigenvalues --   -0.46989  -0.43684  -0.38970  -0.36795  -0.35817
 Alpha  occ. eigenvalues --   -0.35204  -0.34143  -0.31845  -0.31323  -0.30193
 Alpha  occ. eigenvalues --   -0.28991  -0.27922  -0.27093  -0.26894  -0.26364
 Alpha  occ. eigenvalues --   -0.24379  -0.23799  -0.21716  -0.20235  -0.19722
 Alpha  occ. eigenvalues --   -0.19109  -0.16822  -0.15741  -0.11416  -0.11088
 Alpha  occ. eigenvalues --   -0.08192   0.05478
 Alpha virt. eigenvalues --    0.08896   0.09352   0.10166   0.10536   0.11684
 Alpha virt. eigenvalues --    0.12578   0.13373   0.14197   0.14790   0.15533
 Alpha virt. eigenvalues --    0.16444   0.16947   0.18012   0.18452   0.19023

  Beta  occ. eigenvalues --  -19.04550 -19.02253 -19.00613 -18.98663 -18.92479
  Beta  occ. eigenvalues --  -10.17816 -10.10714 -10.08150 -10.04919 -10.02230
  Beta  occ. eigenvalues --  -10.02068 -10.00904 -10.00517 -10.00058  -0.98469
  Beta  occ. eigenvalues --   -0.93922  -0.93109  -0.89498  -0.84087  -0.70162
  Beta  occ. eigenvalues --   -0.63952  -0.60034  -0.56660  -0.49747  -0.48820
  Beta  occ. eigenvalues --   -0.46835  -0.43374  -0.38823  -0.36704  -0.35722
  Beta  occ. eigenvalues --   -0.35078  -0.33815  -0.31654  -0.31039  -0.29853
  Beta  occ. eigenvalues --   -0.27918  -0.27655  -0.26835  -0.26713  -0.26228
  Beta  occ. eigenvalues --   -0.24175  -0.23607  -0.21511  -0.20105  -0.19613
  Beta  occ. eigenvalues --   -0.18370  -0.15610  -0.15221  -0.11023  -0.09199
  Beta  occ. eigenvalues --   -0.06946
  Beta virt. eigenvalues --    0.08847   0.09317   0.10135   0.10510   0.11671
  Beta virt. eigenvalues --    0.12057   0.12604   0.13443   0.14260   0.14886
  Beta virt. eigenvalues --    0.15540   0.16438   0.16991   0.18112   0.18444

 Mulliken charges and spin densities:
               1          2
     1  C   -0.086171   0.293860
     2  C   -0.618903  -0.037405
     3  C    0.695469   0.154527
     4  C    0.875259   0.102853
     5  C   -0.461174   0.252764
     6  C   -0.835280  -0.067796
     7  O   -0.266839   0.000388
     8  C   -0.094982   0.218761
     9  O   -0.400531   0.136135
    10  O   -0.237336   0.017314
    11  C   -0.435608  -0.041354
    12  C   -0.194176   0.006755
    13  O   -0.302125   0.001533
    14  O   -0.153119  -0.003770
    15  H    0.132972  -0.026115
    16  H    0.071928   0.003381
    17  H    0.135008  -0.015936
    18  H    0.241761  -0.000453
    19  H    0.248026  -0.000555
    20  H    0.176918  -0.000802
    21  H    0.243125   0.004309
    22  H    0.265779   0.001604
 Sum of Mulliken charges =  -1.00000   1.00000

 Dipole moment (field-independent basis, Debye):
    X=             -0.8083    Y=              0.2808    Z=              1.5792  Tot=              1.7961
 Quadrupole moment (field-independent basis, Debye-Ang):
   XX=           -120.0937   YY=            -90.4090   ZZ=            -85.3153
   XY=             -7.9721   XZ=              4.1452   YZ=              2.6151

 Summary of Natural Population Analysis:

                                       Natural Population
                Natural  -----------------------------------------------
    Atom  No    Charge         Core      Valence    Rydberg      Total
 -----------------------------------------------------------------------
      C    1   -0.05735      0.99953     2.04804    0.00979     3.05735
      C    2   -0.10981      0.99954     2.10156    0.00871     3.10981
      C    3    0.00979      0.99949     1.98089    0.00984     2.99021
      C    4   -0.03018      0.99943     2.02024    0.01052     3.03018
      C    5   -0.07668      0.99951     2.06834    0.00883     3.07668
      C    6    0.13149      0.99938     1.85696    0.01217     2.86851
      O    7   -0.35314      0.99988     3.34685    0.00641     4.35314
      C    8    0.43733      0.99966     1.53775    0.02526     2.56267
      O    9   -0.30030      0.99987     3.29352    0.00691     4.30030
      O   10   -0.35822      0.99988     3.35106    0.00728     4.35822
      C   11   -0.24318      0.99954     2.23480    0.00883     3.24318
      C   12    0.42493      0.99973     1.54963    0.02571     2.57507
      O   13   -0.32441      0.99986     3.31724    0.00732     4.32441
      O   14   -0.33718      0.99987     3.33121    0.00609     4.33718
      H   15    0.08947      0.00000     0.40885    0.00168     0.41053
      H   16    0.08636      0.00000     0.41198    0.00166     0.41364
      H   17    0.09649      0.00000     0.40222    0.00129     0.40351
      H   18    0.22745      0.00000     0.27006    0.00249     0.27255
      H   19    0.22725      0.00000     0.26765    0.00510     0.27275
      H   20    0.10419      0.00000     0.39452    0.00129     0.39581
      H   21    0.12563      0.00000     0.37330    0.00108     0.37437
      H   22    0.23007      0.00000     0.26523    0.00470     0.26993
 =======================================================================
   * Total *    0.00000     13.99515    36.83190    0.17295    51.00000

 Normal termination of Gaussian 16 at Thu Dec 10 09:29:54 2020.
