 Gaussian 16, Revision A.03,

 -----------------------------------------------------------
 # opt freq B3LYP/6-31G(d) empiricaldispersion=gd3bj scf=xqc
 -----------------------------------------------------------

 ------------------------------
 CID_22925040_JID_5250_neutraal
 ------------------------------
 Symbolic Z-matrix:
 Charge =  0 Multiplicity = 1

 SCF Done:  E(RB3LYP) =  -707.474688652     A.U. after   15 cycles
 SCF Done:  E(RB3LYP) =  -707.479043520     A.U. after   14 cycles
 SCF Done:  E(RB3LYP) =  -707.478976132     A.U. after   13 cycles
 SCF Done:  E(RB3LYP) =  -707.479643613     A.U. after   13 cycles
 SCF Done:  E(RB3LYP) =  -707.479903395     A.U. after   12 cycles
 SCF Done:  E(RB3LYP) =  -707.479971912     A.U. after   11 cycles
 SCF Done:  E(RB3LYP) =  -707.479960760     A.U. after   11 cycles
 SCF Done:  E(RB3LYP) =  -707.479976196     A.U. after   10 cycles
 SCF Done:  E(RB3LYP) =  -707.479987968     A.U. after   10 cycles
 SCF Done:  E(RB3LYP) =  -707.479988406     A.U. after    8 cycles
 SCF Done:  E(RB3LYP) =  -707.479988934     A.U. after    9 cycles
 SCF Done:  E(RB3LYP) =  -707.479989011     A.U. after    8 cycles
 SCF Done:  E(RB3LYP) =  -707.479989028     A.U. after    8 cycles
 SCF Done:  E(RB3LYP) =  -707.479989027     A.U. after    8 cycles
 SCF Done:  E(RB3LYP) =  -707.479989008     A.U. after    7 cycles
 SCF Done:  E(RB3LYP) =  -707.479989001     A.U. after    7 cycles
 Optimization completed.
    -- Stationary point found.
 Normal termination of Gaussian 16 at Thu Dec 10 14:55:11 2020.

 --------------------------------------------------------------------
 #N Geom=AllCheck Guess=TCheck SCRF=Check GenChk RB3LYP/6-31G(d) Freq
 --------------------------------------------------------------------

 Structure from the checkpoint file:  "JID_5250.chk"
 ------------------------------
 CID_22925040_JID_5250_neutraal
 ------------------------------
 Charge =  0 Multiplicity = 1

 SCF Done:  E(RB3LYP) =  -707.479989001     A.U. after    1 cycles

  Exact polarizability: 126.506 -17.712 127.663 -12.276  -8.679 109.414
 Approx polarizability: 165.734 -28.133 204.417 -30.265 -34.533 199.027

                      1                      2                      3
                      A                      A                      A
 Frequencies --     14.5389                25.3581                57.4797
 Red. masses --      4.5953                 3.7220                 3.9230
 Frc consts  --      0.0006                 0.0014                 0.0076
 IR Inten    --      0.0094                 0.9428                 1.2970

                      4                      5                      6
                      A                      A                      A
 Frequencies --     68.6503               106.7871               121.7431
 Red. masses --      6.2541                 6.6626                 3.2809
 Frc consts  --      0.0174                 0.0448                 0.0287
 IR Inten    --      3.6788                 1.4967                 0.2400

                      7                      8                      9
                      A                      A                      A
 Frequencies --    166.9929               204.3672               223.5799
 Red. masses --      5.4509                 4.6721                 4.1968
 Frc consts  --      0.0896                 0.1150                 0.1236
 IR Inten    --      1.7128                 3.7962                 6.0455

                     10                     11                     12
                      A                      A                      A
 Frequencies --    234.8455               249.3181               311.9922
 Red. masses --      1.1239                 1.0592                 2.6996
 Frc consts  --      0.0365                 0.0388                 0.1548
 IR Inten    --      0.3167                 0.0941                 1.8876

                     13                     14                     15
                      A                      A                      A
 Frequencies --    359.4687               391.8854               415.5784
 Red. masses --      5.9397                 3.2707                 3.4701
 Frc consts  --      0.4522                 0.2959                 0.3531
 IR Inten    --      0.4388                 4.1576                 2.5669

                     16                     17                     18
                      A                      A                      A
 Frequencies --    422.1062               442.3850               464.6128
 Red. masses --      3.2240                 4.0037                 3.2228
 Frc consts  --      0.3384                 0.4617                 0.4099
 IR Inten    --      2.4824                 5.2986                 6.8131

                     19                     20                     21
                      A                      A                      A
 Frequencies --    485.3269               555.8621               619.3844
 Red. masses --      5.3199                 3.7204                 3.1572
 Frc consts  --      0.7383                 0.6773                 0.7136
 IR Inten    --      0.4678                24.7977                24.1732

                     22                     23                     24
                      A                      A                      A
 Frequencies --    633.7647               684.7271               739.0965
 Red. masses --      6.9482                 3.9306                 3.9649
 Frc consts  --      1.6443                 1.0858                 1.2761
 IR Inten    --      4.0813                 7.2846                 2.6867

                     25                     26                     27
                      A                      A                      A
 Frequencies --    760.9856               775.2788               798.2043
 Red. masses --      1.8969                 3.0080                 3.9266
 Frc consts  --      0.6472                 1.0652                 1.4740
 IR Inten    --     17.4917                17.2014                 2.9128

                     28                     29                     30
                      A                      A                      A
 Frequencies --    831.7710               899.5460               921.6451
 Red. masses --      3.9644                 2.7026                 1.2954
 Frc consts  --      1.6160                 1.2885                 0.6483
 IR Inten    --     14.0113                 3.4749                 3.6395

                     31                     32                     33
                      A                      A                      A
 Frequencies --    949.9251               957.2301               959.2827
 Red. masses --      1.2106                 2.9318                 1.3958
 Frc consts  --      0.6436                 1.5828                 0.7568
 IR Inten    --      1.3930                 5.9090                 0.2965

                     34                     35                     36
                      A                      A                      A
 Frequencies --    982.0365               990.5523              1011.3836
 Red. masses --      1.5686                 2.7285                 3.2763
 Frc consts  --      0.8913                 1.5774                 1.9745
 IR Inten    --      2.7309                37.9893                 3.7203

                     37                     38                     39
                      A                      A                      A
 Frequencies --   1015.0657              1066.3913              1094.8030
 Red. masses --      1.6458                 3.7739                 2.2780
 Frc consts  --      0.9991                 2.5285                 1.6087
 IR Inten    --      3.5122                23.3594                45.2855

                     40                     41                     42
                      A                      A                      A
 Frequencies --   1138.7467              1172.9475              1173.9221
 Red. masses --      1.6150                 2.1304                 1.4930
 Frc consts  --      1.2339                 1.7269                 1.2122
 IR Inten    --     18.0431                10.0891                 9.4405

                     43                     44                     45
                      A                      A                      A
 Frequencies --   1180.2901              1197.5994              1219.7141
 Red. masses --      1.9407                 1.1702                 1.9433
 Frc consts  --      1.5929                 0.9889                 1.7034
 IR Inten    --    161.6115                 5.4898                 3.3082

                     46                     47                     48
                      A                      A                      A
 Frequencies --   1256.9152              1296.5909              1316.2126
 Red. masses --      3.8056                 1.5969                 2.9993
 Frc consts  --      3.5423                 1.5817                 3.0614
 IR Inten    --    223.1143                29.4523               130.8325

                     49                     50                     51
                      A                      A                      A
 Frequencies --   1327.7477              1350.3210              1391.9984
 Red. masses --      3.3677                 1.7339                 1.3111
 Frc consts  --      3.4980                 1.8627                 1.4968
 IR Inten    --     25.6685                24.4048                 3.2839

                     52                     53                     54
                      A                      A                      A
 Frequencies --   1426.6188              1428.7830              1443.0627
 Red. masses --      1.3357                 1.3421                 1.2465
 Frc consts  --      1.6017                 1.6143                 1.5294
 IR Inten    --     20.4701                15.7976                17.8271

                     55                     56                     57
                      A                      A                      A
 Frequencies --   1476.8349              1482.8956              1510.5439
 Red. masses --      1.8566                 1.1544                 1.0481
 Frc consts  --      2.3859                 1.4957                 1.4090
 IR Inten    --     23.7092                 7.2672                 0.3119

                     58                     59                     60
                      A                      A                      A
 Frequencies --   1519.3914              1521.8427              1528.5694
 Red. masses --      2.2327                 1.0499                 1.0505
 Frc consts  --      3.0368                 1.4327                 1.4462
 IR Inten    --      0.1753                14.5429                 1.6547

                     61                     62                     63
                      A                      A                      A
 Frequencies --   1548.0929              1633.6267              1639.3632
 Red. masses --      1.0550                 5.1005                 5.3476
 Frc consts  --      1.4897                 8.0199                 8.4676
 IR Inten    --      9.7081                25.2975                 1.7560

                     64                     65                     66
                      A                      A                      A
 Frequencies --   1799.2701              1821.6471              3062.6141
 Red. masses --     11.9082                11.3775                 1.0378
 Frc consts  --     22.7138                22.2447                 5.7350
 IR Inten    --    322.4317                36.0849                19.4815

                     67                     68                     69
                      A                      A                      A
 Frequencies --   3066.6884              3091.6571              3093.4558
 Red. masses --      1.0387                 1.0591                 1.0859
 Frc consts  --      5.7555                 5.9645                 6.1222
 IR Inten    --     10.4168                 1.6483                19.3071

                     70                     71                     72
                      A                      A                      A
 Frequencies --   3126.8119              3130.6762              3145.9999
 Red. masses --      1.1017                 1.1021                 1.1052
 Frc consts  --      6.3461                 6.3642                 6.4446
 IR Inten    --     14.9058                34.2221                 2.3514

                     73                     74                     75
                      A                      A                      A
 Frequencies --   3164.4371              3171.6279              3173.6953
 Red. masses --      1.1014                 1.1004                 1.0895
 Frc consts  --      6.4980                 6.5215                 6.4654
 IR Inten    --      4.5885                15.7048                23.1385

                     76                     77                     78
                      A                      A                      A
 Frequencies --   3201.0187              3217.8276              3237.6475
 Red. masses --      1.0888                 1.0960                 1.0934
 Frc consts  --      6.5733                 6.6864                 6.7528
 IR Inten    --      8.4490                17.8948                 1.2386

 - Thermochemistry -
 -------------------
 Temperature   298.150 Kelvin.  Pressure   1.00000 Atm.
 Atom     1 has atomic number  6 and mass  12.00000

 Molecular mass:   207.08954 amu.
 Principal axes and moments of inertia in atomic units:
                           1         2         3
     Eigenvalues --  1992.578864068.003634840.99983
           X            0.99993   0.00097   0.01216
           Y           -0.00139   0.99939   0.03478
           Z           -0.01212  -0.03479   0.99932
 This molecule is an asymmetric top.
 Rotational symmetry number  1.
 Warning -- assumption of classical behavior for rotation
           may cause significant error
 Rotational temperatures (Kelvin)      0.04347     0.02129     0.01789
 Rotational constants (GHZ):           0.90573     0.44364     0.37280
 Zero-point vibrational energy     596348.3 (Joules/Mol)
                                  142.53068 (Kcal/Mol)
 Warning -- explicit consideration of  21 degrees of freedom as
           vibrations may cause significant error
 Vibrational temperatures:     20.92    36.48    82.70    98.77   153.64
          (Kelvin)            175.16   240.27   294.04   321.68   337.89
                              358.71   448.89   517.20   563.84   597.92
                              607.32   636.49   668.47   698.28   799.76
                              891.16   911.85   985.17  1063.40  1094.89
                             1115.45  1148.44  1196.73  1294.25  1326.04
                             1366.73  1377.24  1380.19  1412.93  1425.18
                             1455.16  1460.45  1534.30  1575.18  1638.40
                             1687.61  1689.01  1698.17  1723.08  1754.90
                             1808.42  1865.51  1893.74  1910.33  1942.81
                             2002.78  2052.59  2055.70  2076.25  2124.84
                             2133.56  2173.34  2186.07  2189.59  2199.27
                             2227.36  2350.42  2358.68  2588.75  2620.94
                             4406.42  4412.28  4448.21  4450.79  4498.78
                             4504.34  4526.39  4552.92  4563.27  4566.24
                             4605.55  4629.74  4658.25

 Zero-point correction=                           0.227137 (Hartree/Particle)
 Thermal correction to Energy=                    0.241590
 Thermal correction to Enthalpy=                  0.242534
 Thermal correction to Gibbs Free Energy=         0.183350
 Sum of electronic and zero-point Energies=           -707.252852
 Sum of electronic and thermal Energies=              -707.238399
 Sum of electronic and thermal Enthalpies=            -707.237455
 Sum of electronic and thermal Free Energies=         -707.296639

                     E (Thermal)             CV                S
                      KCal/Mol        Cal/Mol-Kelvin    Cal/Mol-Kelvin
 Total                  151.600             53.156            124.563
 Electronic               0.000              0.000              0.000
 Translational            0.889              2.981             41.888
 Rotational               0.889              2.981             32.040
 Vibrational            149.823             47.195             50.635
 Vibration     1          0.593              1.986              7.268
 Vibration     2          0.593              1.985              6.163
 Vibration     3          0.596              1.975              4.542
 Vibration     4          0.598              1.969              4.192
 Vibration     5          0.606              1.944              3.326
 Vibration     6          0.609              1.931              3.073
 Vibration     7          0.624              1.883              2.469
 Vibration     8          0.640              1.834              2.093
 Vibration     9          0.649              1.805              1.930
 Vibration    10          0.655              1.788              1.842
 Vibration    11          0.662              1.764              1.735
 Vibration    12          0.700              1.651              1.352
 Vibration    13          0.734              1.556              1.124
 Vibration    14          0.759              1.488              0.993
 Vibration    15          0.779              1.436              0.907
 Vibration    16          0.784              1.422              0.885
 Vibration    17          0.802              1.378              0.819
 Vibration    18          0.822              1.329              0.753
 Vibration    19          0.841              1.283              0.696
 Vibration    20          0.911              1.127              0.532
 Vibration    21          0.979              0.991              0.417

 Optimization completed.
    -- Stationary point found.
 Normal termination of Gaussian 16 at Thu Dec 10 15:04:34 2020.

 ----------------------------------------------------------------------
 # B3LYP/6-311++G(d,p) empiricaldispersion=gd3bj scf=xqc pop=npa geom=c
 heck
 ----------------------------------------------------------------------

 --------------------------------------
 CID_22925040_JID_5250_Energie_neutraal
 --------------------------------------
 Structure from the checkpoint file:  "JID_5250.chk"
 Charge =  0 Multiplicity = 1

 SCF Done:  E(RB3LYP) =  -707.678521371     A.U. after   15 cycles
 Normal termination of Gaussian 16 at Thu Dec 10 15:08:52 2020.

 ----------------------------------------------------------------------
 # B3LYP/6-311++G(d,p) empiricaldispersion=gd3bj scf=xqc pop=npa geom=c
 heck
 ----------------------------------------------------------------------

 ------------------------------------
 CID_22925040_JID_5250_Energie_kation
 ------------------------------------
 Structure from the checkpoint file:  "JID_5250.chk"
 Charge =  1 Multiplicity = 2

 SCF Done:  E(UB3LYP) =  -707.347431415     A.U. after   29 cycles
 Normal termination of Gaussian 16 at Thu Dec 10 15:20:20 2020.
 Gaussian 16:  ES64L-G16RevA.03 25-Dec-2016

 ----------------------------------------------------------------------
 # B3LYP/6-311++G(d,p) empiricaldispersion=gd3bj scf=xqc pop=npa geom=c
 heck
 ----------------------------------------------------------------------

 -----------------------------------
 CID_22925040_JID_5250_Energie_anion
 -----------------------------------
 Structure from the checkpoint file:  "JID_5250.chk"
 Charge = -1 Multiplicity = 2

                         Standard orientation:
 ---------------------------------------------------------------------
 Center     Atomic      Atomic             Coordinates (Angstroms)
 Number     Number       Type             X           Y           Z
 ---------------------------------------------------------------------
      1          6           0       -1.657396   -2.012525   -0.563438
      2          6           0       -2.445804   -0.765869   -0.950864
      3          6           0       -3.875648   -0.736120   -0.423455
      4          8           0       -1.711161    0.447538   -0.587211
      5          6           0       -1.431866    0.709624    0.699237
      6          8           0       -1.814655    0.067351    1.655554
      7          6           0       -0.521814    1.923450    0.783038
      8          6           0        0.717621    1.792564   -0.114175
      9          8           0        1.015706    2.675634   -0.888736
     10          6           0        1.546399    0.535675    0.009888
     11          6           0        1.434143   -0.316273    1.116457
     12          6           0        2.239342   -1.454099    1.169832
     13          6           0        3.117024   -1.701928    0.119950
     14          6           0        3.154104   -0.790344   -0.941590
     15          7           0        2.398212    0.303954   -1.003370
     16          1           0       -1.639009   -2.146416    0.519859
     17          1           0       -0.628439   -1.942300   -0.930104
     18          1           0       -2.125686   -2.892218   -1.018396
     19          1           0       -2.464280   -0.680050   -2.040912
     20          1           0       -3.897362   -0.842360    0.662376
     21          1           0       -4.365033    0.203448   -0.699441
     22          1           0       -4.442453   -1.559728   -0.871830
     23          1           0       -1.055650    2.813894    0.441357
     24          1           0       -0.238738    2.062903    1.830477
     25          1           0        0.730471   -0.112489    1.914591
     26          1           0        2.175800   -2.131256    2.016461
     27          1           0        3.760187   -2.576480    0.114750
     28          1           0        3.826956   -0.953749   -1.781723
 ---------------------------------------------------------------------

 SCF Done:  E(UB3LYP) =  -707.697162113     A.U. after   29 cycles

 The electronic state is 2-A.
 Alpha  occ. eigenvalues --  -19.04622 -18.98976 -18.91799 -14.13506 -10.17910
 Alpha  occ. eigenvalues --  -10.13611 -10.07236 -10.06573 -10.05982 -10.05281
 Alpha  occ. eigenvalues --  -10.04423 -10.03410 -10.03242 -10.02539 -10.01754
 Alpha  occ. eigenvalues --   -0.98641  -0.90248  -0.86268  -0.77962  -0.69911
 Alpha  occ. eigenvalues --   -0.64931  -0.63336  -0.60324  -0.59897  -0.53573
 Alpha  occ. eigenvalues --   -0.49039  -0.47510  -0.42859  -0.40620  -0.39111
 Alpha  occ. eigenvalues --   -0.37433  -0.36062  -0.35073  -0.33274  -0.32909
 Alpha  occ. eigenvalues --   -0.32096  -0.31415  -0.30357  -0.29872  -0.28502
 Alpha  occ. eigenvalues --   -0.26569  -0.26093  -0.25947  -0.25437  -0.24598
 Alpha  occ. eigenvalues --   -0.24153  -0.22992  -0.21689  -0.20464  -0.19200
 Alpha  occ. eigenvalues --   -0.15817  -0.14028  -0.11564  -0.09660  -0.07850
 Alpha  occ. eigenvalues --    0.04459
 Alpha virt. eigenvalues --    0.07002   0.08913   0.09510   0.10071   0.10613
 Alpha virt. eigenvalues --    0.11225   0.11490   0.11774   0.12203   0.12671
 Alpha virt. eigenvalues --    0.13326   0.13868   0.14760   0.14961   0.15828

  Beta  occ. eigenvalues --  -19.04587 -18.98967 -18.91241 -14.13141 -10.17855
  Beta  occ. eigenvalues --  -10.13612 -10.07233 -10.06288 -10.05980 -10.05386
  Beta  occ. eigenvalues --  -10.04452 -10.03208 -10.03167 -10.02512 -10.01444
  Beta  occ. eigenvalues --   -0.98582  -0.90211  -0.85275  -0.77399  -0.69884
  Beta  occ. eigenvalues --   -0.64464  -0.62973  -0.60106  -0.59808  -0.53491
  Beta  occ. eigenvalues --   -0.48185  -0.47437  -0.42706  -0.40217  -0.39068
  Beta  occ. eigenvalues --   -0.37335  -0.35945  -0.34878  -0.33106  -0.32728
  Beta  occ. eigenvalues --   -0.31999  -0.31302  -0.30110  -0.29735  -0.28348
  Beta  occ. eigenvalues --   -0.26390  -0.25952  -0.25751  -0.24983  -0.24052
  Beta  occ. eigenvalues --   -0.23421  -0.22930  -0.21470  -0.19170  -0.18118
  Beta  occ. eigenvalues --   -0.15631  -0.12609  -0.09932  -0.09199  -0.07325
  Beta virt. eigenvalues --    0.06962   0.08872   0.09437   0.10030   0.10553
  Beta virt. eigenvalues --    0.10809   0.11222   0.11661   0.12073   0.12304
  Beta virt. eigenvalues --    0.13021   0.13295   0.13923   0.14729   0.14990

 Mulliken charges and spin densities:
               1          2
     1  C   -0.519891  -0.001504
     2  C    0.123439   0.006780
     3  C   -0.479540  -0.014710
     4  O    0.122299   0.008318
     5  C   -0.165334   0.051741
     6  O   -0.241229   0.008114
     7  C   -0.070273  -0.065039
     8  C   -0.602022   0.177050
     9  O   -0.344521   0.199430
    10  C   -0.382713   0.124612
    11  C    0.425584   0.035209
    12  C   -0.587663   0.064373
    13  C   -0.215490   0.258292
    14  C   -0.016011  -0.071165
    15  N    0.009784   0.178313
    16  H    0.166372   0.004226
    17  H    0.191757  -0.001254
    18  H    0.123217   0.000506
    19  H    0.161782   0.000760
    20  H    0.181568   0.003825
    21  H    0.132254   0.003760
    22  H    0.116229   0.007586
    23  H    0.185620   0.002584
    24  H    0.137006   0.034581
    25  H    0.179070   0.002966
    26  H    0.120761  -0.005069
    27  H    0.107920  -0.018802
    28  H    0.140023   0.004518
 Sum of Mulliken charges =  -1.00000   1.00000

 Dipole moment (field-independent basis, Debye):
    X=             -6.3898    Y=             -4.7960    Z=              0.9474  Tot=              8.0454
 Quadrupole moment (field-independent basis, Debye-Ang):
   XX=           -115.8698   YY=           -111.7035   ZZ=           -103.9521
   XY=             -4.8617   XZ=              9.3715   YZ=              9.3504

 Summary of Natural Population Analysis:

                                       Natural Population
                Natural  -----------------------------------------------
    Atom  No    Charge         Core      Valence    Rydberg      Total
 -----------------------------------------------------------------------
      C    1   -0.30245      0.99964     2.29804    0.00477     3.30245
      C    2    0.06500      0.99957     1.92445    0.01098     2.93500
      C    3   -0.30040      0.99964     2.29633    0.00442     3.30040
      O    4   -0.28077      0.99985     3.27091    0.01000     4.28077
      C    5    0.42099      0.99970     1.55319    0.02612     2.57901
      O    6   -0.32425      0.99987     3.31850    0.00588     4.32425
      C    7   -0.27967      0.99956     2.27013    0.00999     3.27967
      C    8    0.30132      0.99965     1.67724    0.02179     2.69868
      O    9   -0.22668      0.99987     3.21957    0.00724     4.22668
      C   10    0.08382      0.99949     1.90008    0.01660     2.91618
      C   11   -0.11478      0.99953     2.10751    0.00774     3.11478
      C   12   -0.08865      0.99957     2.07935    0.00973     3.08865
      C   13   -0.07751      0.99957     2.06818    0.00976     3.07751
      C   14   -0.00451      0.99960     1.98962    0.01529     3.00451
      N   15   -0.16448      0.99968     2.65450    0.01030     3.66448
      H   16    0.11044      0.00000     0.38850    0.00106     0.38956
      H   17    0.11475      0.00000     0.38437    0.00088     0.38525
      H   18    0.09314      0.00000     0.40603    0.00083     0.40686
      H   19    0.08849      0.00000     0.41032    0.00119     0.41151
      H   20    0.11101      0.00000     0.38792    0.00108     0.38899
      H   21    0.09985      0.00000     0.39922    0.00093     0.40015
      H   22    0.09504      0.00000     0.40412    0.00084     0.40496
      H   23    0.11627      0.00000     0.38229    0.00144     0.38373
      H   24    0.10981      0.00000     0.38859    0.00160     0.39019
      H   25    0.10110      0.00000     0.39735    0.00155     0.39890
      H   26    0.08896      0.00000     0.40989    0.00115     0.41104
      H   27    0.08697      0.00000     0.41178    0.00125     0.41303
      H   28    0.07720      0.00000     0.42131    0.00149     0.42280
 =======================================================================
   * Total *    0.00000     14.99480    39.81929    0.18591    55.00000

 Normal termination of Gaussian 16 at Thu Dec 10 15:31:53 2020.
