 Gaussian 16, Revision A.03,

 -----------------------------------------------------------
 # opt freq B3LYP/6-31G(d) empiricaldispersion=gd3bj scf=xqc
 -----------------------------------------------------------

 -------------------------------
 CID_117233803_JID_7467_neutraal
 -------------------------------
 Symbolic Z-matrix:
 Charge =  0 Multiplicity = 1

 SCF Done:  E(RB3LYP) =  -747.519028529     A.U. after   14 cycles
 SCF Done:  E(RB3LYP) =  -747.525707151     A.U. after   12 cycles
 SCF Done:  E(RB3LYP) =  -747.526830162     A.U. after   12 cycles
 SCF Done:  E(RB3LYP) =  -747.527404831     A.U. after   12 cycles
 SCF Done:  E(RB3LYP) =  -747.526221431     A.U. after   15 cycles
 SCF Done:  E(RB3LYP) =  -747.528236508     A.U. after   12 cycles
 SCF Done:  E(RB3LYP) =  -747.528531164     A.U. after   12 cycles
 SCF Done:  E(RB3LYP) =  -747.529160664     A.U. after   11 cycles
 SCF Done:  E(RB3LYP) =  -747.529571638     A.U. after   12 cycles
 SCF Done:  E(RB3LYP) =  -747.529972200     A.U. after   11 cycles
 SCF Done:  E(RB3LYP) =  -747.532056819     A.U. after    9 cycles
 SCF Done:  E(RB3LYP) =  -747.532061616     A.U. after    9 cycles
 SCF Done:  E(RB3LYP) =  -747.532061764     A.U. after   10 cycles
 SCF Done:  E(RB3LYP) =  -747.532065092     A.U. after    9 cycles
 SCF Done:  E(RB3LYP) =  -747.532065116     A.U. after    8 cycles
 SCF Done:  E(RB3LYP) =  -747.532065303     A.U. after    7 cycles
 Optimization completed.
    -- Stationary point found.
 Normal termination of Gaussian 16 at Sun Dec 13 13:20:36 2020.

 --------------------------------------------------------------------
 #N Geom=AllCheck Guess=TCheck SCRF=Check GenChk RB3LYP/6-31G(d) Freq
 --------------------------------------------------------------------

 Structure from the checkpoint file:  "JID_7467.chk"
 -------------------------------
 CID_117233803_JID_7467_neutraal
 -------------------------------
 Charge =  0 Multiplicity = 1

 SCF Done:  E(RB3LYP) =  -747.532065303     A.U. after    1 cycles

  Exact polarizability: 171.817  -1.402 159.649  -1.956   4.240 117.966
 Approx polarizability: 240.727  -2.473 230.791  -8.736  13.597 177.484

                      1                      2                      3
                      A                      A                      A
 Frequencies --     23.7216                52.0496                66.8124
 Red. masses --      3.4962                 3.3190                 4.4194
 Frc consts  --      0.0012                 0.0053                 0.0116
 IR Inten    --      0.1041                 0.2326                 0.5440

                      4                      5                      6
                      A                      A                      A
 Frequencies --     71.3463                90.0433               114.3288
 Red. masses --      3.2674                 3.3957                 2.6972
 Frc consts  --      0.0098                 0.0162                 0.0208
 IR Inten    --      0.5606                 0.1342                 0.4141

                      7                      8                      9
                      A                      A                      A
 Frequencies --    133.6146               180.2994               200.5732
 Red. masses --      2.2151                 2.6066                 2.1887
 Frc consts  --      0.0233                 0.0499                 0.0519
 IR Inten    --      0.1578                 0.3035                 1.4359

                     10                     11                     12
                      A                      A                      A
 Frequencies --    242.1912               262.7871               288.2383
 Red. masses --      2.4840                 1.2449                 3.0831
 Frc consts  --      0.0858                 0.0507                 0.1509
 IR Inten    --      0.6089                 0.8939                 1.3558

                     13                     14                     15
                      A                      A                      A
 Frequencies --    319.5091               330.4228               358.7388
 Red. masses --      3.8309                 3.0323                 2.2763
 Frc consts  --      0.2304                 0.1951                 0.1726
 IR Inten    --      0.6118                 0.9288                 7.9776

                     16                     17                     18
                      A                      A                      A
 Frequencies --    377.0729               428.9043               439.8689
 Red. masses --      3.4005                 3.3779                 3.5692
 Frc consts  --      0.2849                 0.3661                 0.4069
 IR Inten    --      3.0158                 1.3291                 8.3298

                     19                     20                     21
                      A                      A                      A
 Frequencies --    530.0176               568.4145               609.6435
 Red. masses --      2.9183                 3.6128                 2.5901
 Frc consts  --      0.4830                 0.6877                 0.5672
 IR Inten    --      2.3102                 1.9808                 1.4339

                     22                     23                     24
                      A                      A                      A
 Frequencies --    618.0202               645.4132               657.7364
 Red. masses --      3.6075                 3.4319                 3.5891
 Frc consts  --      0.8118                 0.8423                 0.9148
 IR Inten    --      0.7201                 4.2027                 9.6019

                     25                     26                     27
                      A                      A                      A
 Frequencies --    673.0759               725.6453               783.2982
 Red. masses --      5.0000                 3.2975                 3.2412
 Frc consts  --      1.3346                 1.0230                 1.1717
 IR Inten    --      4.8856                14.5426                 2.6030

                     28                     29                     30
                      A                      A                      A
 Frequencies --    786.0841               830.2934               842.5727
 Red. masses --      1.3359                 1.2731                 1.5926
 Frc consts  --      0.4864                 0.5171                 0.6661
 IR Inten    --      1.3516                 2.9162                28.1235

                     31                     32                     33
                      A                      A                      A
 Frequencies --    848.7393               852.0566               858.4042
 Red. masses --      2.6313                 2.0011                 1.7812
 Frc consts  --      1.1168                 0.8559                 0.7733
 IR Inten    --     12.3754                 7.3764                 6.0553

                     34                     35                     36
                      A                      A                      A
 Frequencies --    894.9838               904.9207               912.0137
 Red. masses --      3.1874                 2.3259                 2.1293
 Frc consts  --      1.5043                 1.1222                 1.0435
 IR Inten    --      1.4788                11.1995                 2.9962

                     37                     38                     39
                      A                      A                      A
 Frequencies --    932.4042               959.7965               964.6794
 Red. masses --      2.6098                 1.8375                 1.6856
 Frc consts  --      1.3368                 0.9973                 0.9242
 IR Inten    --      3.4993                 3.3354                11.5103

                     40                     41                     42
                      A                      A                      A
 Frequencies --    993.8213              1011.5706              1034.9884
 Red. masses --      2.0089                 2.5795                 1.7689
 Frc consts  --      1.1690                 1.5551                 1.1164
 IR Inten    --      6.3428                31.1324                 7.7335

                     43                     44                     45
                      A                      A                      A
 Frequencies --   1036.2294              1058.9640              1065.4775
 Red. masses --      3.1364                 2.6037                 2.4924
 Frc consts  --      1.9842                 1.7203                 1.6671
 IR Inten    --      6.2482                29.7452                12.5808

                     46                     47                     48
                      A                      A                      A
 Frequencies --   1077.7223              1100.8555              1104.7916
 Red. masses --      2.0055                 1.6225                 2.5249
 Frc consts  --      1.3724                 1.1585                 1.8158
 IR Inten    --     15.2147                 6.5284                17.9867

                     49                     50                     51
                      A                      A                      A
 Frequencies --   1137.9616              1155.7557              1170.3653
 Red. masses --      1.7439                 1.2786                 1.3167
 Frc consts  --      1.3305                 1.0063                 1.0626
 IR Inten    --     46.3470                11.5126                 1.2478

                     52                     53                     54
                      A                      A                      A
 Frequencies --   1182.0417              1196.3546              1202.1825
 Red. masses --      1.8620                 2.2052                 1.6061
 Frc consts  --      1.5329                 1.8596                 1.3677
 IR Inten    --      8.7511                25.5917                 5.6721

                     55                     56                     57
                      A                      A                      A
 Frequencies --   1222.8966              1226.0854              1240.1148
 Red. masses --      1.6118                 1.5179                 1.4823
 Frc consts  --      1.4202                 1.3444                 1.3431
 IR Inten    --     43.9277                11.6809                 6.5444

                     58                     59                     60
                      A                      A                      A
 Frequencies --   1246.0593              1276.4521              1281.1377
 Red. masses --      1.5142                 1.5147                 1.7897
 Frc consts  --      1.3852                 1.4541                 1.7307
 IR Inten    --      8.3648                 2.3347                27.0662

                     61                     62                     63
                      A                      A                      A
 Frequencies --   1288.3142              1289.8509              1318.7885
 Red. masses --      1.6211                 1.2634                 1.9815
 Frc consts  --      1.5852                 1.2385                 2.0305
 IR Inten    --     15.3600                 1.4043                11.6703

                     64                     65                     66
                      A                      A                      A
 Frequencies --   1328.6943              1334.3901              1339.9155
 Red. masses --      1.3444                 1.3501                 1.2656
 Frc consts  --      1.3983                 1.4164                 1.3388
 IR Inten    --      0.6767                 4.1866                 5.8204

                     67                     68                     69
                      A                      A                      A
 Frequencies --   1343.3582              1367.4857              1371.3116
 Red. masses --      1.2983                 1.4402                 1.5152
 Frc consts  --      1.3804                 1.5867                 1.6788
 IR Inten    --     10.8615                 5.8964                 3.4259

                     70                     71                     72
                      A                      A                      A
 Frequencies --   1373.7452              1396.1518              1409.9390
 Red. masses --      1.4880                 1.9245                 1.7849
 Frc consts  --      1.6545                 2.2102                 2.0906
 IR Inten    --      1.4763                88.5099                43.7594

                     73                     74                     75
                      A                      A                      A
 Frequencies --   1412.9030              1436.4930              1446.8277
 Red. masses --      2.2083                 4.6505                 1.7459
 Frc consts  --      2.5973                 5.6540                 2.1533
 IR Inten    --     54.3075                42.5619                 8.8121

                     76                     77                     78
                      A                      A                      A
 Frequencies --   1481.5681              1487.4309              1510.9303
 Red. masses --      1.1953                 2.9470                 1.0847
 Frc consts  --      1.5458                 3.8415                 1.4590
 IR Inten    --      1.8549                12.4256                 3.3780

                     79                     80                     81
                      A                      A                      A
 Frequencies --   1515.5124              1519.3180              1521.3311
 Red. masses --      1.0559                 1.0865                 1.1210
 Frc consts  --      1.4288                 1.4777                 1.5287
 IR Inten    --     12.8723                 6.1291                 2.5839

                     82                     83                     84
                      A                      A                      A
 Frequencies --   1524.4085              1528.0516              1532.9712
 Red. masses --      1.0852                 1.0780                 1.0570
 Frc consts  --      1.4858                 1.4830                 1.4635
 IR Inten    --      3.9962                 4.1724                 5.6441

                     85                     86                     87
                      A                      A                      A
 Frequencies --   1548.6941              1551.3995              1628.0238
 Red. masses --      1.1051                 1.1035                 5.3858
 Frc consts  --      1.5617                 1.5649                 8.4105
 IR Inten    --      5.6045                 7.2428               114.9365

                     88                     89                     90
                      A                      A                      A
 Frequencies --   2921.7622              2940.9535              2950.1214
 Red. masses --      1.0735                 1.0647                 1.0705
 Frc consts  --      5.3994                 5.4255                 5.4891
 IR Inten    --     67.0551                40.8057               175.6723

                     91                     92                     93
                      A                      A                      A
 Frequencies --   3052.2890              3066.0788              3070.9139
 Red. masses --      1.0689                 1.0603                 1.0639
 Frc consts  --      5.8670                 5.8728                 5.9112
 IR Inten    --     29.9363                13.6679                39.4105

                     94                     95                     96
                      A                      A                      A
 Frequencies --   3078.8477              3080.0160              3086.6793
 Red. masses --      1.0713                 1.0648                 1.0830
 Frc consts  --      5.9834                 5.9516                 6.0795
 IR Inten    --     26.5626                24.2134                28.3106

                     97                     98                     99
                      A                      A                      A
 Frequencies --   3097.4658              3098.1613              3102.4595
 Red. masses --      1.0678                 1.1018                 1.0856
 Frc consts  --      6.0362                 6.2313                 6.1566
 IR Inten    --     35.0761                11.4718                 8.9768

                    100                    101                    102
                      A                      A                      A
 Frequencies --   3113.3036              3114.8113              3121.8189
 Red. masses --      1.0893                 1.1026                 1.1044
 Frc consts  --      6.2209                 6.3029                 6.3412
 IR Inten    --     30.9569                18.5769                23.8320

                    103                    104                    105
                      A                      A                      A
 Frequencies --   3123.2235              3127.8348              3130.3957
 Red. masses --      1.0925                 1.0957                 1.1023
 Frc consts  --      6.2788                 6.3157                 6.3640
 IR Inten    --     13.6807                25.1579                72.5872

                    106                    107                    108
                      A                      A                      A
 Frequencies --   3144.1479              3267.7622              3284.6577
 Red. masses --      1.1053                 1.0964                 1.0992
 Frc consts  --      6.4379                 6.8982                 6.9875
 IR Inten    --     32.6468                 6.6088                35.6358

 - Thermochemistry -
 -------------------
 Temperature   298.150 Kelvin.  Pressure   1.00000 Atm.
 Atom     1 has atomic number  6 and mass  12.00000

 Molecular mass:   235.16846 amu.
 Principal axes and moments of inertia in atomic units:
                           1         2         3
     Eigenvalues --  2721.411624630.065046339.47704
           X            0.99999  -0.00369   0.00280
           Y            0.00370   0.99997  -0.00604
           Z           -0.00278   0.00605   0.99998
 This molecule is an asymmetric top.
 Rotational symmetry number  1.
 Warning -- assumption of classical behavior for rotation
           may cause significant error
 Rotational temperatures (Kelvin)      0.03183     0.01871     0.01366
 Rotational constants (GHZ):           0.66316     0.38979     0.28468
 Zero-point vibrational energy     886325.6 (Joules/Mol)
                                  211.83691 (Kcal/Mol)
 Warning -- explicit consideration of  22 degrees of freedom as
           vibrations may cause significant error
 Vibrational temperatures:     34.13    74.89    96.13   102.65   129.55
          (Kelvin)            164.49   192.24   259.41   288.58   348.46
                              378.09   414.71   459.70   475.40   516.15
                              542.52   617.10   632.87   762.58   817.82
                              877.14   889.19   928.61   946.34   968.41
                             1044.04  1126.99  1131.00  1194.61  1212.27
                             1221.15  1225.92  1235.05  1287.68  1301.98
                             1312.18  1341.52  1380.93  1387.96  1429.89
                             1455.42  1489.12  1490.90  1523.61  1532.98
                             1550.60  1583.89  1589.55  1637.27  1662.87
                             1683.89  1700.69  1721.29  1729.67  1759.48
                             1764.06  1784.25  1792.80  1836.53  1843.27
                             1853.60  1855.81  1897.44  1911.69  1919.89
                             1927.84  1932.79  1967.51  1973.01  1976.51
                             2008.75  2028.59  2032.85  2066.79  2081.66
                             2131.65  2140.08  2173.89  2180.48  2185.96
                             2188.86  2193.28  2198.53  2205.60  2228.23
                             2232.12  2342.36  4203.76  4231.38  4244.57
                             4391.56  4411.40  4418.36  4429.78  4431.46
                             4441.04  4456.56  4457.56  4463.75  4479.35
                             4481.52  4491.60  4493.62  4500.26  4503.94
                             4523.73  4701.58  4725.89

 Zero-point correction=                           0.337584 (Hartree/Particle)
 Thermal correction to Energy=                    0.353055
 Thermal correction to Enthalpy=                  0.353999
 Thermal correction to Gibbs Free Energy=         0.293690
 Sum of electronic and zero-point Energies=           -747.194482
 Sum of electronic and thermal Energies=              -747.179010
 Sum of electronic and thermal Enthalpies=            -747.178066
 Sum of electronic and thermal Free Energies=         -747.238375

                     E (Thermal)             CV                S
                      KCal/Mol        Cal/Mol-Kelvin    Cal/Mol-Kelvin
 Total                  221.545             60.470            126.930
 Electronic               0.000              0.000              0.000
 Translational            0.889              2.981             42.267
 Rotational               0.889              2.981             32.746
 Vibrational            219.768             54.508             51.917
 Vibration     1          0.593              1.985              6.295
 Vibration     2          0.596              1.977              4.738
 Vibration     3          0.598              1.970              4.245
 Vibration     4          0.598              1.968              4.116
 Vibration     5          0.602              1.956              3.659
 Vibration     6          0.607              1.938              3.194
 Vibration     7          0.613              1.920              2.893
 Vibration     8          0.629              1.866              2.325
 Vibration     9          0.638              1.839              2.128
 Vibration    10          0.658              1.776              1.787
 Vibration    11          0.670              1.741              1.643
 Vibration    12          0.685              1.696              1.484
 Vibration    13          0.705              1.636              1.313
 Vibration    14          0.713              1.615              1.258
 Vibration    15          0.734              1.557              1.128
 Vibration    16          0.748              1.519              1.051
 Vibration    17          0.790              1.407              0.862
 Vibration    18          0.800              1.383              0.827
 Vibration    19          0.885              1.184              0.587
 Vibration    20          0.924              1.100              0.507
 Vibration    21          0.969              1.011              0.433
 Vibration    22          0.978              0.994              0.420

 Optimization completed.
    -- Stationary point found.
 Normal termination of Gaussian 16 at Sun Dec 13 13:36:43 2020.

 ----------------------------------------------------------------------
 # B3LYP/6-311++G(d,p) empiricaldispersion=gd3bj scf=xqc pop=npa geom=c
 heck
 ----------------------------------------------------------------------

 ---------------------------------------
 CID_117233803_JID_7467_Energie_neutraal
 ---------------------------------------
 Structure from the checkpoint file:  "JID_7467.chk"
 Charge =  0 Multiplicity = 1

 SCF Done:  E(RB3LYP) =  -747.730896878     A.U. after   14 cycles
 Normal termination of Gaussian 16 at Sun Dec 13 13:44:38 2020.

 ----------------------------------------------------------------------
 # B3LYP/6-311++G(d,p) empiricaldispersion=gd3bj scf=xqc pop=npa geom=c
 heck
 ----------------------------------------------------------------------

 -------------------------------------
 CID_117233803_JID_7467_Energie_kation
 -------------------------------------
 Structure from the checkpoint file:  "JID_7467.chk"
 Charge =  1 Multiplicity = 2

 SCF Done:  E(UB3LYP) =  -747.455728637     A.U. after   24 cycles
 Normal termination of Gaussian 16 at Sun Dec 13 14:04:08 2020.
 Gaussian 16:  ES64L-G16RevA.03 25-Dec-2016

 ----------------------------------------------------------------------
 # B3LYP/6-311++G(d,p) empiricaldispersion=gd3bj scf=xqc pop=npa geom=c
 heck
 ----------------------------------------------------------------------

 ------------------------------------
 CID_117233803_JID_7467_Energie_anion
 ------------------------------------
 Structure from the checkpoint file:  "JID_7467.chk"
 Charge = -1 Multiplicity = 2

                         Standard orientation:
 ---------------------------------------------------------------------
 Center     Atomic      Atomic             Coordinates (Angstroms)
 Number     Number       Type             X           Y           Z
 ---------------------------------------------------------------------
      1          6           0        2.178898    2.655902   -0.590704
      2          7           0        2.047490    1.301078   -0.093832
      3          6           0        2.926504    0.972019    1.029361
      4          6           0        2.759361   -0.544349    1.165330
      5          6           0        2.579840   -1.027769   -0.296617
      6          6           0        2.296594    0.267839   -1.100538
      7          8           0        1.626592   -2.077262   -0.459499
      8          6           0        0.311237   -1.832637   -0.187493
      9          6           0       -0.343916   -0.672660    0.197678
     10          7           0       -1.662083   -1.012772    0.325613
     11          7           0       -1.895100   -2.307257    0.029365
     12          6           0       -0.698509   -2.817385   -0.273582
     13          6           0       -2.797983   -0.121744    0.549905
     14          6           0       -2.396000    1.130140    1.352757
     15          6           0       -1.968832    2.200759    0.306850
     16          6           0       -2.347540    1.615770   -1.080855
     17          6           0       -3.320729    0.463928   -0.775590
     18          1           0        1.966557    3.367209    0.214565
     19          1           0        3.191233    2.871380   -0.985040
     20          1           0        1.455926    2.826729   -1.395507
     21          1           0        3.981976    1.232343    0.811669
     22          1           0        2.626064    1.526373    1.924973
     23          1           0        1.856996   -0.778867    1.735570
     24          1           0        3.607571   -1.026266    1.657720
     25          1           0        3.498941   -1.488266   -0.663328
     26          1           0        1.441527    0.157727   -1.774666
     27          1           0        3.183334    0.513527   -1.714485
     28          1           0        0.036656    0.321178    0.370888
     29          1           0       -0.590697   -3.861853   -0.531408
     30          1           0       -3.547497   -0.731191    1.058563
     31          1           0       -3.275191    1.472975    1.907507
     32          1           0       -1.619087    0.908473    2.089725
     33          1           0       -0.896974    2.415291    0.364631
     34          1           0       -2.491129    3.144619    0.493328
     35          1           0       -1.455602    1.217831   -1.576422
     36          1           0       -2.781714    2.365259   -1.749669
     37          1           0       -3.373487   -0.294641   -1.561146
     38          1           0       -4.333848    0.852038   -0.608499
 ---------------------------------------------------------------------

 SCF Done:  E(UB3LYP) =  -747.720035861     A.U. after   29 cycles

 The electronic state is 2-A.
 Alpha  occ. eigenvalues --  -19.05739 -14.28830 -14.23300 -14.21775 -10.14264
 Alpha  occ. eigenvalues --  -10.12668 -10.12249 -10.10444 -10.10221 -10.09769
 Alpha  occ. eigenvalues --  -10.09540 -10.09088 -10.07935 -10.07841 -10.07684
 Alpha  occ. eigenvalues --  -10.07259 -10.07148  -0.97432  -0.95044  -0.84795
 Alpha  occ. eigenvalues --   -0.77310  -0.70814  -0.70118  -0.67959  -0.64157
 Alpha  occ. eigenvalues --   -0.62351  -0.61498  -0.58762  -0.53740  -0.51509
 Alpha  occ. eigenvalues --   -0.49639  -0.48156  -0.47282  -0.47064  -0.43053
 Alpha  occ. eigenvalues --   -0.40951  -0.40346  -0.40057  -0.37948  -0.36834
 Alpha  occ. eigenvalues --   -0.36548  -0.36042  -0.35226  -0.33877  -0.33150
 Alpha  occ. eigenvalues --   -0.31858  -0.31454  -0.30409  -0.29372  -0.27699
 Alpha  occ. eigenvalues --   -0.26931  -0.26495  -0.26026  -0.25883  -0.25726
 Alpha  occ. eigenvalues --   -0.25130  -0.24894  -0.23282  -0.23100  -0.22472
 Alpha  occ. eigenvalues --   -0.20044  -0.15803  -0.13473  -0.12008   0.03945
 Alpha virt. eigenvalues --    0.05581   0.06853   0.07166   0.08106   0.08266
 Alpha virt. eigenvalues --    0.08671   0.09243   0.09692   0.09835   0.10331
 Alpha virt. eigenvalues --    0.10711   0.10858   0.11311   0.11417   0.12372

  Beta  occ. eigenvalues --  -19.05738 -14.28830 -14.23298 -14.21765 -10.14256
  Beta  occ. eigenvalues --  -10.12668 -10.12247 -10.10429 -10.10191 -10.09766
  Beta  occ. eigenvalues --  -10.09507 -10.09087 -10.07922 -10.07823 -10.07671
  Beta  occ. eigenvalues --  -10.07245 -10.07128  -0.97428  -0.95042  -0.84774
  Beta  occ. eigenvalues --   -0.77295  -0.70797  -0.70102  -0.67945  -0.64121
  Beta  occ. eigenvalues --   -0.62314  -0.61470  -0.58712  -0.53710  -0.51492
  Beta  occ. eigenvalues --   -0.49570  -0.48114  -0.47248  -0.47047  -0.43021
  Beta  occ. eigenvalues --   -0.40924  -0.40310  -0.40021  -0.37923  -0.36815
  Beta  occ. eigenvalues --   -0.36527  -0.36021  -0.35194  -0.33859  -0.33124
  Beta  occ. eigenvalues --   -0.31835  -0.31435  -0.30383  -0.29340  -0.27662
  Beta  occ. eigenvalues --   -0.26903  -0.26464  -0.26001  -0.25860  -0.25701
  Beta  occ. eigenvalues --   -0.25091  -0.24863  -0.23261  -0.23076  -0.22453
  Beta  occ. eigenvalues --   -0.20039  -0.15797  -0.13407  -0.12003
  Beta virt. eigenvalues --    0.06152   0.06637   0.07421   0.07774   0.08465
  Beta virt. eigenvalues --    0.08683   0.09080   0.09424   0.09938   0.10015
  Beta virt. eigenvalues --    0.10752   0.11039   0.11196   0.11508   0.11770

 Mulliken charges and spin densities:
               1          2
     1  C    0.453340  -0.758972
     2  N    0.046844   0.087047
     3  C    0.453235  -0.733104
     4  C   -0.166874  -0.251405
     5  C   -0.053015   0.065749
     6  C   -0.348930  -0.329513
     7  O   -0.055389   0.000769
     8  C   -0.144064  -0.254917
     9  C   -0.600439   0.575047
    10  N    0.232679   0.046740
    11  N    0.007765  -0.068519
    12  C   -0.349864  -0.252135
    13  C    0.329516  -0.118577
    14  C   -0.359512  -0.136102
    15  C    0.362241  -0.708334
    16  C   -0.117279  -0.017230
    17  C   -0.212371  -0.437632
    18  H   -0.227720   0.384063
    19  H   -0.230753   0.350821
    20  H   -0.094136   0.239001
    21  H   -0.282848   0.417288
    22  H   -0.231689   0.402580
    23  H    0.084385   0.086561
    24  H   -0.306410   0.487304
    25  H   -0.157049   0.399128
    26  H    0.154881   0.050748
    27  H   -0.349415   0.487421
    28  H    2.014927  -1.564597
    29  H    0.096989   0.040368
    30  H    0.179782   0.064448
    31  H   -0.475816   0.675651
    32  H   -0.179012   0.358712
    33  H    0.201171  -0.061541
    34  H   -0.465674   0.647164
    35  H    0.015105   0.112188
    36  H   -0.217383   0.407929
    37  H    0.139916   0.017497
    38  H   -0.147135   0.288353
 Sum of Mulliken charges =  -1.00000   1.00000

 Dipole moment (field-independent basis, Debye):
    X=             -0.9526    Y=             -4.5265    Z=             -1.2343  Tot=              4.7875
 Quadrupole moment (field-independent basis, Debye-Ang):
   XX=           -188.6087   YY=           -163.4879   ZZ=           -139.9520
   XY=              1.8549   XZ=              2.0977   YZ=             -2.1366

 Summary of Natural Population Analysis:

                                       Natural Population
                Natural  -----------------------------------------------
    Atom  No    Charge         Core      Valence    Rydberg      Total
 -----------------------------------------------------------------------
      C    1   -0.17444      0.99964     2.16604    0.00876     3.17444
      N    2   -0.29066      0.99973     2.77748    0.01345     3.79066
      C    3   -0.08193      0.99962     2.07145    0.01087     3.08193
      C    4   -0.20822      0.99961     2.20005    0.00856     3.20822
      C    5    0.06521      0.99953     1.92007    0.01519     2.93479
      C    6   -0.09978      0.99961     2.08942    0.01075     3.09978
      O    7   -0.27704      0.99985     3.26872    0.00846     4.27704
      C    8    0.10275      0.99934     1.88550    0.01241     2.89725
      C    9   -0.06343      0.99949     2.05394    0.01000     3.06343
      N   10   -0.10718      0.99965     2.59366    0.01387     3.60718
      N   11   -0.15147      0.99974     2.64148    0.01025     3.65147
      C   12   -0.03632      0.99960     2.02222    0.01450     3.03632
      C   13   -0.00167      0.99957     1.98823    0.01387     3.00167
      C   14   -0.19928      0.99963     2.19092    0.00873     3.19928
      C   15   -0.19863      0.99964     2.19021    0.00877     3.19863
      C   16   -0.19595      0.99964     2.18859    0.00772     3.19595
      C   17   -0.19316      0.99961     2.18572    0.00783     3.19316
      H   18    0.09873      0.00000     0.39995    0.00132     0.40127
      H   19    0.08333      0.00000     0.41505    0.00162     0.41667
      H   20    0.09631      0.00000     0.40249    0.00120     0.40369
      H   21    0.08252      0.00000     0.41513    0.00236     0.41748
      H   22    0.10020      0.00000     0.39845    0.00134     0.39980
      H   23    0.10769      0.00000     0.39086    0.00145     0.39231
      H   24    0.10407      0.00000     0.39496    0.00097     0.39593
      H   25    0.09518      0.00000     0.40350    0.00131     0.40482
      H   26    0.10378      0.00000     0.39501    0.00121     0.39622
      H   27    0.09026      0.00000     0.40823    0.00152     0.40974
      H   28    0.12362      0.00000     0.37286    0.00352     0.37638
      H   29    0.09760      0.00000     0.40156    0.00083     0.40240
      H   30    0.10836      0.00000     0.39023    0.00141     0.39164
      H   31    0.10569      0.00000     0.39292    0.00139     0.39431
      H   32    0.10607      0.00000     0.39277    0.00116     0.39393
      H   33    0.10181      0.00000     0.39625    0.00194     0.39819
      H   34    0.10144      0.00000     0.39679    0.00177     0.39856
      H   35    0.09754      0.00000     0.40080    0.00166     0.40246
      H   36    0.10226      0.00000     0.39671    0.00103     0.39774
      H   37    0.10558      0.00000     0.39351    0.00091     0.39442
      H   38    0.09917      0.00000     0.39967    0.00116     0.40083
 =======================================================================
   * Total *   -0.00000     16.99351    46.79142    0.21507    64.00000

 Normal termination of Gaussian 16 at Sun Dec 13 14:26:02 2020.
