 Gaussian 16, Revision A.03,

 -----------------------------------------------------------
 # opt freq B3LYP/6-31G(d) empiricaldispersion=gd3bj scf=xqc
 -----------------------------------------------------------

 ------------------------------
 CID_84075541_JID_1173_neutraal
 ------------------------------
 Symbolic Z-matrix:
 Charge =  0 Multiplicity = 1

 SCF Done:  E(RB3LYP) =  -553.847707196     A.U. after   15 cycles
 SCF Done:  E(RB3LYP) =  -553.852061338     A.U. after   12 cycles
 SCF Done:  E(RB3LYP) =  -553.852511019     A.U. after   11 cycles
 SCF Done:  E(RB3LYP) =  -553.852566445     A.U. after   12 cycles
 SCF Done:  E(RB3LYP) =  -553.852677895     A.U. after   11 cycles
 SCF Done:  E(RB3LYP) =  -553.852754735     A.U. after   10 cycles
 SCF Done:  E(RB3LYP) =  -553.852777733     A.U. after   10 cycles
 SCF Done:  E(RB3LYP) =  -553.852784992     A.U. after    9 cycles
 SCF Done:  E(RB3LYP) =  -553.852789234     A.U. after    9 cycles
 SCF Done:  E(RB3LYP) =  -553.852792894     A.U. after   10 cycles
 SCF Done:  E(RB3LYP) =  -553.853786603     A.U. after   10 cycles
 SCF Done:  E(RB3LYP) =  -553.853787345     A.U. after   10 cycles
 SCF Done:  E(RB3LYP) =  -553.853787963     A.U. after    8 cycles
 SCF Done:  E(RB3LYP) =  -553.853788125     A.U. after    7 cycles
 SCF Done:  E(RB3LYP) =  -553.853788182     A.U. after    7 cycles
 SCF Done:  E(RB3LYP) =  -553.853788199     A.U. after    7 cycles
 Optimization completed.
    -- Stationary point found.
 Normal termination of Gaussian 16 at Tue Dec  8 19:22:29 2020.

 --------------------------------------------------------------------
 #N Geom=AllCheck Guess=TCheck SCRF=Check GenChk RB3LYP/6-31G(d) Freq
 --------------------------------------------------------------------

 Structure from the checkpoint file:  "JID_1173.chk"
 ------------------------------
 CID_84075541_JID_1173_neutraal
 ------------------------------
 Charge =  0 Multiplicity = 1

 SCF Done:  E(RB3LYP) =  -553.853788199     A.U. after    1 cycles

  Exact polarizability:  98.498  -1.667  82.194   2.119  -1.397  70.303
 Approx polarizability: 130.674  -2.839 117.569  11.360   0.737 110.268

                      1                      2                      3
                      A                      A                      A
 Frequencies --     27.6056                61.4962                96.4878
 Red. masses --      5.6649                 4.6540                 3.0621
 Frc consts  --      0.0025                 0.0104                 0.0168
 IR Inten    --      1.6224                 2.4803                 0.3118

                      4                      5                      6
                      A                      A                      A
 Frequencies --    136.0588               147.7673               199.3222
 Red. masses --      1.1080                 5.2912                 2.3555
 Frc consts  --      0.0121                 0.0681                 0.0551
 IR Inten    --      0.0903                 0.8723                 2.4985

                      7                      8                      9
                      A                      A                      A
 Frequencies --    205.0280               218.5919               270.6509
 Red. masses --      1.7994                 1.5932                 3.9698
 Frc consts  --      0.0446                 0.0449                 0.1713
 IR Inten    --      6.5289                 6.2685                12.1246

                     10                     11                     12
                      A                      A                      A
 Frequencies --    307.5009               351.4622               401.9643
 Red. masses --      3.0928                 3.6310                 7.4787
 Frc consts  --      0.1723                 0.2643                 0.7120
 IR Inten    --      3.3072                 6.2850                 9.1539

                     13                     14                     15
                      A                      A                      A
 Frequencies --    485.8673               530.4181               573.0172
 Red. masses --      2.2005                 1.6168                 3.6352
 Frc consts  --      0.3061                 0.2680                 0.7033
 IR Inten    --     33.3458                76.3182                14.9732

                     16                     17                     18
                      A                      A                      A
 Frequencies --    657.4772               707.7767               748.1218
 Red. masses --      4.5333                 5.7049                 5.7462
 Frc consts  --      1.1546                 1.6838                 1.8948
 IR Inten    --      4.2851                 9.7342                11.4538

                     19                     20                     21
                      A                      A                      A
 Frequencies --    755.3565               836.8538               846.6498
 Red. masses --      5.2743                 2.8674                 3.1910
 Frc consts  --      1.7731                 1.1831                 1.3477
 IR Inten    --      5.0129                 6.0314                12.2950

                     22                     23                     24
                      A                      A                      A
 Frequencies --    917.9549               996.7559              1046.2133
 Red. masses --      2.3093                 1.4009                 2.7043
 Frc consts  --      1.1465                 0.8200                 1.7440
 IR Inten    --      6.8454                 1.5379                 6.7255

                     25                     26                     27
                      A                      A                      A
 Frequencies --   1068.0235              1080.1715              1091.5665
 Red. masses --      4.5608                 2.3953                 2.0185
 Frc consts  --      3.0651                 1.6466                 1.4170
 IR Inten    --     49.4921                35.5810                27.3293

                     28                     29                     30
                      A                      A                      A
 Frequencies --   1141.4159              1152.0634              1186.7960
 Red. masses --      2.4650                 2.0114                 1.2753
 Frc consts  --      1.8921                 1.5729                 1.0583
 IR Inten    --      4.0311                16.2636                 0.9396

                     31                     32                     33
                      A                      A                      A
 Frequencies --   1218.9460              1242.4221              1264.9695
 Red. masses --      1.4554                 1.2741                 1.6097
 Frc consts  --      1.2741                 1.1588                 1.5176
 IR Inten    --      6.8448                 3.7552                43.2001

                     34                     35                     36
                      A                      A                      A
 Frequencies --   1269.1387              1303.9567              1337.5752
 Red. masses --      2.1299                 2.8139                 1.2833
 Frc consts  --      2.0213                 2.8189                 1.3528
 IR Inten    --    104.1691               282.6116                 2.0631

                     37                     38                     39
                      A                      A                      A
 Frequencies --   1349.9596              1377.8640              1385.5420
 Red. masses --      1.6304                 1.6995                 1.6007
 Frc consts  --      1.7505                 1.9010                 1.8105
 IR Inten    --     17.7912                14.7991                14.9003

                     40                     41                     42
                      A                      A                      A
 Frequencies --   1438.2411              1463.4276              1493.4812
 Red. masses --      1.2416                 1.9763                 1.2125
 Frc consts  --      1.5132                 2.4937                 1.5934
 IR Inten    --      4.1487                39.9690                 8.1715

                     43                     44                     45
                      A                      A                      A
 Frequencies --   1512.8793              1523.4573              1524.9796
 Red. masses --      1.0479                 1.0453                 1.0479
 Frc consts  --      1.4131                 1.4294                 1.4358
 IR Inten    --      6.2424                 6.3091                10.4294

                     46                     47                     48
                      A                      A                      A
 Frequencies --   1528.3555              1560.8968              1827.8331
 Red. masses --      1.0497                 1.0953                10.9787
 Frc consts  --      1.4446                 1.5723                21.6109
 IR Inten    --      4.0622                 8.8223               263.3833

                     49                     50                     51
                      A                      A                      A
 Frequencies --   1837.6319              3038.2521              3056.6435
 Red. masses --     10.3470                 1.0819                 1.0593
 Frc consts  --     20.5864                 5.8844                 5.8313
 IR Inten    --    346.7671                 5.9124                45.9787

                     52                     53                     54
                      A                      A                      A
 Frequencies --   3059.7070              3078.4161              3095.1165
 Red. masses --      1.0364                 1.0294                 1.0963
 Frc consts  --      5.7164                 5.7478                 6.1878
 IR Inten    --     13.4984                30.8748                 9.5682

                     55                     56                     57
                      A                      A                      A
 Frequencies --   3110.6464              3126.3755              3145.4526
 Red. masses --      1.0956                 1.1024                 1.1025
 Frc consts  --      6.2460                 6.3487                 6.4271
 IR Inten    --     25.2224                24.5846                11.3153

                     58                     59                     60
                      A                      A                      A
 Frequencies --   3154.0529              3186.0879              3630.6182
 Red. masses --      1.1076                 1.1074                 1.0778
 Frc consts  --      6.4920                 6.6233                 8.3704
 IR Inten    --     18.9159                15.2489                27.8825

 - Thermochemistry -
 -------------------
 Temperature   298.150 Kelvin.  Pressure   1.00000 Atm.
 Atom     1 has atomic number  6 and mass  12.00000

 Molecular mass:   157.07389 amu.
 Principal axes and moments of inertia in atomic units:
                           1         2         3
     Eigenvalues --   881.188652585.814762910.60744
           X            0.99967  -0.01297  -0.02224
           Y            0.01243   0.99964  -0.02387
           Z            0.02254   0.02358   0.99947
 This molecule is an asymmetric top.
 Rotational symmetry number  1.
 Warning -- assumption of classical behavior for rotation
           may cause significant error
 Rotational temperatures (Kelvin)      0.09829     0.03350     0.02976
 Rotational constants (GHZ):           2.04808     0.69794     0.62006
 Zero-point vibrational energy     480835.2 (Joules/Mol)
                                  114.92236 (Kcal/Mol)
 Warning -- explicit consideration of  15 degrees of freedom as
           vibrations may cause significant error
 Vibrational temperatures:     39.72    88.48   138.82   195.76   212.60
          (Kelvin)            286.78   294.99   314.51   389.41   442.43
                              505.68   578.34   699.05   763.15   824.44
                              945.96  1018.33  1076.38  1086.79  1204.05
                             1218.14  1320.73  1434.11  1505.27  1536.65
                             1554.13  1570.52  1642.24  1657.56  1707.53
                             1753.79  1787.57  1820.01  1826.01  1876.10
                             1924.47  1942.29  1982.44  1993.49  2069.31
                             2105.55  2148.79  2176.70  2191.92  2194.11
                             2198.96  2245.78  2629.84  2643.94  4371.37
                             4397.83  4402.24  4429.15  4453.18  4475.53
                             4498.16  4525.60  4537.98  4584.07  5223.65

 Zero-point correction=                           0.183140 (Hartree/Particle)
 Thermal correction to Energy=                    0.194482
 Thermal correction to Enthalpy=                  0.195426
 Thermal correction to Gibbs Free Energy=         0.144876
 Sum of electronic and zero-point Energies=           -553.670648
 Sum of electronic and thermal Energies=              -553.659306
 Sum of electronic and thermal Enthalpies=            -553.658362
 Sum of electronic and thermal Free Energies=         -553.708912

                     E (Thermal)             CV                S
                      KCal/Mol        Cal/Mol-Kelvin    Cal/Mol-Kelvin
 Total                  122.039             40.265            106.391
 Electronic               0.000              0.000              0.000
 Translational            0.889              2.981             41.064
 Rotational               0.889              2.981             30.273
 Vibrational            120.262             34.304             35.054
 Vibration     1          0.593              1.984              5.994
 Vibration     2          0.597              1.973              4.409
 Vibration     3          0.603              1.952              3.524
 Vibration     4          0.614              1.917              2.859
 Vibration     5          0.617              1.905              2.701
 Vibration     6          0.637              1.841              2.139
 Vibration     7          0.640              1.833              2.088
 Vibration     8          0.646              1.813              1.971
 Vibration     9          0.674              1.727              1.592
 Vibration    10          0.697              1.659              1.376
 Vibration    11          0.728              1.572              1.160
 Vibration    12          0.768              1.466              0.955
 Vibration    13          0.842              1.281              0.694
 Vibration    14          0.885              1.183              0.586
 Vibration    15          0.929              1.090              0.498

 Optimization completed.
    -- Stationary point found.
 Normal termination of Gaussian 16 at Tue Dec  8 19:26:55 2020.

 ----------------------------------------------------------------------
 # B3LYP/6-311++G(d,p) empiricaldispersion=gd3bj scf=xqc pop=npa geom=c
 heck
 ----------------------------------------------------------------------

 --------------------------------------
 CID_84075541_JID_1173_Energie_neutraal
 --------------------------------------
 Structure from the checkpoint file:  "JID_1173.chk"
 Charge =  0 Multiplicity = 1

 SCF Done:  E(RB3LYP) =  -554.021671506     A.U. after   15 cycles
 Normal termination of Gaussian 16 at Tue Dec  8 19:28:53 2020.

 ----------------------------------------------------------------------
 # B3LYP/6-311++G(d,p) empiricaldispersion=gd3bj scf=xqc pop=npa geom=c
 heck
 ----------------------------------------------------------------------

 ------------------------------------
 CID_84075541_JID_1173_Energie_kation
 ------------------------------------
 Structure from the checkpoint file:  "JID_1173.chk"
 Charge =  1 Multiplicity = 2

 SCF Done:  E(UB3LYP) =  -553.684481641     A.U. after   26 cycles
 Normal termination of Gaussian 16 at Tue Dec  8 19:33:39 2020.
 Gaussian 16:  ES64L-G16RevA.03 25-Dec-2016

 ----------------------------------------------------------------------
 # B3LYP/6-311++G(d,p) empiricaldispersion=gd3bj scf=xqc pop=npa geom=c
 heck
 ----------------------------------------------------------------------

 -----------------------------------
 CID_84075541_JID_1173_Energie_anion
 -----------------------------------
 Structure from the checkpoint file:  "JID_1173.chk"
 Charge = -1 Multiplicity = 2

                         Standard orientation:
 ---------------------------------------------------------------------
 Center     Atomic      Atomic             Coordinates (Angstroms)
 Number     Number       Type             X           Y           Z
 ---------------------------------------------------------------------
      1          6           0       -1.124421    2.124152    0.026515
      2          6           0       -0.870505    0.654933   -0.285476
      3          6           0        0.040123   -0.093511    0.719522
      4          6           0       -0.439371   -1.561665    0.624660
      5          7           0       -1.841236   -1.396838    0.273748
      6          6           0       -2.151532   -0.191015   -0.296502
      7          8           0       -3.235730    0.140989   -0.741498
      8          6           0        1.508222    0.138696    0.451537
      9          8           0        2.224454    0.862597    1.107774
     10          8           0        1.926285   -0.519799   -0.654599
     11          6           0        3.297735   -0.293135   -1.019401
     12          1           0       -1.849753    2.532941   -0.682361
     13          1           0       -0.198346    2.704748   -0.033991
     14          1           0       -1.535562    2.241502    1.035234
     15          1           0       -0.438470    0.560088   -1.292006
     16          1           0       -0.157805    0.290560    1.724155
     17          1           0       -0.325474   -2.088065    1.577545
     18          1           0        0.116298   -2.109440   -0.145950
     19          1           0       -2.500093   -2.162294    0.235883
     20          1           0        3.467019    0.766796   -1.225169
     21          1           0        3.964493   -0.608645   -0.213057
     22          1           0        3.464773   -0.891368   -1.915069
 ---------------------------------------------------------------------

 SCF Done:  E(UB3LYP) =  -554.009867522     A.U. after   30 cycles

 The electronic state is 2-A.
 Alpha  occ. eigenvalues --  -19.07451 -19.02049 -18.99515 -14.23996 -10.20888
 Alpha  occ. eigenvalues --  -10.17449 -10.12232 -10.11549 -10.10372 -10.09894
 Alpha  occ. eigenvalues --  -10.07560  -1.01485  -0.94424  -0.92838  -0.84550
 Alpha  occ. eigenvalues --   -0.72355  -0.66170  -0.62128  -0.58275  -0.54334
 Alpha  occ. eigenvalues --   -0.47889  -0.47041  -0.42359  -0.40638  -0.38740
 Alpha  occ. eigenvalues --   -0.38308  -0.37529  -0.35081  -0.34529  -0.33034
 Alpha  occ. eigenvalues --   -0.31733  -0.30861  -0.30230  -0.29373  -0.28043
 Alpha  occ. eigenvalues --   -0.26723  -0.25286  -0.24335  -0.21526  -0.19205
 Alpha  occ. eigenvalues --   -0.16563  -0.15737   0.04418
 Alpha virt. eigenvalues --    0.06505   0.07749   0.08311   0.08694   0.09744
 Alpha virt. eigenvalues --    0.10087   0.10568   0.11085   0.11517   0.11852
 Alpha virt. eigenvalues --    0.13000   0.14052   0.14214   0.15521   0.15805

  Beta  occ. eigenvalues --  -19.07438 -19.02041 -18.99510 -14.23963 -10.20887
  Beta  occ. eigenvalues --  -10.17446 -10.12175 -10.11509 -10.10365 -10.09883
  Beta  occ. eigenvalues --  -10.07553  -1.01469  -0.94410  -0.92821  -0.84511
  Beta  occ. eigenvalues --   -0.72325  -0.66135  -0.62051  -0.58228  -0.54262
  Beta  occ. eigenvalues --   -0.47838  -0.46978  -0.42324  -0.40591  -0.38714
  Beta  occ. eigenvalues --   -0.38253  -0.37486  -0.35054  -0.34485  -0.33005
  Beta  occ. eigenvalues --   -0.31691  -0.30829  -0.30194  -0.29342  -0.28024
  Beta  occ. eigenvalues --   -0.26677  -0.25255  -0.24309  -0.21502  -0.19188
  Beta  occ. eigenvalues --   -0.16524  -0.15716
  Beta virt. eigenvalues --    0.07041   0.07951   0.08126   0.08644   0.09137
  Beta virt. eigenvalues --    0.10496   0.10741   0.11188   0.11434   0.11738
  Beta virt. eigenvalues --    0.12324   0.13457   0.14260   0.14405   0.15563

 Mulliken charges and spin densities:
               1          2
     1  C   -0.367000  -0.336757
     2  C    1.398427  -1.271720
     3  C   -0.746311   1.091250
     4  C    2.163276  -2.731755
     5  N   -0.359141   0.156624
     6  C   -0.262028   0.382344
     7  O   -0.410499   0.016726
     8  C   -0.922585   0.519004
     9  O   -0.231612   0.004691
    10  O   -0.159326   0.094773
    11  C    1.356849  -1.577815
    12  H    0.138146   0.021317
    13  H    0.072113   0.086882
    14  H    0.080513   0.057261
    15  H   -0.000990   0.221474
    16  H    0.082257   0.180531
    17  H   -0.847047   1.036403
    18  H   -0.282234   0.512918
    19  H   -0.253301   0.573655
    20  H   -0.357602   0.528021
    21  H   -0.411163   0.590151
    22  H   -0.680742   0.844022
 Sum of Mulliken charges =  -1.00000   1.00000

 Dipole moment (field-independent basis, Debye):
    X=             -2.1151    Y=              5.0268    Z=              1.0051  Tot=              5.5455
 Quadrupole moment (field-independent basis, Debye-Ang):
   XX=           -134.4737   YY=           -107.3006   ZZ=           -100.5692
   XY=             -1.9625   XZ=              3.2188   YZ=              2.5735

 Summary of Natural Population Analysis:

                                       Natural Population
                Natural  -----------------------------------------------
    Atom  No    Charge         Core      Valence    Rydberg      Total
 -----------------------------------------------------------------------
      C    1   -0.28398      0.99965     2.27892    0.00541     3.28398
      C    2   -0.14272      0.99955     2.13293    0.01024     3.14272
      C    3   -0.15341      0.99954     2.14104    0.01284     3.15341
      C    4   -0.07748      0.99961     2.06699    0.01089     3.07748
      N    5   -0.31627      0.99968     2.80622    0.01038     3.81627
      C    6    0.34735      0.99964     1.62861    0.02439     2.65265
      O    7   -0.32152      0.99987     3.31562    0.00602     4.32152
      C    8    0.41280      0.99964     1.56152    0.02605     2.58720
      O    9   -0.30188      0.99987     3.29643    0.00558     4.30188
      O   10   -0.27889      0.99986     3.26953    0.00949     4.27889
      C   11   -0.10292      0.99959     2.09422    0.00910     3.10292
      H   12    0.10797      0.00000     0.39112    0.00091     0.39203
      H   13    0.10245      0.00000     0.39669    0.00085     0.39755
      H   14    0.09817      0.00000     0.40093    0.00090     0.40183
      H   15    0.11466      0.00000     0.38372    0.00163     0.38534
      H   16    0.10998      0.00000     0.38832    0.00170     0.39002
      H   17    0.10212      0.00000     0.39403    0.00384     0.39788
      H   18    0.10130      0.00000     0.39531    0.00339     0.39870
      H   19    0.20145      0.00000     0.29312    0.00543     0.29855
      H   20    0.09117      0.00000     0.40706    0.00177     0.40883
      H   21    0.09318      0.00000     0.40512    0.00170     0.40682
      H   22    0.09646      0.00000     0.40095    0.00260     0.40354
 =======================================================================
   * Total *   -0.00000     10.99650    30.84840    0.15510    42.00000

 Normal termination of Gaussian 16 at Tue Dec  8 19:39:14 2020.
