 Gaussian 16, Revision A.03,

 -----------------------------------------------------------
 # opt freq B3LYP/6-31G(d) empiricaldispersion=gd3bj scf=xqc
 -----------------------------------------------------------

 ------------------------------
 CID_123726187_JID_225_neutraal
 ------------------------------
 Symbolic Z-matrix:
 Charge =  0 Multiplicity = 1

 SCF Done:  E(RB3LYP) =  -409.170388839     A.U. after   13 cycles
 SCF Done:  E(RB3LYP) =  -409.172839563     A.U. after   11 cycles
 SCF Done:  E(RB3LYP) =  -409.173130790     A.U. after   11 cycles
 SCF Done:  E(RB3LYP) =  -409.173201871     A.U. after   10 cycles
 SCF Done:  E(RB3LYP) =  -409.173210871     A.U. after    9 cycles
 SCF Done:  E(RB3LYP) =  -409.173211951     A.U. after    8 cycles
 SCF Done:  E(RB3LYP) =  -409.173212224     A.U. after    7 cycles
 SCF Done:  E(RB3LYP) =  -409.173212272     A.U. after    6 cycles
 Optimization completed.
    -- Stationary point found.

 1\1\GINC-NODE122\FOpt\RB3LYP\6-31G(d)\C9H19N1\VSC10255\08-Dec-2020\0\\
 # opt freq B3LYP/6-31G(d) empiricaldispersion=gd3bj scf=xqc\\CID_12372
 6187_JID_225_neutraal\\0,1\C,1.0881369235,-0.0161118059,0.1137556694\C
 ,0.6004387471,1.441275858,0.041207048\C,1.0497250539,2.1088739967,-1.2
 685910167\C,-0.899544368,1.5015984322,0.1699709135\C,-1.6070948514,1.9
 123568883,1.2301184008\C,-3.1141381948,1.9278434862,1.2225608169\C,-0.
 9409494049,2.3849924727,2.5115900617\N,-0.1581435581,1.3384641292,3.17
 63385344\C,0.5625463724,1.877668389,4.3182429738\C,-0.9864134222,0.206

 Normal termination of Gaussian 16 at Tue Dec  8 10:20:44 2020.

 --------------------------------------------------------------------
 #N Geom=AllCheck Guess=TCheck SCRF=Check GenChk RB3LYP/6-31G(d) Freq
 --------------------------------------------------------------------

 Structure from the checkpoint file:  "JID_225.chk"
 ------------------------------
 CID_123726187_JID_225_neutraal
 ------------------------------
 Charge =  0 Multiplicity = 1

 SCF Done:  E(RB3LYP) =  -409.173212272     A.U. after    1 cycles

  Exact polarizability: 120.538   6.051 104.903  -3.391   0.338  88.056
 Approx polarizability: 160.130  11.582 140.232  -8.776   0.552 126.455

                      1                      2                      3
                      A                      A                      A
 Frequencies --     48.8101                64.1462                79.8080
 Red. masses --      2.6252                 2.8485                 2.7587
 Frc consts  --      0.0037                 0.0069                 0.0104
 IR Inten    --      0.0109                 0.1618                 0.3102

                      4                      5                      6
                      A                      A                      A
 Frequencies --    129.6523               153.4338               205.4673
 Red. masses --      2.6565                 2.7965                 2.0248
 Frc consts  --      0.0263                 0.0388                 0.0504
 IR Inten    --      0.4483                 0.1368                 0.7171

                      7                      8                      9
                      A                      A                      A
 Frequencies --    215.2388               234.7426               253.5035
 Red. masses --      1.1015                 1.0325                 1.1617
 Frc consts  --      0.0301                 0.0335                 0.0440
 IR Inten    --      0.1787                 0.0071                 0.4506

                     10                     11                     12
                      A                      A                      A
 Frequencies --    274.0646               285.9358               296.8558
 Red. masses --      1.0920                 1.1519                 2.1670
 Frc consts  --      0.0483                 0.0555                 0.1125
 IR Inten    --      0.5839                 0.6914                 0.2938

                     13                     14                     15
                      A                      A                      A
 Frequencies --    355.5808               363.3056               394.0151
 Red. masses --      2.5010                 2.3690                 2.1083
 Frc consts  --      0.1863                 0.1842                 0.1928
 IR Inten    --      1.0637                 5.3649                 1.3095

                     16                     17                     18
                      A                      A                      A
 Frequencies --    414.6448               451.3324               479.7305
 Red. masses --      2.4676                 2.2290                 2.4786
 Frc consts  --      0.2500                 0.2675                 0.3361
 IR Inten    --      3.9607                 0.1379                 0.7213

                     19                     20                     21
                      A                      A                      A
 Frequencies --    519.3100               585.5943               851.4484
 Red. masses --      2.9150                 3.0892                 2.7753
 Frc consts  --      0.4632                 0.6241                 1.1854
 IR Inten    --      0.9405                 0.4374                19.2585

                     22                     23                     24
                      A                      A                      A
 Frequencies --    858.0662               882.5169               898.9031
 Red. masses --      2.3793                 3.1297                 1.4895
 Frc consts  --      1.0321                 1.4361                 0.7091
 IR Inten    --      4.9827                 1.7753                11.9395

                     25                     26                     27
                      A                      A                      A
 Frequencies --    939.3610               971.3824               976.5833
 Red. masses --      1.1823                 1.7595                 1.5330
 Frc consts  --      0.6147                 0.9782                 0.8614
 IR Inten    --      0.8492                 6.7701                 0.2601

                     28                     29                     30
                      A                      A                      A
 Frequencies --    983.1128              1059.1659              1074.3070
 Red. masses --      1.5958                 2.2665                 1.5554
 Frc consts  --      0.9087                 1.4981                 1.0577
 IR Inten    --      8.0459                44.1852                 7.1363

                     31                     32                     33
                      A                      A                      A
 Frequencies --   1078.1707              1087.5349              1131.2074
 Red. masses --      1.5155                 1.5362                 1.9915
 Frc consts  --      1.0379                 1.0705                 1.5014
 IR Inten    --      5.9289                 4.1688                 3.4578

                     34                     35                     36
                      A                      A                      A
 Frequencies --   1134.9821              1143.3781              1189.4659
 Red. masses --      1.4728                 1.8025                 1.4624
 Frc consts  --      1.1178                 1.3884                 1.2190
 IR Inten    --      6.0091                 2.6824                 4.5993

                     37                     38                     39
                      A                      A                      A
 Frequencies --   1209.9839              1221.1803              1244.1581
 Red. masses --      1.8089                 1.9871                 2.2896
 Frc consts  --      1.5603                 1.7460                 2.0881
 IR Inten    --     11.2173                11.6962                 1.3730

                     40                     41                     42
                      A                      A                      A
 Frequencies --   1309.2157              1327.4588              1346.8669
 Red. masses --      2.3996                 1.3780                 1.4059
 Frc consts  --      2.4233                 1.4307                 1.5026
 IR Inten    --     12.4847                13.2944                 1.7585

                     43                     44                     45
                      A                      A                      A
 Frequencies --   1352.6141              1404.7938              1419.2882
 Red. masses --      1.4108                 1.3751                 1.2388
 Frc consts  --      1.5208                 1.5988                 1.4702
 IR Inten    --      6.4327                 5.5638                 2.8973

                     46                     47                     48
                      A                      A                      A
 Frequencies --   1426.7476              1440.7598              1444.4553
 Red. masses --      1.5749                 1.2362                 1.2598
 Frc consts  --      1.8888                 1.5119                 1.5486
 IR Inten    --     10.5187                 0.3641                 5.6744

                     49                     50                     51
                      A                      A                      A
 Frequencies --   1463.6139              1494.6639              1509.1019
 Red. masses --      1.1630                 1.1956                 1.0474
 Frc consts  --      1.4679                 1.5737                 1.4054
 IR Inten    --      1.6570                 0.0262                 4.2138

                     52                     53                     54
                      A                      A                      A
 Frequencies --   1511.6512              1517.5888              1519.5975
 Red. masses --      1.0490                 1.0515                 1.0577
 Frc consts  --      1.4123                 1.4269                 1.4390
 IR Inten    --     13.6121                 1.2484                 1.5779

                     55                     56                     57
                      A                      A                      A
 Frequencies --   1521.1425              1523.3137              1529.8527
 Red. masses --      1.0442                 1.0584                 1.0471
 Frc consts  --      1.4236                 1.4471                 1.4439
 IR Inten    --      2.6105                 6.2470                 5.8611

                     58                     59                     60
                      A                      A                      A
 Frequencies --   1532.2127              1536.6160              1539.9888
 Red. masses --      1.0538                 1.0768                 1.0528
 Frc consts  --      1.4576                 1.4980                 1.4710
 IR Inten    --      1.1430                 3.8268                 7.6280

                     61                     62                     63
                      A                      A                      A
 Frequencies --   1543.6129              1753.6906              2914.8018
 Red. masses --      1.0552                 6.8899                 1.0727
 Frc consts  --      1.4814                12.4844                 5.3699
 IR Inten    --      7.2716                 0.8251                39.5896

                     64                     65                     66
                      A                      A                      A
 Frequencies --   2924.2622              2937.4589              3024.5323
 Red. masses --      1.0619                 1.0636                 1.0386
 Frc consts  --      5.3500                 5.4070                 5.5978
 IR Inten    --     42.2212               199.5652                45.6869

                     67                     68                     69
                      A                      A                      A
 Frequencies --   3036.0580              3040.6060              3051.9203
 Red. masses --      1.0359                 1.0372                 1.0860
 Frc consts  --      5.6258                 5.6498                 5.9595
 IR Inten    --     25.8310                42.0269                22.2777

                     70                     71                     72
                      A                      A                      A
 Frequencies --   3067.6627              3072.4972              3075.0122
 Red. masses --      1.0998                 1.0846                 1.0694
 Frc consts  --      6.0977                 6.0325                 5.9578
 IR Inten    --     25.8235                 2.7482                35.0909

                     73                     74                     75
                      A                      A                      A
 Frequencies --   3086.9477              3096.7839              3106.0233
 Red. masses --      1.0705                 1.1020                 1.0981
 Frc consts  --      6.0105                 6.2268                 6.2418
 IR Inten    --     27.9918                 3.4287                45.9513

                     76                     77                     78
                      A                      A                      A
 Frequencies --   3113.2328              3116.4938              3119.8268
 Red. masses --      1.1026                 1.0926                 1.1040
 Frc consts  --      6.2963                 6.2521                 6.3308
 IR Inten    --     37.6847                21.2185                32.8340

                     79                     80                     81
                      A                      A                      A
 Frequencies --   3123.3603              3136.5455              3138.3834
 Red. masses --      1.0953                 1.1018                 1.0998
 Frc consts  --      6.2954                 6.3866                 6.3823
 IR Inten    --     64.7982                31.0062                23.2201

 - Thermochemistry -
 -------------------
 Temperature   298.150 Kelvin.  Pressure   1.00000 Atm.
 Atom     1 has atomic number  6 and mass  12.00000

 Molecular mass:   141.15175 amu.
 Principal axes and moments of inertia in atomic units:
                           1         2         3
     Eigenvalues --  1187.210652015.183132559.72235
           X            0.99995   0.01007   0.00019
           Y           -0.01008   0.99992   0.00779
           Z           -0.00011  -0.00779   0.99997
 This molecule is an asymmetric top.
 Rotational symmetry number  1.
 Warning -- assumption of classical behavior for rotation
           may cause significant error
 Rotational temperatures (Kelvin)      0.07296     0.04298     0.03384
 Rotational constants (GHZ):           1.52015     0.89557     0.70505
 Zero-point vibrational energy     705146.8 (Joules/Mol)
                                  168.53413 (Kcal/Mol)
 Warning -- explicit consideration of  20 degrees of freedom as
           vibrations may cause significant error
 Vibrational temperatures:     70.23    92.29   114.83   186.54   220.76
          (Kelvin)            295.62   309.68   337.74   364.73   394.32
                              411.40   427.11   511.60   522.72   566.90
                              596.58   649.37   690.23   747.17   842.54
                             1225.04  1234.57  1269.74  1293.32  1351.53
                             1397.60  1405.09  1414.48  1523.90  1545.69
                             1551.25  1564.72  1627.56  1632.99  1645.07
                             1711.38  1740.90  1757.01  1790.07  1883.67
                             1909.92  1937.84  1946.11  2021.18  2042.04
                             2052.77  2072.93  2078.25  2105.81  2150.49
                             2171.26  2174.93  2183.47  2186.36  2188.58
                             2191.71  2201.12  2204.51  2210.85  2215.70
                             2220.91  2523.17  4193.75  4207.36  4226.35
                             4351.63  4368.21  4374.75  4391.03  4413.68
                             4420.64  4424.26  4441.43  4455.58  4468.87
                             4479.25  4483.94  4488.73  4493.82  4512.79
                             4515.43

 Zero-point correction=                           0.268576 (Hartree/Particle)
 Thermal correction to Energy=                    0.281509
 Thermal correction to Enthalpy=                  0.282453
 Thermal correction to Gibbs Free Energy=         0.229980
 Sum of electronic and zero-point Energies=           -408.904636
 Sum of electronic and thermal Energies=              -408.891703
 Sum of electronic and thermal Enthalpies=            -408.890759
 Sum of electronic and thermal Free Energies=         -408.943232

                     E (Thermal)             CV                S
                      KCal/Mol        Cal/Mol-Kelvin    Cal/Mol-Kelvin
 Total                  176.650             47.460            110.439
 Electronic               0.000              0.000              0.000
 Translational            0.889              2.981             40.745
 Rotational               0.889              2.981             30.194
 Vibrational            174.872             41.498             39.499
 Vibration     1          0.595              1.978              4.865
 Vibration     2          0.597              1.971              4.325
 Vibration     3          0.600              1.963              3.896
 Vibration     4          0.612              1.924              2.951
 Vibration     5          0.619              1.899              2.629
 Vibration     6          0.640              1.832              2.084
 Vibration     7          0.645              1.818              1.999
 Vibration     8          0.655              1.788              1.842
 Vibration     9          0.665              1.757              1.706
 Vibration    10          0.676              1.721              1.570
 Vibration    11          0.684              1.700              1.498
 Vibration    12          0.691              1.680              1.435
 Vibration    13          0.731              1.564              1.141
 Vibration    14          0.737              1.548              1.108
 Vibration    15          0.761              1.483              0.985
 Vibration    16          0.778              1.438              0.910
 Vibration    17          0.810              1.358              0.792
 Vibration    18          0.836              1.295              0.711
 Vibration    19          0.874              1.207              0.612
 Vibration    20          0.943              1.063              0.475

 Optimization completed.
    -- Stationary point found.

 1\1\GINC-NODE122\Freq\RB3LYP\6-31G(d)\C9H19N1\VSC10255\08-Dec-2020\0\\
 #N Geom=AllCheck Guess=TCheck SCRF=Check GenChk RB3LYP/6-31G(d) Freq\\
 CID_123726187_JID_225_neutraal\\0,1\C,1.0881369235,-0.0161118059,0.113
 7556694\C,0.6004387471,1.441275858,0.041207048\C,1.0497250539,2.108873
 9967,-1.2685910167\C,-0.899544368,1.5015984322,0.1699709135\C,-1.60709
 48514,1.9123568883,1.2301184008\C,-3.1141381948,1.9278434862,1.2225608
 169\C,-0.9409494049,2.3849924727,2.5115900617\N,-0.1581435581,1.338464
 1292,3.1763385344\C,0.5625463724,1.877668389,4.3182429738\C,-0.9864134

 Normal termination of Gaussian 16 at Tue Dec  8 10:26:57 2020.

 ----------------------------------------------------------------------
 # B3LYP/6-311++G(d,p) empiricaldispersion=gd3bj scf=xqc pop=npa geom=c
 heck
 ----------------------------------------------------------------------

 --------------------------------------
 CID_123726187_JID_225_Energie_neutraal
 --------------------------------------
 Structure from the checkpoint file:  "JID_225.chk"
 Charge =  0 Multiplicity = 1

 SCF Done:  E(RB3LYP) =  -409.288450540     A.U. after   13 cycles
 Normal termination of Gaussian 16 at Tue Dec  8 10:29:39 2020.

 ----------------------------------------------------------------------
 # B3LYP/6-311++G(d,p) empiricaldispersion=gd3bj scf=xqc pop=npa geom=c
 heck
 ----------------------------------------------------------------------

 ------------------------------------
 CID_123726187_JID_225_Energie_kation
 ------------------------------------
 Structure from the checkpoint file:  "JID_225.chk"
 Charge =  1 Multiplicity = 2

 SCF Done:  E(UB3LYP) =  -408.995304573     A.U. after   21 cycles
 Normal termination of Gaussian 16 at Tue Dec  8 10:37:03 2020.
 Gaussian 16:  ES64L-G16RevA.03 25-Dec-2016

 -----------------------------------
 CID_123726187_JID_225_Energie_anion
 -----------------------------------
 Structure from the checkpoint file:  "JID_225.chk"
 Charge = -1 Multiplicity = 2

                         Standard orientation:
 ---------------------------------------------------------------------
 Center     Atomic      Atomic             Coordinates (Angstroms)
 Number     Number       Type             X           Y           Z
 ---------------------------------------------------------------------
      1          6           0       -1.817695   -1.337400    1.170244
      2          6           0       -1.736334   -0.516146   -0.128223
      3          6           0       -3.117414   -0.396043   -0.792535
      4          6           0       -1.169676    0.852178    0.148823
      5          6           0        0.054067    1.301049   -0.158149
      6          6           0        0.492384    2.704480    0.173114
      7          6           0        1.083467    0.427049   -0.855117
      8          7           0        1.482441   -0.740328   -0.062685
      9          6           0        2.362686   -1.608807   -0.827535
     10          6           0        2.091313   -0.353998    1.201311
     11          1           0       -2.430751   -0.825038    1.922670
     12          1           0       -0.816660   -1.490090    1.582764
     13          1           0       -2.269254   -2.319336    0.982377
     14          1           0       -1.064145   -1.050541   -0.807755
     15          1           0       -3.822849    0.129511   -0.135887
     16          1           0       -3.059201    0.161845   -1.733879
     17          1           0       -3.536637   -1.386227   -1.006661
     18          1           0       -1.850290    1.532927    0.666062
     19          1           0        1.385463    2.700885    0.813549
     20          1           0        0.765596    3.260824   -0.734395
     21          1           0       -0.294870    3.264168    0.687838
     22          1           0        0.675656    0.050172   -1.801791
     23          1           0        1.966236    1.043693   -1.120116
     24          1           0        3.315474   -1.120592   -1.115195
     25          1           0        2.603861   -2.499583   -0.237774
     26          1           0        1.857263   -1.931243   -1.744533
     27          1           0        3.020527    0.236678    1.070251
     28          1           0        1.382206    0.241843    1.782158
     29          1           0        2.338504   -1.251773    1.777516
 ---------------------------------------------------------------------

 SCF Done:  E(UB3LYP) =  -409.271137061     A.U. after   32 cycles

 The electronic state is 2-A.
 Alpha  occ. eigenvalues --  -14.20017 -10.08692 -10.07869 -10.07681 -10.06839
 Alpha  occ. eigenvalues --  -10.06761 -10.05931 -10.05538 -10.05495 -10.05078
 Alpha  occ. eigenvalues --   -0.81959  -0.71498  -0.67307  -0.60044  -0.59323
 Alpha  occ. eigenvalues --   -0.57863  -0.57379  -0.49516  -0.47253  -0.42015
 Alpha  occ. eigenvalues --   -0.37921  -0.36980  -0.35872  -0.33871  -0.32250
 Alpha  occ. eigenvalues --   -0.31744  -0.30825  -0.30005  -0.29438  -0.28339
 Alpha  occ. eigenvalues --   -0.28127  -0.27033  -0.26182  -0.25729  -0.24239
 Alpha  occ. eigenvalues --   -0.23736  -0.22720  -0.21221  -0.13530  -0.11437
 Alpha  occ. eigenvalues --    0.04706
 Alpha virt. eigenvalues --    0.07177   0.07215   0.07786   0.09175   0.09479
 Alpha virt. eigenvalues --    0.09750   0.10097   0.10223   0.11428   0.11954
 Alpha virt. eigenvalues --    0.12214   0.12488   0.13048   0.13190   0.13685

  Beta  occ. eigenvalues --  -14.20008 -10.08671 -10.07832 -10.07647 -10.06836
  Beta  occ. eigenvalues --  -10.06755 -10.05899 -10.05513 -10.05486 -10.05062
  Beta  occ. eigenvalues --   -0.81935  -0.71480  -0.67281  -0.59988  -0.59269
  Beta  occ. eigenvalues --   -0.57819  -0.57338  -0.49437  -0.47200  -0.41975
  Beta  occ. eigenvalues --   -0.37886  -0.36933  -0.35841  -0.33836  -0.32204
  Beta  occ. eigenvalues --   -0.31713  -0.30791  -0.29973  -0.29401  -0.28302
  Beta  occ. eigenvalues --   -0.28104  -0.26998  -0.26146  -0.25691  -0.24212
  Beta  occ. eigenvalues --   -0.23711  -0.22689  -0.21194  -0.13512  -0.11381
  Beta virt. eigenvalues --    0.06822   0.07835   0.08056   0.08354   0.09687
  Beta virt. eigenvalues --    0.09884   0.10325   0.10555   0.10815   0.11676
  Beta virt. eigenvalues --    0.12411   0.12539   0.12802   0.13382   0.13490

 Mulliken charges and spin densities:
               1          2
     1  C    0.388202  -1.040891
     2  C   -0.830844   1.269035
     3  C   -0.037356  -0.639766
     4  C    0.095140  -0.475171
     5  C   -0.765197   1.580572
     6  C    1.862262  -2.585464
     7  C   -0.444600  -0.470960
     8  N   -0.085905   0.286423
     9  C    0.799664  -1.137320
    10  C    0.623020  -1.094492
    11  H   -0.043516   0.170809
    12  H   -0.031189   0.173756
    13  H   -0.139202   0.264478
    14  H    0.232152  -0.037116
    15  H   -0.074500   0.206713
    16  H   -0.133983   0.269300
    17  H   -0.154527   0.295343
    18  H   -0.099404   0.266601
    19  H   -0.203550   0.359733
    20  H   -0.264391   0.413094
    21  H   -0.211518   0.344622
    22  H   -0.266054   0.443818
    23  H    0.007819   0.118215
    24  H   -0.238245   0.346450
    25  H   -0.250341   0.384384
    26  H   -0.346794   0.486385
    27  H   -0.271597   0.398176
    28  H   -0.016702   0.161851
    29  H   -0.098843   0.241422
 Sum of Mulliken charges =  -1.00000   1.00000

 Dipole moment (field-independent basis, Debye):
    X=             -1.8935    Y=              0.0812    Z=              0.8593  Tot=              2.0810
 Quadrupole moment (field-independent basis, Debye-Ang):
   XX=           -123.8000   YY=           -115.4048   ZZ=           -102.6521
   XY=              0.8912   XZ=             -0.8691   YZ=             -0.8931

 Summary of Natural Population Analysis:

                                       Natural Population
                Natural  -----------------------------------------------
    Atom  No    Charge         Core      Valence    Rydberg      Total
 -----------------------------------------------------------------------
      C    1   -0.27689      0.99964     2.27211    0.00515     3.27689
      C    2   -0.13431      0.99960     2.12323    0.01148     3.13431
      C    3   -0.27830      0.99965     2.27399    0.00466     3.27830
      C    4   -0.08205      0.99943     2.07174    0.01088     3.08205
      C    5   -0.01653      0.99948     2.00557    0.01148     3.01653
      C    6   -0.29347      0.99962     2.28766    0.00620     3.29347
      C    7   -0.09880      0.99956     2.08664    0.01261     3.09880
      N    8   -0.28072      0.99974     2.76789    0.01310     3.78072
      C    9   -0.17557      0.99964     2.16690    0.00903     3.17557
      C   10   -0.17955      0.99964     2.17060    0.00931     3.17955
      H   11    0.09190      0.00000     0.40700    0.00110     0.40810
      H   12    0.10579      0.00000     0.39269    0.00152     0.39421
      H   13    0.09494      0.00000     0.40394    0.00112     0.40506
      H   14    0.10262      0.00000     0.39474    0.00264     0.39738
      H   15    0.09352      0.00000     0.40531    0.00117     0.40648
      H   16    0.10001      0.00000     0.39879    0.00120     0.39999
      H   17    0.09705      0.00000     0.40185    0.00109     0.40295
      H   18    0.09050      0.00000     0.40842    0.00108     0.40950
      H   19    0.10194      0.00000     0.39673    0.00133     0.39806
      H   20    0.10174      0.00000     0.39698    0.00128     0.39826
      H   21    0.10106      0.00000     0.39790    0.00103     0.39894
      H   22    0.10250      0.00000     0.39581    0.00169     0.39750
      H   23    0.08490      0.00000     0.41329    0.00180     0.41510
      H   24    0.08005      0.00000     0.41817    0.00178     0.41995
      H   25    0.09611      0.00000     0.40256    0.00133     0.40389
      H   26    0.09573      0.00000     0.40281    0.00146     0.40427
      H   27    0.08044      0.00000     0.41791    0.00165     0.41956
      H   28    0.09948      0.00000     0.39929    0.00123     0.40052
      H   29    0.09591      0.00000     0.40294    0.00114     0.40409
 =======================================================================
   * Total *   -0.00000      9.99599    29.88347    0.12054    40.00000

 Normal termination of Gaussian 16 at Tue Dec  8 10:49:28 2020.
