 Gaussian 16, Revision A.03,

 -----------------------------------------------------------
 # opt freq B3LYP/6-31G(d) empiricaldispersion=gd3bj scf=xqc
 -----------------------------------------------------------

 ------------------------------
 CID_84726303_JID_7379_neutraal
 ------------------------------
 Symbolic Z-matrix:
 Charge =  0 Multiplicity = 1

 SCF Done:  E(RB3LYP) =  -725.270160875     A.U. after   15 cycles
 SCF Done:  E(RB3LYP) =  -725.279490225     A.U. after   13 cycles
 SCF Done:  E(RB3LYP) =  -725.279867480     A.U. after   13 cycles
 SCF Done:  E(RB3LYP) =  -725.281158619     A.U. after   12 cycles
 SCF Done:  E(RB3LYP) =  -725.281390542     A.U. after   12 cycles
 SCF Done:  E(RB3LYP) =  -725.281435171     A.U. after   11 cycles
 SCF Done:  E(RB3LYP) =  -725.281446884     A.U. after   10 cycles
 SCF Done:  E(RB3LYP) =  -725.281449358     A.U. after    8 cycles
 SCF Done:  E(RB3LYP) =  -725.281449782     A.U. after    8 cycles
 SCF Done:  E(RB3LYP) =  -725.281449898     A.U. after    7 cycles
 SCF Done:  E(RB3LYP) =  -725.281449948     A.U. after    6 cycles
 Optimization completed.
    -- Stationary point found.
 Normal termination of Gaussian 16 at Mon Dec 14 18:48:08 2020.

 --------------------------------------------------------------------
 #N Geom=AllCheck Guess=TCheck SCRF=Check GenChk RB3LYP/6-31G(d) Freq
 --------------------------------------------------------------------

 Structure from the checkpoint file:  "JID_7379.chk"
 ------------------------------
 CID_84726303_JID_7379_neutraal
 ------------------------------
 Charge =  0 Multiplicity = 1

 SCF Done:  E(RB3LYP) =  -725.281449948     A.U. after    1 cycles

  Exact polarizability: 203.835   2.848 153.679 -30.537  -1.566 118.235
 Approx polarizability: 298.542  12.714 262.624 -63.483  -4.248 181.639

                      1                      2                      3
                      A                      A                      A
 Frequencies --     29.8305                43.4503                58.7069
 Red. masses --      3.5483                 4.3451                 3.9628
 Frc consts  --      0.0019                 0.0048                 0.0080
 IR Inten    --      0.1190                 0.4190                 0.1501

                      4                      5                      6
                      A                      A                      A
 Frequencies --    130.1473               158.0622               171.0620
 Red. masses --      3.4997                 1.4294                 2.9338
 Frc consts  --      0.0349                 0.0210                 0.0506
 IR Inten    --      0.1962                 0.0161                 0.9966

                      7                      8                      9
                      A                      A                      A
 Frequencies --    179.2463               182.1026               233.6607
 Red. masses --      3.5764                 2.4516                 2.2951
 Frc consts  --      0.0677                 0.0479                 0.0738
 IR Inten    --      1.0202                 2.2962                 2.2047

                     10                     11                     12
                      A                      A                      A
 Frequencies --    268.1028               313.7635               326.6013
 Red. masses --      3.9527                 3.1419                 2.8099
 Frc consts  --      0.1674                 0.1822                 0.1766
 IR Inten    --      0.8258                 0.2018                 1.8585

                     13                     14                     15
                      A                      A                      A
 Frequencies --    370.0741               385.8331               433.6893
 Red. masses --      2.1192                 1.9930                 2.7169
 Frc consts  --      0.1710                 0.1748                 0.3011
 IR Inten    --      1.1239                 1.4390                 2.2164

                     16                     17                     18
                      A                      A                      A
 Frequencies --    443.6685               481.8723               509.0487
 Red. masses --      3.0833                 3.0393                 2.7505
 Frc consts  --      0.3576                 0.4158                 0.4199
 IR Inten    --      5.3008                 2.8587                10.9951

                     19                     20                     21
                      A                      A                      A
 Frequencies --    539.3086               546.8454               593.4358
 Red. masses --      4.1669                 4.7281                 3.7262
 Frc consts  --      0.7141                 0.8330                 0.7732
 IR Inten    --      7.0943                 5.5385                 2.0268

                     22                     23                     24
                      A                      A                      A
 Frequencies --    595.1698               638.9188               676.4639
 Red. masses --      3.9558                 7.3072                 3.4433
 Frc consts  --      0.8256                 1.7575                 0.9284
 IR Inten    --      5.7583                 1.3858                22.8243

                     25                     26                     27
                      A                      A                      A
 Frequencies --    741.0098               749.9964               755.6506
 Red. masses --      3.5823                 2.1233                 3.3890
 Frc consts  --      1.1589                 0.7037                 1.1402
 IR Inten    --      8.1994                 7.0009                10.9200

                     28                     29                     30
                      A                      A                      A
 Frequencies --    778.4813               797.6259               820.7290
 Red. masses --      1.9706                 1.9462                 1.1821
 Frc consts  --      0.7036                 0.7295                 0.4691
 IR Inten    --     22.6007                23.4141                22.7402

                     31                     32                     33
                      A                      A                      A
 Frequencies --    829.5394               868.2810               869.3026
 Red. masses --      3.1532                 4.0925                 2.5979
 Frc consts  --      1.2784                 1.8179                 1.1567
 IR Inten    --      8.3244                 2.6372                 0.2033

                     34                     35                     36
                      A                      A                      A
 Frequencies --    881.2620               902.9527               954.3728
 Red. masses --      2.1285                 1.8195                 1.3757
 Frc consts  --      0.9739                 0.8740                 0.7383
 IR Inten    --     15.1131                 1.2067                 0.3756

                     37                     38                     39
                      A                      A                      A
 Frequencies --    954.6211               976.1265               991.6891
 Red. masses --      1.7293                 2.4019                 2.4063
 Frc consts  --      0.9285                 1.3484                 1.3943
 IR Inten    --      0.8410                 4.1909                 7.2460

                     40                     41                     42
                      A                      A                      A
 Frequencies --    995.8065              1034.7258              1053.3634
 Red. masses --      1.9346                 3.3990                 2.2288
 Frc consts  --      1.1303                 2.1441                 1.4571
 IR Inten    --      2.6975                 6.8569                19.9662

                     43                     44                     45
                      A                      A                      A
 Frequencies --   1076.5389              1078.7762              1094.5989
 Red. masses --      1.6400                 1.5295                 1.5241
 Frc consts  --      1.1198                 1.0488                 1.0759
 IR Inten    --      1.0943                 4.0068                 0.4967

                     46                     47                     48
                      A                      A                      A
 Frequencies --   1106.2238              1115.0125              1147.9897
 Red. masses --      2.4451                 2.0032                 2.3610
 Frc consts  --      1.7629                 1.4673                 1.8332
 IR Inten    --      4.2907                 3.7810                 9.2322

                     49                     50                     51
                      A                      A                      A
 Frequencies --   1161.5844              1181.3296              1204.9939
 Red. masses --      1.7476                 1.7217                 1.3070
 Frc consts  --      1.3893                 1.4156                 1.1181
 IR Inten    --      1.1562                 4.6705                 3.6728

                     52                     53                     54
                      A                      A                      A
 Frequencies --   1210.7246              1252.3034              1254.9402
 Red. masses --      1.2295                 1.4668                 7.1626
 Frc consts  --      1.0618                 1.3553                 6.6461
 IR Inten    --      2.1844                 7.0115                54.8829

                     55                     56                     57
                      A                      A                      A
 Frequencies --   1279.8224              1298.8093              1316.5321
 Red. masses --      2.3694                 1.2530                 2.2016
 Frc consts  --      2.2866                 1.2453                 2.2482
 IR Inten    --     11.6743                 9.8669                 9.0783

                     58                     59                     60
                      A                      A                      A
 Frequencies --   1325.7418              1348.2928              1366.5620
 Red. masses --      1.2284                 1.4867                 1.3806
 Frc consts  --      1.2720                 1.5923                 1.5191
 IR Inten    --      0.0429                 4.1255                19.4690

                     61                     62                     63
                      A                      A                      A
 Frequencies --   1375.4186              1394.3525              1396.8207
 Red. masses --      1.5054                 1.5804                 1.7194
 Frc consts  --      1.6779                 1.8104                 1.9765
 IR Inten    --      0.2942                20.0288                 9.8729

                     64                     65                     66
                      A                      A                      A
 Frequencies --   1406.3948              1411.9169              1420.8943
 Red. masses --      2.3816                 1.6703                 1.5496
 Frc consts  --      2.7755                 1.9619                 1.8433
 IR Inten    --      1.3150                 3.7921                18.4325

                     67                     68                     69
                      A                      A                      A
 Frequencies --   1442.7080              1449.6604              1463.5707
 Red. masses --      1.2813                 1.4593                 3.4019
 Frc consts  --      1.5713                 1.8069                 4.2934
 IR Inten    --      2.9644                 3.1576                10.1222

                     70                     71                     72
                      A                      A                      A
 Frequencies --   1494.3627              1499.3508              1502.4134
 Red. masses --      1.0440                 1.2479                 1.2176
 Frc consts  --      1.3736                 1.6529                 1.6194
 IR Inten    --      7.3204                17.8643                 4.5534

                     73                     74                     75
                      A                      A                      A
 Frequencies --   1510.1554              1512.7017              1519.4820
 Red. masses --      1.1584                 1.1054                 1.1166
 Frc consts  --      1.5565                 1.4903                 1.5190
 IR Inten    --     14.7214                 4.4992                14.0797

                     76                     77                     78
                      A                      A                      A
 Frequencies --   1523.6122              1536.2288              1539.9205
 Red. masses --      1.1425                 1.1058                 3.5313
 Frc consts  --      1.5626                 1.5375                 4.9338
 IR Inten    --      0.7198                 4.1227                14.9151

                     79                     80                     81
                      A                      A                      A
 Frequencies --   1592.0491              1601.8755              1674.6161
 Red. masses --      5.5957                 5.9909                 7.0595
 Frc consts  --      8.3564                 9.0573                11.6641
 IR Inten    --     48.8501               128.1939               111.0094

                     82                     83                     84
                      A                      A                      A
 Frequencies --   2896.0131              2907.2715              3014.9371
 Red. masses --      1.0741                 1.0730                 1.0711
 Frc consts  --      5.3076                 5.3435                 5.7364
 IR Inten    --     66.7287               174.0539                11.2020

                     85                     86                     87
                      A                      A                      A
 Frequencies --   3030.3352              3050.5709              3055.4035
 Red. masses --      1.0743                 1.0643                 1.0722
 Frc consts  --      5.8125                 5.8356                 5.8974
 IR Inten    --     66.8633                61.9576                41.6603

                     88                     89                     90
                      A                      A                      A
 Frequencies --   3063.3129              3064.1406              3079.9959
 Red. masses --      1.0361                 1.0943                 1.0873
 Frc consts  --      5.7281                 6.0535                 6.0770
 IR Inten    --      9.0078                49.7958                46.9250

                     91                     92                     93
                      A                      A                      A
 Frequencies --   3087.3815              3091.4443              3119.4878
 Red. masses --      1.0927                 1.0982                 1.0998
 Frc consts  --      6.1369                 6.1836                 6.3056
 IR Inten    --      6.6417                37.5800                 5.2619

                     94                     95                     96
                      A                      A                      A
 Frequencies --   3126.2207              3158.7124              3175.1350
 Red. masses --      1.0956                 1.1036                 1.0899
 Frc consts  --      6.3088                 6.4877                 6.4741
 IR Inten    --     25.9882                13.6774                29.0659

                     97                     98                     99
                      A                      A                      A
 Frequencies --   3230.1836              3287.7960              3509.4777
 Red. masses --      1.0931                 1.0973                 1.0747
 Frc consts  --      6.7199                 6.9886                 7.7987
 IR Inten    --      7.6479                 0.4519                 1.2150

 - Thermochemistry -
 -------------------
 Temperature   298.150 Kelvin.  Pressure   1.00000 Atm.
 Atom     1 has atomic number  6 and mass  12.00000

 Molecular mass:   230.15315 amu.
 Principal axes and moments of inertia in atomic units:
                           1         2         3
     Eigenvalues --  1995.995515637.892935996.72046
           X            0.99985  -0.01664  -0.00415
           Y            0.01665   0.99986   0.00342
           Z            0.00409  -0.00349   0.99999
 This molecule is an asymmetric top.
 Rotational symmetry number  1.
 Warning -- assumption of classical behavior for rotation
           may cause significant error
 Rotational temperatures (Kelvin)      0.04339     0.01536     0.01444
 Rotational constants (GHZ):           0.90418     0.32011     0.30095
 Zero-point vibrational energy     797321.2 (Joules/Mol)
                                  190.56435 (Kcal/Mol)
 Warning -- explicit consideration of  22 degrees of freedom as
           vibrations may cause significant error
 Vibrational temperatures:     42.92    62.52    84.47   187.25   227.42
          (Kelvin)            246.12   257.90   262.00   336.19   385.74
                              451.44   469.91   532.45   555.13   623.98
                              638.34   693.31   732.41   775.94   786.79
                              853.82   856.32   919.26   973.28  1066.15
                             1079.08  1087.21  1120.06  1147.61  1180.85
                             1193.52  1249.26  1250.73  1267.94  1299.15
                             1373.13  1373.49  1404.43  1426.82  1432.74
                             1488.74  1515.56  1548.90  1552.12  1574.88
                             1591.61  1604.25  1651.70  1671.26  1699.67
                             1733.72  1741.96  1801.79  1805.58  1841.38
                             1868.70  1894.20  1907.45  1939.89  1966.18
                             1978.92  2006.16  2009.71  2023.49  2031.43
                             2044.35  2075.74  2085.74  2105.75  2150.05
                             2157.23  2161.64  2172.78  2176.44  2186.20
                             2192.14  2210.29  2215.60  2290.60  2304.74
                             2409.40  4166.72  4182.92  4337.82  4359.98
                             4389.09  4396.04  4407.42  4408.61  4431.43
                             4442.05  4447.90  4488.25  4497.93  4544.68
                             4568.31  4647.51  4730.41  5049.36

 Zero-point correction=                           0.303684 (Hartree/Particle)
 Thermal correction to Energy=                    0.318072
 Thermal correction to Enthalpy=                  0.319017
 Thermal correction to Gibbs Free Energy=         0.261706
 Sum of electronic and zero-point Energies=           -724.977766
 Sum of electronic and thermal Energies=              -724.963378
 Sum of electronic and thermal Enthalpies=            -724.962433
 Sum of electronic and thermal Free Energies=         -725.019744

                     E (Thermal)             CV                S
                      KCal/Mol        Cal/Mol-Kelvin    Cal/Mol-Kelvin
 Total                  199.593             57.625            120.620
 Electronic               0.000              0.000              0.000
 Translational            0.889              2.981             42.203
 Rotational               0.889              2.981             32.578
 Vibrational            197.816             51.664             45.838
 Vibration     1          0.594              1.984              5.841
 Vibration     2          0.595              1.980              5.095
 Vibration     3          0.596              1.974              4.500
 Vibration     4          0.612              1.923              2.944
 Vibration     5          0.621              1.894              2.573
 Vibration     6          0.626              1.878              2.424
 Vibration     7          0.629              1.868              2.336
 Vibration     8          0.630              1.864              2.307
 Vibration     9          0.654              1.789              1.851
 Vibration    10          0.673              1.732              1.608
 Vibration    11          0.702              1.647              1.342
 Vibration    12          0.710              1.622              1.277
 Vibration    13          0.742              1.534              1.079
 Vibration    14          0.755              1.500              1.016
 Vibration    15          0.794              1.397              0.847
 Vibration    16          0.803              1.375              0.815
 Vibration    17          0.838              1.290              0.705
 Vibration    18          0.864              1.230              0.636
 Vibration    19          0.894              1.163              0.567
 Vibration    20          0.902              1.147              0.551
 Vibration    21          0.951              1.046              0.461
 Vibration    22          0.953              1.042              0.458

 Optimization completed.
    -- Stationary point found.
 Normal termination of Gaussian 16 at Mon Dec 14 19:02:33 2020.

 ----------------------------------------------------------------------
 # B3LYP/6-311++G(d,p) empiricaldispersion=gd3bj scf=xqc pop=npa geom=c
 heck
 ----------------------------------------------------------------------

 --------------------------------------
 CID_84726303_JID_7379_Energie_neutraal
 --------------------------------------
 Structure from the checkpoint file:  "JID_7379.chk"
 Charge =  0 Multiplicity = 1

 SCF Done:  E(RB3LYP) =  -725.471253684     A.U. after   16 cycles
 Normal termination of Gaussian 16 at Mon Dec 14 19:09:29 2020.

 ----------------------------------------------------------------------
 # B3LYP/6-311++G(d,p) empiricaldispersion=gd3bj scf=xqc pop=npa geom=c
 heck
 ----------------------------------------------------------------------

 ------------------------------------
 CID_84726303_JID_7379_Energie_kation
 ------------------------------------
 Structure from the checkpoint file:  "JID_7379.chk"
 Charge =  1 Multiplicity = 2

 SCF Done:  E(UB3LYP) =  -725.192962271     A.U. after   25 cycles
 Normal termination of Gaussian 16 at Mon Dec 14 19:24:50 2020.
 Gaussian 16:  ES64L-G16RevA.03 25-Dec-2016

 ----------------------------------------------------------------------
 # B3LYP/6-311++G(d,p) empiricaldispersion=gd3bj scf=xqc pop=npa geom=c
 heck
 ----------------------------------------------------------------------

 -----------------------------------
 CID_84726303_JID_7379_Energie_anion
 -----------------------------------
 Structure from the checkpoint file:  "JID_7379.chk"
 Charge = -1 Multiplicity = 2

                         Standard orientation:
 ---------------------------------------------------------------------
 Center     Atomic      Atomic             Coordinates (Angstroms)
 Number     Number       Type             X           Y           Z
 ---------------------------------------------------------------------
      1          6           0       -2.791469    2.328264    0.285173
      2          6           0       -2.751467    0.838716    0.209119
      3          6           0       -3.723477   -0.030128    0.648730
      4          6           0       -3.529207   -1.428074    0.505134
      5          7           0       -2.455359   -1.977397   -0.029737
      6          6           0       -1.496555   -1.130300   -0.456610
      7          6           0       -0.253470   -1.309704   -1.056053
      8          6           0        0.266675   -0.017290   -1.243675
      9          7           0       -0.583548    0.945023   -0.834904
     10          7           0       -1.643847    0.268367   -0.343813
     11          6           0        1.591598    0.386271   -1.812950
     12          6           0        2.768841    0.579619   -0.817805
     13          6           0        3.432042   -0.726494   -0.327498
     14          6           0        2.708678   -1.392783    0.851233
     15          6           0        2.443819   -0.369818    1.956009
     16          7           0        1.667707    0.731074    1.394539
     17          6           0        2.413223    1.475255    0.382521
     18          1           0       -1.935000    2.700828    0.857585
     19          1           0       -3.719630    2.662901    0.753373
     20          1           0       -2.708222    2.764212   -0.716324
     21          1           0       -4.627779    0.359534    1.101190
     22          1           0       -4.301190   -2.112763    0.851647
     23          1           0        0.200469   -2.254852   -1.310875
     24          1           0        1.897602   -0.346782   -2.569481
     25          1           0        1.442079    1.339246   -2.333611
     26          1           0        3.530822    1.118419   -1.397620
     27          1           0        3.536217   -1.429169   -1.164421
     28          1           0        4.453161   -0.478740   -0.002893
     29          1           0        1.748970   -1.806511    0.530185
     30          1           0        3.316231   -2.219249    1.240682
     31          1           0        1.867164   -0.825353    2.768842
     32          1           0        3.412678   -0.035452    2.383894
     33          1           0        1.365362    1.364838    2.129566
     34          1           0        3.357845    1.893874    0.786475
     35          1           0        1.793158    2.314347    0.049217
 ---------------------------------------------------------------------

 SCF Done:  E(UB3LYP) =  -725.466064132     A.U. after   33 cycles
 SCF Done:  E(UB3LYP) =  -725.466064132     a.u. after    1 cycles

 The electronic state is 2-A.
 Alpha  occ. eigenvalues --  -14.26112 -14.18885 -14.18460 -14.15825 -10.09947
 Alpha  occ. eigenvalues --  -10.08414 -10.08274 -10.07824 -10.06704 -10.06433
 Alpha  occ. eigenvalues --  -10.06318 -10.06028 -10.05731 -10.05354 -10.05318
 Alpha  occ. eigenvalues --  -10.04431 -10.02359  -0.92590  -0.80330  -0.80012
 Alpha  occ. eigenvalues --   -0.73789  -0.68976  -0.66060  -0.64552  -0.62915
 Alpha  occ. eigenvalues --   -0.60133  -0.58150  -0.52850  -0.51269  -0.49804
 Alpha  occ. eigenvalues --   -0.48194  -0.45438  -0.42078  -0.40537  -0.39141
 Alpha  occ. eigenvalues --   -0.36741  -0.35441  -0.34551  -0.34311  -0.33750
 Alpha  occ. eigenvalues --   -0.32547  -0.31534  -0.30400  -0.30042  -0.29485
 Alpha  occ. eigenvalues --   -0.29173  -0.28362  -0.27724  -0.26602  -0.25170
 Alpha  occ. eigenvalues --   -0.24969  -0.23420  -0.22842  -0.21938  -0.20177
 Alpha  occ. eigenvalues --   -0.20143  -0.17928  -0.17624  -0.12649  -0.12449
 Alpha  occ. eigenvalues --   -0.10477  -0.08715   0.04780
 Alpha virt. eigenvalues --    0.06398   0.07754   0.08094   0.08441   0.09267
 Alpha virt. eigenvalues --    0.09665   0.10407   0.10717   0.11077   0.11468
 Alpha virt. eigenvalues --    0.11963   0.12112   0.12868   0.13240   0.13843

  Beta  occ. eigenvalues --  -14.26014 -14.18936 -14.18451 -14.15453 -10.09971
  Beta  occ. eigenvalues --  -10.08408 -10.07828 -10.07810 -10.06521 -10.06345
  Beta  occ. eigenvalues --  -10.06298 -10.06062 -10.05717 -10.05357 -10.05317
  Beta  occ. eigenvalues --  -10.04507 -10.02337  -0.92396  -0.80259  -0.79588
  Beta  occ. eigenvalues --   -0.73370  -0.68889  -0.65956  -0.64445  -0.62765
  Beta  occ. eigenvalues --   -0.59949  -0.58073  -0.52816  -0.51130  -0.49568
  Beta  occ. eigenvalues --   -0.47985  -0.45357  -0.42006  -0.40475  -0.38895
  Beta  occ. eigenvalues --   -0.36579  -0.35266  -0.34268  -0.34202  -0.33421
  Beta  occ. eigenvalues --   -0.32479  -0.31491  -0.30361  -0.29985  -0.29223
  Beta  occ. eigenvalues --   -0.29039  -0.28308  -0.27549  -0.26525  -0.25062
  Beta  occ. eigenvalues --   -0.24853  -0.23108  -0.22468  -0.21391  -0.20114
  Beta  occ. eigenvalues --   -0.20096  -0.17625  -0.16919  -0.12338  -0.12102
  Beta  occ. eigenvalues --   -0.10178  -0.07970
  Beta virt. eigenvalues --    0.06793   0.07762   0.08346   0.08573   0.09319
  Beta virt. eigenvalues --    0.09759   0.10071   0.10578   0.10801   0.11232
  Beta virt. eigenvalues --    0.11533   0.12063   0.12228   0.12842   0.13362

 Mulliken charges and spin densities:
               1          2
     1  C   -0.416763  -0.233799
     2  C    0.500580   0.331945
     3  C   -0.529047   0.032093
     4  C   -0.055255   0.122548
     5  N   -0.111768   0.158585
     6  C   -0.390601  -0.051969
     7  C    0.051733  -0.072638
     8  C    0.137999  -0.101164
     9  N    0.253877   0.004138
    10  N   -0.036055   0.032016
    11  C   -0.567075  -0.340733
    12  C    0.237568   0.325578
    13  C    0.296128  -0.919984
    14  C   -0.567912   0.331607
    15  C    0.134167  -0.490565
    16  N   -0.147721   0.057122
    17  C   -0.362415  -0.308673
    18  H    0.164204  -0.006606
    19  H    0.114141   0.012355
    20  H    0.070120   0.106496
    21  H    0.101280   0.019491
    22  H    0.136385  -0.013430
    23  H    0.121689   0.014300
    24  H    0.048765   0.116361
    25  H    0.085088   0.076678
    26  H   -0.450598   0.654810
    27  H   -0.121408   0.257631
    28  H   -0.035622   0.169069
    29  H    0.185542  -0.025982
    30  H    0.024921   0.127581
    31  H    0.105851   0.038256
    32  H   -0.050102   0.138610
    33  H    0.208537   0.037929
    34  H   -0.224082   0.319420
    35  H    0.087847   0.080926
 Sum of Mulliken charges =  -1.00000   1.00000

 Dipole moment (field-independent basis, Debye):
    X=             -1.1498    Y=              1.2755    Z=              2.4279  Tot=              2.9738
 Quadrupole moment (field-independent basis, Debye-Ang):
   XX=           -163.5352   YY=           -130.4298   ZZ=           -123.1066
   XY=            -12.0967   XZ=              1.1414   YZ=              3.5232

 Summary of Natural Population Analysis:

                                       Natural Population
                Natural  -----------------------------------------------
    Atom  No    Charge         Core      Valence    Rydberg      Total
 -----------------------------------------------------------------------
      C    1   -0.30444      0.99965     2.29998    0.00481     3.30444
      C    2    0.19731      0.99954     1.79311    0.01004     2.80269
      C    3   -0.18019      0.99952     2.17240    0.00827     3.18019
      C    4    0.06445      0.99963     1.92067    0.01525     2.93555
      N    5   -0.20354      0.99967     2.69175    0.01212     3.70354
      C    6    0.17729      0.99955     1.80785    0.01531     2.82271
      C    7   -0.17858      0.99945     2.17057    0.00856     3.17858
      C    8    0.10512      0.99958     1.87941    0.01589     2.89488
      N    9   -0.19102      0.99970     2.67978    0.01153     3.69102
      N   10   -0.08795      0.99957     2.57764    0.01074     3.58795
      C   11   -0.20334      0.99957     2.19241    0.01136     3.20334
      C   12   -0.10635      0.99958     2.09409    0.01268     3.10635
      C   13   -0.18935      0.99961     2.17949    0.01024     3.18935
      C   14   -0.19994      0.99962     2.19180    0.00852     3.19994
      C   15   -0.08514      0.99963     2.07471    0.01080     3.08514
      N   16   -0.33366      0.99973     2.82316    0.01076     3.83366
      C   17   -0.08869      0.99960     2.07643    0.01266     3.08869
      H   18    0.11141      0.00000     0.38738    0.00121     0.38859
      H   19    0.09655      0.00000     0.40248    0.00097     0.40345
      H   20    0.11225      0.00000     0.38628    0.00147     0.38775
      H   21    0.09777      0.00000     0.40132    0.00090     0.40223
      H   22    0.07758      0.00000     0.42100    0.00142     0.42242
      H   23    0.10481      0.00000     0.39358    0.00160     0.39519
      H   24    0.10055      0.00000     0.39839    0.00107     0.39945
      H   25    0.10581      0.00000     0.39293    0.00126     0.39419
      H   26    0.09808      0.00000     0.39959    0.00233     0.40192
      H   27    0.09750      0.00000     0.40152    0.00098     0.40250
      H   28    0.09379      0.00000     0.40463    0.00158     0.40621
      H   29    0.10798      0.00000     0.39021    0.00180     0.39202
      H   30    0.09232      0.00000     0.40683    0.00085     0.40768
      H   31    0.09313      0.00000     0.40605    0.00081     0.40687
      H   32    0.07056      0.00000     0.42788    0.00156     0.42944
      H   33    0.17022      0.00000     0.32751    0.00227     0.32978
      H   34    0.07594      0.00000     0.42256    0.00150     0.42406
      H   35    0.10175      0.00000     0.39704    0.00121     0.39825
 =======================================================================
   * Total *    0.00000     16.99319    44.79248    0.21433    62.00000

 Normal termination of Gaussian 16 at Mon Dec 14 19:45:17 2020.
