 Gaussian 16, Revision A.03,

 -----------------------------------------------------------
 # opt freq B3LYP/6-31G(d) empiricaldispersion=gd3bj scf=xqc
 -----------------------------------------------------------

 -------------------------------
 CID_80373963_JID_10505_neutraal
 -------------------------------
 Symbolic Z-matrix:
 Charge =  0 Multiplicity = 1

 SCF Done:  E(RB3LYP) =  -1233.18758389     A.U. after   16 cycles
 SCF Done:  E(RB3LYP) =  -1233.19266333     A.U. after   13 cycles
 SCF Done:  E(RB3LYP) =  -1233.19372020     A.U. after   12 cycles
 SCF Done:  E(RB3LYP) =  -1233.19411912     A.U. after   12 cycles
 SCF Done:  E(RB3LYP) =  -1233.19439176     A.U. after   12 cycles
 SCF Done:  E(RB3LYP) =  -1233.19467876     A.U. after   12 cycles
 SCF Done:  E(RB3LYP) =  -1233.19490919     A.U. after   13 cycles
 SCF Done:  E(RB3LYP) =  -1233.19505317     A.U. after   12 cycles
 SCF Done:  E(RB3LYP) =  -1233.19519423     A.U. after   14 cycles
 SCF Done:  E(RB3LYP) =  -1233.19526118     A.U. after   12 cycles
 SCF Done:  E(RB3LYP) =  -1233.19551952     A.U. after   10 cycles
 SCF Done:  E(RB3LYP) =  -1233.19551956     A.U. after    9 cycles
 SCF Done:  E(RB3LYP) =  -1233.19551970     A.U. after    8 cycles
 SCF Done:  E(RB3LYP) =  -1233.19551974     A.U. after    7 cycles
 Optimization completed.
    -- Stationary point found.
 Normal termination of Gaussian 16 at Sun Dec 13 20:57:39 2020.

 --------------------------------------------------------------------
 #N Geom=AllCheck Guess=TCheck SCRF=Check GenChk RB3LYP/6-31G(d) Freq
 --------------------------------------------------------------------

 Structure from the checkpoint file:  "JID_10505.chk"
 -------------------------------
 CID_80373963_JID_10505_neutraal
 -------------------------------
 Charge =  0 Multiplicity = 1

 SCF Done:  E(RB3LYP) =  -1233.19551974     A.U. after    1 cycles

  Exact polarizability: 204.210  -1.468 190.199  11.836 -10.513 142.067
 Approx polarizability: 307.090   7.286 296.762  18.506 -28.222 259.195

                      1                      2                      3
                      A                      A                      A
 Frequencies --     11.7748                30.2349                40.0633
 Red. masses --      5.7650                 5.8975                 7.3661
 Frc consts  --      0.0005                 0.0032                 0.0070
 IR Inten    --      0.0361                 0.2399                 0.1730

                      4                      5                      6
                      A                      A                      A
 Frequencies --     53.5763                72.4229                76.7577
 Red. masses --      4.8068                 5.4317                 6.8435
 Frc consts  --      0.0081                 0.0168                 0.0238
 IR Inten    --      0.2614                 0.6142                 1.2866

                      7                      8                      9
                      A                      A                      A
 Frequencies --     90.2713               151.7168               193.5935
 Red. masses --      6.7859                 6.5352                 6.8166
 Frc consts  --      0.0326                 0.0886                 0.1505
 IR Inten    --      2.1415                 2.5415                 0.2771

                     10                     11                     12
                      A                      A                      A
 Frequencies --    204.0452               234.6554               239.9053
 Red. masses --      5.6887                 5.2544                 6.5151
 Frc consts  --      0.1395                 0.1705                 0.2209
 IR Inten    --      0.1047                 2.6359                10.1852

                     13                     14                     15
                      A                      A                      A
 Frequencies --    270.7667               313.0700               347.5334
 Red. masses --      6.1008                 5.7922                 6.7652
 Frc consts  --      0.2635                 0.3345                 0.4814
 IR Inten    --      2.3561                 1.0168                 3.7198

                     16                     17                     18
                      A                      A                      A
 Frequencies --    416.4434               446.1235               481.4036
 Red. masses --      2.9700                 6.9386                 5.3439
 Frc consts  --      0.3035                 0.8136                 0.7297
 IR Inten    --      0.0325                 3.3485                 6.3795

                     19                     20                     21
                      A                      A                      A
 Frequencies --    524.4836               551.1720               577.2464
 Red. masses --      4.2068                 4.5110                 3.1881
 Frc consts  --      0.6818                 0.8074                 0.6259
 IR Inten    --      9.1423                 9.5905                 1.7399

                     22                     23                     24
                      A                      A                      A
 Frequencies --    594.2700               625.0777               633.5161
 Red. masses --      2.3573                 6.2160                 8.3748
 Frc consts  --      0.4905                 1.4310                 1.9803
 IR Inten    --     15.6565                 0.8764                15.9914

                     25                     26                     27
                      A                      A                      A
 Frequencies --    636.3484               650.8664               694.3816
 Red. masses --      6.3417                 2.1164                 2.4867
 Frc consts  --      1.5130                 0.5282                 0.7064
 IR Inten    --      0.3957                80.5149                50.5517

                     28                     29                     30
                      A                      A                      A
 Frequencies --    706.8336               715.7036               719.7850
 Red. masses --      1.5129                 2.1241                 1.9432
 Frc consts  --      0.4454                 0.6410                 0.5932
 IR Inten    --     55.9031                 6.9398               103.9445

                     31                     32                     33
                      A                      A                      A
 Frequencies --    727.3309               746.1963               770.2533
 Red. masses --      1.6534                 4.2407                 2.8002
 Frc consts  --      0.5153                 1.3912                 0.9788
 IR Inten    --     81.3547                 4.8524                 3.9419

                     34                     35                     36
                      A                      A                      A
 Frequencies --    780.6750               828.3578               842.1059
 Red. masses --      7.1562                 2.9180                 1.9698
 Frc consts  --      2.5696                 1.1797                 0.8230
 IR Inten    --     18.4852                11.1772                23.1179

                     37                     38                     39
                      A                      A                      A
 Frequencies --    861.1888               864.9196               870.7117
 Red. masses --      1.3845                 1.9632                 4.2817
 Frc consts  --      0.6050                 0.8653                 1.9126
 IR Inten    --      0.1598                 5.3736                 3.1741

                     40                     41                     42
                      A                      A                      A
 Frequencies --    891.0289               915.8480               936.9424
 Red. masses --      1.3577                 1.3365                 1.4638
 Frc consts  --      0.6351                 0.6605                 0.7571
 IR Inten    --     10.3445                 0.8924                 1.4036

                     43                     44                     45
                      A                      A                      A
 Frequencies --    970.7442               989.1950               998.0407
 Red. masses --      1.3583                 7.1233                 1.2608
 Frc consts  --      0.7541                 4.1067                 0.7399
 IR Inten    --      0.8707                22.8201                 0.2891

                     46                     47                     48
                      A                      A                      A
 Frequencies --   1023.9078              1042.9942              1060.4751
 Red. masses --      6.1294                 5.4057                 2.2972
 Frc consts  --      3.7861                 3.4647                 1.5221
 IR Inten    --      1.0966                36.1258                 2.2608

                     49                     50                     51
                      A                      A                      A
 Frequencies --   1072.5572              1097.3925              1113.1037
 Red. masses --      1.7297                 2.6791                 1.2648
 Frc consts  --      1.1724                 1.9009                 0.9233
 IR Inten    --     14.5535                18.3812                 0.2279

                     52                     53                     54
                      A                      A                      A
 Frequencies --   1122.3424              1140.3317              1163.9657
 Red. masses --      1.8391                 2.5035                 3.0971
 Frc consts  --      1.3649                 1.9180                 2.4722
 IR Inten    --     15.5966                43.6037                12.1864

                     55                     56                     57
                      A                      A                      A
 Frequencies --   1195.1689              1211.4646              1217.5684
 Red. masses --      1.1008                 2.6694                 1.1353
 Frc consts  --      0.9264                 2.3082                 0.9917
 IR Inten    --      0.0752                 2.2019                 1.5975

                     58                     59                     60
                      A                      A                      A
 Frequencies --   1231.6630              1253.4207              1269.9869
 Red. masses --      2.4448                 2.0269                 1.4365
 Frc consts  --      2.1851                 1.8762                 1.3650
 IR Inten    --      3.4976                33.0367                29.6880

                     61                     62                     63
                      A                      A                      A
 Frequencies --   1309.7036              1316.9022              1350.3968
 Red. masses --      2.1031                 4.8375                 1.5026
 Frc consts  --      2.1254                 4.9428                 1.6144
 IR Inten    --      6.9819                52.8015                 2.4380

                     64                     65                     66
                      A                      A                      A
 Frequencies --   1370.8082              1376.7872              1394.0478
 Red. masses --      2.3210                 3.5084                 1.9737
 Frc consts  --      2.5697                 3.9183                 2.2599
 IR Inten    --      7.3252                93.8099                 2.0614

                     67                     68                     69
                      A                      A                      A
 Frequencies --   1409.1914              1443.3482              1491.0628
 Red. masses --      1.6500                 3.5758                 2.8556
 Frc consts  --      1.9306                 4.3890                 3.7406
 IR Inten    --      4.5009               186.8937                17.8228

                     70                     71                     72
                      A                      A                      A
 Frequencies --   1494.7901              1504.4957              1510.2922
 Red. masses --      2.1773                 5.8615                 2.0322
 Frc consts  --      2.8664                 7.8170                 2.7311
 IR Inten    --     75.2383                10.0569                 6.7740

                     73                     74                     75
                      A                      A                      A
 Frequencies --   1548.4214              1581.5217              1604.6427
 Red. masses --      2.2010                 4.7487                 5.5085
 Frc consts  --      3.1093                 6.9981                 8.3569
 IR Inten    --      7.9222                53.1208                 1.1730

                     76                     77                     78
                      A                      A                      A
 Frequencies --   1650.0133              1667.4474              1754.8780
 Red. masses --      5.5312                 5.5081                 8.1361
 Frc consts  --      8.8724                 9.0232                14.7624
 IR Inten    --      0.3933                 0.9813               416.7976

                     79                     80                     81
                      A                      A                      A
 Frequencies --   3119.7443              3181.9045              3189.2413
 Red. masses --      1.0842                 1.0854                 1.0878
 Frc consts  --      6.2174                 6.4748                 6.5187
 IR Inten    --     24.2719                 3.8912                 2.8969

                     82                     83                     84
                      A                      A                      A
 Frequencies --   3198.9671              3209.3863              3217.0385
 Red. masses --      1.0920                 1.0950                 1.0957
 Frc consts  --      6.5838                 6.6454                 6.6812
 IR Inten    --     25.0309                24.8141                 8.9194

                     85                     86                     87
                      A                      A                      A
 Frequencies --   3222.1641              3241.7022              3270.2273
 Red. masses --      1.0891                 1.0947                 1.0973
 Frc consts  --      6.6619                 6.7778                 6.9139
 IR Inten    --      9.5024                 3.1274                 1.5409

                     88                     89                     90
                      A                      A                      A
 Frequencies --   3285.7766              3573.9411              3645.7483
 Red. masses --      1.0976                 1.0756                 1.0821
 Frc consts  --      6.9815                 8.0946                 8.4739
 IR Inten    --      5.6669                31.1922               112.3486

 - Thermochemistry -
 -------------------
 Temperature   298.150 Kelvin.  Pressure   1.00000 Atm.
 Atom     1 has atomic number  6 and mass  12.00000

 Molecular mass:   284.07318 amu.
 Principal axes and moments of inertia in atomic units:
                           1         2         3
     Eigenvalues --  4793.111227014.615389842.70830
           X            0.99999  -0.00093   0.00359
           Y            0.00093   1.00000   0.00205
           Z           -0.00359  -0.00205   0.99999
 This molecule is an asymmetric top.
 Rotational symmetry number  1.
 Warning -- assumption of classical behavior for rotation
           may cause significant error
 Rotational temperatures (Kelvin)      0.01807     0.01235     0.00880
 Rotational constants (GHZ):           0.37653     0.25728     0.18336
 Zero-point vibrational energy     643881.1 (Joules/Mol)
                                  153.89128 (Kcal/Mol)
 Warning -- explicit consideration of  22 degrees of freedom as
           vibrations may cause significant error
 Vibrational temperatures:     16.94    43.50    57.64    77.08   104.20
          (Kelvin)            110.44   129.88   218.29   278.54   293.58
                              337.62   345.17   389.57   450.44   500.02
                              599.17   641.87   692.63   754.61   793.01
                              830.53   855.02   899.35   911.49   915.56
                              936.45   999.06  1016.98  1029.74  1035.61
                             1046.47  1073.61  1108.22  1123.22  1191.82
                             1211.60  1239.06  1244.43  1252.76  1281.99
                             1317.70  1348.05  1396.68  1423.23  1435.96
                             1473.18  1500.64  1525.79  1543.17  1578.90
                             1601.51  1614.80  1640.68  1674.69  1719.58
                             1743.03  1751.81  1772.09  1803.39  1827.23
                             1884.37  1894.73  1942.92  1972.29  1980.89
                             2005.72  2027.51  2076.66  2145.31  2150.67
                             2164.63  2172.97  2227.83  2275.46  2308.72
                             2374.00  2399.08  2524.88  4488.62  4578.05
                             4588.61  4602.60  4617.59  4628.60  4635.98
                             4664.09  4705.13  4727.50  5142.10  5245.42

 Zero-point correction=                           0.245241 (Hartree/Particle)
 Thermal correction to Energy=                    0.261796
 Thermal correction to Enthalpy=                  0.262740
 Thermal correction to Gibbs Free Energy=         0.197325
 Sum of electronic and zero-point Energies=          -1232.950278
 Sum of electronic and thermal Energies=             -1232.933723
 Sum of electronic and thermal Enthalpies=           -1232.932779
 Sum of electronic and thermal Free Energies=        -1232.998195

                     E (Thermal)             CV                S
                      KCal/Mol        Cal/Mol-Kelvin    Cal/Mol-Kelvin
 Total                  164.280             63.111            137.679
 Electronic               0.000              0.000              0.000
 Translational            0.889              2.981             42.830
 Rotational               0.889              2.981             34.158
 Vibrational            162.502             57.149             60.691
 Vibration     1          0.593              1.987              7.686
 Vibration     2          0.594              1.984              5.814
 Vibration     3          0.594              1.981              5.256
 Vibration     4          0.596              1.976              4.681
 Vibration     5          0.599              1.967              4.086
 Vibration     6          0.599              1.965              3.972
 Vibration     7          0.602              1.956              3.654
 Vibration     8          0.619              1.901              2.651
 Vibration     9          0.635              1.849              2.193
 Vibration    10          0.640              1.834              2.096
 Vibration    11          0.654              1.788              1.843
 Vibration    12          0.657              1.779              1.804
 Vibration    13          0.674              1.727              1.591
 Vibration    14          0.701              1.649              1.346
 Vibration    15          0.725              1.580              1.177
 Vibration    16          0.780              1.435              0.904
 Vibration    17          0.805              1.369              0.808
 Vibration    18          0.838              1.291              0.706
 Vibration    19          0.879              1.196              0.600
 Vibration    20          0.906              1.137              0.542
 Vibration    21          0.934              1.080              0.490
 Vibration    22          0.952              1.044              0.460

 Optimization completed.
    -- Stationary point found.
 Normal termination of Gaussian 16 at Sun Dec 13 21:13:54 2020.

 ----------------------------------------------------------------------
 # B3LYP/6-311++G(d,p) empiricaldispersion=gd3bj scf=xqc pop=npa geom=c
 heck
 ----------------------------------------------------------------------

 ---------------------------------------
 CID_80373963_JID_10505_Energie_neutraal
 ---------------------------------------
 Structure from the checkpoint file:  "JID_10505.chk"
 Charge =  0 Multiplicity = 1

 SCF Done:  E(RB3LYP) =  -1233.44775338     A.U. after   16 cycles
 Normal termination of Gaussian 16 at Sun Dec 13 21:20:07 2020.

 ----------------------------------------------------------------------
 # B3LYP/6-311++G(d,p) empiricaldispersion=gd3bj scf=xqc pop=npa geom=c
 heck
 ----------------------------------------------------------------------

 -------------------------------------
 CID_80373963_JID_10505_Energie_kation
 -------------------------------------
 Structure from the checkpoint file:  "JID_10505.chk"
 Charge =  1 Multiplicity = 2

 SCF Done:  E(UB3LYP) =  -1233.14213842     A.U. after   33 cycles
 SCF Done:  E(UB3LYP) =  -1233.14213842     a.u. after    1 cycles
 Normal termination of Gaussian 16 at Sun Dec 13 21:37:14 2020.
 Gaussian 16:  ES64L-G16RevA.03 25-Dec-2016

 ----------------------------------------------------------------------
 # B3LYP/6-311++G(d,p) empiricaldispersion=gd3bj scf=xqc pop=npa geom=c
 heck
 ----------------------------------------------------------------------

 ------------------------------------
 CID_80373963_JID_10505_Energie_anion
 ------------------------------------
 Structure from the checkpoint file:  "JID_10505.chk"
 Charge = -1 Multiplicity = 2

                         Standard orientation:
 ---------------------------------------------------------------------
 Center     Atomic      Atomic             Coordinates (Angstroms)
 Number     Number       Type             X           Y           Z
 ---------------------------------------------------------------------
      1          6           0        0.407725    4.191671    0.184670
      2          6           0        1.122281    3.437636    1.119333
      3          6           0        1.155579    2.049128    1.016255
      4          6           0        0.473170    1.398330   -0.018901
      5          6           0       -0.241649    2.156652   -0.948919
      6          6           0       -0.272708    3.549082   -0.848734
      7          6           0        0.475441   -0.119619   -0.122001
      8          6           0        1.863928   -0.692548   -0.253578
      9          6           0        3.017191   -0.070923   -0.653043
     10          6           0        4.130910   -0.960970   -0.751860
     11          6           0        3.809423   -2.248351   -0.425628
     12         16           0        2.134992   -2.401624    0.007660
     13          7           0       -0.190221   -0.746226    1.034344
     14          6           0       -1.517779   -0.953118    1.237229
     15          8           0       -1.979303   -1.267747    2.334694
     16          6           0       -2.468021   -0.847727    0.094342
     17          7           0       -2.316941   -0.564974   -1.198205
     18          6           0       -3.585708   -0.651535   -1.681919
     19          7           0       -4.510815   -0.965854   -0.778273
     20          7           0       -3.774952   -1.084929    0.341819
     21          1           0        0.382433    5.274765    0.264436
     22          1           0        1.654906    3.932760    1.926408
     23          1           0        1.723021    1.466118    1.736883
     24          1           0       -0.786109    1.649477   -1.739183
     25          1           0       -0.831906    4.129485   -1.577197
     26          1           0       -0.112727   -0.400213   -0.997522
     27          1           0        3.065724    0.989324   -0.869493
     28          1           0        5.127334   -0.648482   -1.044044
     29          1           0        4.456276   -3.114632   -0.395423
     30          1           0        0.343431   -0.792175    1.896165
     31          1           0       -3.837592   -0.479781   -2.718799
     32          1           0       -4.178448   -1.331043    1.236391
 ---------------------------------------------------------------------

 SCF Done:  E(UB3LYP) =  -1233.45434954     A.U. after   33 cycles
 SCF Done:  E(UB3LYP) =  -1233.45434954     a.u. after    1 cycles

 The electronic state is 2-A.
 Alpha  occ. eigenvalues --  -88.77371 -18.94035 -14.24477 -14.20653 -14.20368
 Alpha  occ. eigenvalues --  -14.16959 -10.12164 -10.11344 -10.10241 -10.09812
 Alpha  occ. eigenvalues --  -10.09314 -10.09039 -10.08073 -10.07917 -10.07905
 Alpha  occ. eigenvalues --  -10.07851 -10.07798 -10.07617 -10.07385 -10.07008
 Alpha  occ. eigenvalues --   -7.85949  -5.82231  -5.81865  -5.81567  -0.94500
 Alpha  occ. eigenvalues --   -0.89617  -0.81017  -0.77604  -0.76187  -0.75675
 Alpha  occ. eigenvalues --   -0.69594  -0.67593  -0.64998  -0.63782  -0.63179
 Alpha  occ. eigenvalues --   -0.57448  -0.53398  -0.51108  -0.49697  -0.49445
 Alpha  occ. eigenvalues --   -0.47427  -0.46528  -0.44112  -0.42142  -0.41138
 Alpha  occ. eigenvalues --   -0.40256  -0.36850  -0.36769  -0.34559  -0.34316
 Alpha  occ. eigenvalues --   -0.34025  -0.32790  -0.32299  -0.31659  -0.30739
 Alpha  occ. eigenvalues --   -0.28926  -0.28872  -0.27937  -0.27406  -0.26687
 Alpha  occ. eigenvalues --   -0.26404  -0.25111  -0.24629  -0.23870  -0.20179
 Alpha  occ. eigenvalues --   -0.17695  -0.16265  -0.16217  -0.15753  -0.15502
 Alpha  occ. eigenvalues --   -0.14054  -0.13753  -0.13028  -0.12386   0.04410
 Alpha virt. eigenvalues --    0.06361   0.06607   0.07202   0.07816   0.08112
 Alpha virt. eigenvalues --    0.08233   0.08555   0.09183   0.10213   0.10621
 Alpha virt. eigenvalues --    0.10883   0.11470   0.12308   0.12774   0.13369

  Beta  occ. eigenvalues --  -88.77365 -18.93707 -14.24172 -14.20592 -14.20150
  Beta  occ. eigenvalues --  -14.16773 -10.11847 -10.11344 -10.10186 -10.09759
  Beta  occ. eigenvalues --  -10.09164 -10.09120 -10.08063 -10.07895 -10.07871
  Beta  occ. eigenvalues --  -10.07847 -10.07775 -10.07617 -10.07382 -10.06979
  Beta  occ. eigenvalues --   -7.85943  -5.82221  -5.81863  -5.81550  -0.94102
  Beta  occ. eigenvalues --   -0.89045  -0.80813  -0.77501  -0.75859  -0.75520
  Beta  occ. eigenvalues --   -0.69150  -0.67477  -0.64953  -0.63713  -0.63107
  Beta  occ. eigenvalues --   -0.57328  -0.52711  -0.51021  -0.49605  -0.49383
  Beta  occ. eigenvalues --   -0.47180  -0.46428  -0.44032  -0.42084  -0.41048
  Beta  occ. eigenvalues --   -0.40040  -0.36730  -0.36673  -0.34383  -0.34140
  Beta  occ. eigenvalues --   -0.33116  -0.32678  -0.32021  -0.31564  -0.30665
  Beta  occ. eigenvalues --   -0.28825  -0.28764  -0.27482  -0.27199  -0.26344
  Beta  occ. eigenvalues --   -0.25833  -0.24928  -0.24533  -0.23447  -0.19844
  Beta  occ. eigenvalues --   -0.16469  -0.16088  -0.15812  -0.15591  -0.15291
  Beta  occ. eigenvalues --   -0.13593  -0.12831  -0.12350  -0.11758
  Beta virt. eigenvalues --    0.06311   0.06712   0.07521   0.07905   0.08163
  Beta virt. eigenvalues --    0.08297   0.08534   0.09141   0.10135   0.10575
  Beta virt. eigenvalues --    0.10658   0.10891   0.11443   0.12292   0.12752

 Mulliken charges and spin densities:
               1          2
     1  C    0.005579  -0.298169
     2  C   -0.256333  -0.074015
     3  C   -0.619532  -0.067989
     4  C    1.357252   0.062953
     5  C   -0.338026   0.334807
     6  C   -0.462999  -0.070495
     7  C   -0.208509  -0.078156
     8  C   -0.476807  -0.324563
     9  C    0.615514   0.407567
    10  C   -0.390840  -0.303500
    11  C    0.052692   0.003160
    12  S   -0.391194  -0.014845
    13  N   -0.209650   0.002181
    14  C   -0.700035   0.172042
    15  O   -0.419220   0.118502
    16  C    0.387353   0.109077
    17  N   -0.241791   0.097102
    18  C    0.084853  -0.047713
    19  N   -0.210861   0.114048
    20  N   -0.150388   0.105634
    21  H    0.020690   0.105567
    22  H    0.009271   0.148797
    23  H    0.111367   0.024361
    24  H    0.177926   0.039554
    25  H    0.067033   0.096192
    26  H    0.241809   0.018855
    27  H    0.123543   0.047278
    28  H    0.034978   0.107187
    29  H    0.058296   0.150920
    30  H    0.282092   0.011505
    31  H    0.130712   0.008488
    32  H    0.315223  -0.006331
 Sum of Mulliken charges =  -1.00000   1.00000

 Dipole moment (field-independent basis, Debye):
    X=              5.3316    Y=              2.0542    Z=             -1.4895  Tot=              5.9046
 Quadrupole moment (field-independent basis, Debye-Ang):
   XX=           -174.8096   YY=           -151.0548   ZZ=           -144.3591
   XY=             -6.3490   XZ=              3.3351   YZ=              1.5054

 Summary of Natural Population Analysis:

                                       Natural Population
                Natural  -----------------------------------------------
    Atom  No    Charge         Core      Valence    Rydberg      Total
 -----------------------------------------------------------------------
      C    1   -0.10411      0.99957     2.09449    0.01005     3.10411
      C    2   -0.10197      0.99957     2.09278    0.00962     3.10197
      C    3   -0.10060      0.99951     2.09084    0.01024     3.10060
      C    4   -0.00807      0.99949     1.99679    0.01178     3.00807
      C    5   -0.09023      0.99951     2.08251    0.00821     3.09023
      C    6   -0.10442      0.99957     2.09481    0.01004     3.10442
      C    7   -0.04622      0.99947     2.03136    0.01538     3.04622
      C    8   -0.07991      0.99948     2.06837    0.01206     3.07991
      C    9   -0.13544      0.99946     2.12742    0.00856     3.13544
      C   10   -0.12952      0.99954     2.11943    0.01055     3.12952
      C   11   -0.19731      0.99955     2.18588    0.01188     3.19731
      S   12    0.21628      4.99941     2.76301    0.02129     7.78372
      N   13   -0.30917      0.99967     2.79897    0.01053     3.80917
      C   14    0.36158      0.99963     1.61883    0.01996     2.63842
      O   15   -0.30875      0.99988     3.30306    0.00580     4.30875
      C   16    0.16983      0.99960     1.81537    0.01520     2.83017
      N   17   -0.25601      0.99970     2.74743    0.00889     3.75601
      C   18    0.05538      0.99972     1.92460    0.02030     2.94462
      N   19   -0.13931      0.99974     2.62601    0.01356     3.63931
      N   20   -0.12875      0.99965     2.61660    0.01250     3.62875
      H   21    0.09689      0.00000     0.40229    0.00082     0.40311
      H   22    0.09754      0.00000     0.40160    0.00087     0.40246
      H   23    0.10147      0.00000     0.39698    0.00155     0.39853
      H   24    0.11167      0.00000     0.38657    0.00176     0.38833
      H   25    0.09824      0.00000     0.40085    0.00091     0.40176
      H   26    0.13397      0.00000     0.36290    0.00313     0.36603
      H   27    0.11232      0.00000     0.38666    0.00102     0.38768
      H   28    0.10208      0.00000     0.39704    0.00088     0.39792
      H   29    0.10570      0.00000     0.39336    0.00094     0.39430
      H   30    0.18883      0.00000     0.30824    0.00293     0.31117
      H   31    0.08407      0.00000     0.41489    0.00104     0.41593
      H   32    0.20394      0.00000     0.29445    0.00160     0.29606
 =======================================================================
   * Total *   -0.00000     23.99173    49.74441    0.26386    74.00000

 Normal termination of Gaussian 16 at Sun Dec 13 21:54:40 2020.
