 Gaussian 16, Revision A.03,

 -----------------------------------------------------------
 # opt freq B3LYP/6-31G(d) empiricaldispersion=gd3bj scf=xqc
 -----------------------------------------------------------

 -----------------------------
 CID_85621661_JID_448_neutraal
 -----------------------------
 Symbolic Z-matrix:
 Charge =  0 Multiplicity = 1

 SCF Done:  E(RB3LYP) =  -463.718571439     A.U. after   14 cycles
 SCF Done:  E(RB3LYP) =  -463.720510214     A.U. after   13 cycles
 SCF Done:  E(RB3LYP) =  -463.720645501     A.U. after   12 cycles
 SCF Done:  E(RB3LYP) =  -463.721433919     A.U. after   12 cycles
 SCF Done:  E(RB3LYP) =  -463.721560319     A.U. after   12 cycles
 SCF Done:  E(RB3LYP) =  -463.721577711     A.U. after   12 cycles
 SCF Done:  E(RB3LYP) =  -463.721623930     A.U. after   11 cycles
 SCF Done:  E(RB3LYP) =  -463.721636553     A.U. after   10 cycles
 SCF Done:  E(RB3LYP) =  -463.721642284     A.U. after   10 cycles
 SCF Done:  E(RB3LYP) =  -463.721647247     A.U. after   10 cycles
 SCF Done:  E(RB3LYP) =  -463.722150762     A.U. after    9 cycles
 SCF Done:  E(RB3LYP) =  -463.722154367     A.U. after    9 cycles
 SCF Done:  E(RB3LYP) =  -463.722158700     A.U. after    8 cycles
 SCF Done:  E(RB3LYP) =  -463.722159558     A.U. after    8 cycles
 SCF Done:  E(RB3LYP) =  -463.722159842     A.U. after    7 cycles
 SCF Done:  E(RB3LYP) =  -463.722159884     A.U. after    7 cycles
 Optimization completed.
    -- Stationary point found.

 1\1\GINC-NODE302\FOpt\RB3LYP\6-31G(d)\C8H14O2\VSC10255\08-Dec-2020\0\\
 # opt freq B3LYP/6-31G(d) empiricaldispersion=gd3bj scf=xqc\\CID_85621
 661_JID_448_neutraal\\0,1\C,0.9634215707,0.2771910106,-0.3653809941\C,
 0.7617012585,-0.8607644528,-1.3631691769\O,1.6084363481,-1.9816828129,
 -1.1387408379\C,2.9967058004,-1.7919809788,-1.3625428259\C,3.365103189
 2,-1.5593149206,-2.8276680844\C,3.3667170603,-0.0681710102,-3.30488302
 93\C,4.8994107142,-0.1233763591,-3.2920280047\O,5.7670292376,0.7121699
 618,-3.2661252659\C,4.9077416045,-1.6491665004,-3.1378044344\C,5.90222

 Normal termination of Gaussian 16 at Tue Dec  8 10:44:42 2020.

 --------------------------------------------------------------------
 #N Geom=AllCheck Guess=TCheck SCRF=Check GenChk RB3LYP/6-31G(d) Freq
 --------------------------------------------------------------------

 Structure from the checkpoint file:  "JID_448.chk"
 -----------------------------
 CID_85621661_JID_448_neutraal
 -----------------------------
 Charge =  0 Multiplicity = 1

 SCF Done:  E(RB3LYP) =  -463.722159884     A.U. after    1 cycles

  Exact polarizability: 100.134  -3.867  84.320  -4.094  -0.038  74.618
 Approx polarizability: 126.070   2.486 121.651  -9.838  -5.005 112.113

                      1                      2                      3
                      A                      A                      A
 Frequencies --     41.1335                55.4780                88.4163
 Red. masses --      4.4542                 3.4139                 2.9270
 Frc consts  --      0.0044                 0.0062                 0.0135
 IR Inten    --      4.3678                 0.9142                 0.3794

                      4                      5                      6
                      A                      A                      A
 Frequencies --    146.0070               186.7011               198.7085
 Red. masses --      2.1018                 1.7453                 2.8937
 Frc consts  --      0.0264                 0.0358                 0.0673
 IR Inten    --      1.0814                 2.5335                 3.2788

                      7                      8                      9
                      A                      A                      A
 Frequencies --    208.2809               257.6053               269.5398
 Red. masses --      1.2319                 1.5134                 2.6850
 Frc consts  --      0.0315                 0.0592                 0.1149
 IR Inten    --      0.0743                 0.2792                 0.7263

                     10                     11                     12
                      A                      A                      A
 Frequencies --    337.9135               402.8934               435.3737
 Red. masses --      2.1614                 3.3595                 3.0725
 Frc consts  --      0.1454                 0.3213                 0.3431
 IR Inten    --      4.3301                 0.3037                 8.7121

                     13                     14                     15
                      A                      A                      A
 Frequencies --    470.4657               493.9813               541.5386
 Red. masses --      2.6147                 2.5894                 2.5237
 Frc consts  --      0.3410                 0.3723                 0.4361
 IR Inten    --      2.3027                 2.3757                 0.8491

                     16                     17                     18
                      A                      A                      A
 Frequencies --    700.4956               745.4610               812.6805
 Red. masses --      3.3039                 3.0208                 1.1168
 Frc consts  --      0.9552                 0.9890                 0.4346
 IR Inten    --      1.6312                 0.6998                 4.3660

                     19                     20                     21
                      A                      A                      A
 Frequencies --    831.0534               851.3126               874.2050
 Red. masses --      2.2275                 2.2386                 2.3633
 Frc consts  --      0.9064                 0.9559                 1.0641
 IR Inten    --      8.7366                 7.9110                 2.3616

                     22                     23                     24
                      A                      A                      A
 Frequencies --    902.8424               971.7279               999.7089
 Red. masses --      2.8099                 1.3375                 1.8980
 Frc consts  --      1.3495                 0.7441                 1.1176
 IR Inten    --      3.4740                 4.4266                13.4868

                     25                     26                     27
                      A                      A                      A
 Frequencies --   1023.7280              1046.2539              1091.1542
 Red. masses --      1.5420                 3.0702                 1.9687
 Frc consts  --      0.9521                 1.9801                 1.3811
 IR Inten    --      3.0930                22.2340                38.5143

                     28                     29                     30
                      A                      A                      A
 Frequencies --   1105.2291              1129.8250              1150.0856
 Red. masses --      2.0179                 2.2695                 2.2595
 Frc consts  --      1.4523                 1.7069                 1.7609
 IR Inten    --     10.3201                28.8709                54.3816

                     31                     32                     33
                      A                      A                      A
 Frequencies --   1171.0045              1180.0170              1211.3045
 Red. masses --      2.6218                 2.3824                 1.6735
 Frc consts  --      2.1182                 1.9546                 1.4467
 IR Inten    --      3.5553                82.9402                28.6246

                     34                     35                     36
                      A                      A                      A
 Frequencies --   1221.1750              1251.0187              1281.6008
 Red. masses --      1.5150                 1.6484                 1.4295
 Frc consts  --      1.3312                 1.5199                 1.3834
 IR Inten    --      5.9827                 5.6504                 1.3708

                     37                     38                     39
                      A                      A                      A
 Frequencies --   1312.1860              1342.3893              1354.4468
 Red. masses --      1.3226                 1.2248                 1.4422
 Frc consts  --      1.3418                 1.3004                 1.5589
 IR Inten    --     13.1637                 4.9444                 3.3113

                     40                     41                     42
                      A                      A                      A
 Frequencies --   1378.6985              1412.2742              1434.2795
 Red. masses --      1.2732                 1.2290                 1.2487
 Frc consts  --      1.4259                 1.4443                 1.5134
 IR Inten    --      4.8412                12.4155                 4.8932

                     43                     44                     45
                      A                      A                      A
 Frequencies --   1438.1731              1446.6992              1467.7028
 Red. masses --      1.2546                 1.3337                 1.1047
 Frc consts  --      1.5289                 1.6446                 1.4021
 IR Inten    --     25.2008                10.8536                 6.5774

                     46                     47                     48
                      A                      A                      A
 Frequencies --   1513.5818              1525.1568              1525.5627
 Red. masses --      1.0543                 1.0462                 1.0531
 Frc consts  --      1.4231                 1.4338                 1.4440
 IR Inten    --      1.5262                 8.0529                 4.1537

                     49                     50                     51
                      A                      A                      A
 Frequencies --   1527.5750              1537.1948              1545.9664
 Red. masses --      1.0507                 1.0717                 1.0838
 Frc consts  --      1.4446                 1.4921                 1.5262
 IR Inten    --      3.0454                 1.3373                 1.2961

                     52                     53                     54
                      A                      A                      A
 Frequencies --   1886.9402              2999.3619              3024.8486
 Red. masses --     12.5707                 1.0701                 1.0693
 Frc consts  --     26.3710                 5.6718                 5.7643
 IR Inten    --    263.1449                41.6377                40.3536

                     55                     56                     57
                      A                      A                      A
 Frequencies --   3037.3475              3055.9148              3057.4315
 Red. masses --      1.0828                 1.0357                 1.0354
 Frc consts  --      5.8858                 5.6985                 5.7027
 IR Inten    --     11.0542                13.8729                19.6033

                     58                     59                     60
                      A                      A                      A
 Frequencies --   3073.4500              3094.0272              3097.2372
 Red. masses --      1.0614                 1.0950                 1.0882
 Frc consts  --      5.9073                 6.1761                 6.1505
 IR Inten    --      9.2273                21.6049                22.5597

                     61                     62                     63
                      A                      A                      A
 Frequencies --   3105.2325              3122.4063              3125.3211
 Red. masses --      1.0912                 1.1008                 1.1029
 Frc consts  --      6.1996                 6.3230                 6.3473
 IR Inten    --     24.6496                52.5930                20.8610

                     64                     65                     66
                      A                      A                      A
 Frequencies --   3130.1645              3130.9042              3133.1497
 Red. masses --      1.1035                 1.1026                 1.1035
 Frc consts  --      6.3701                 6.3678                 6.3826
 IR Inten    --      7.4251                35.2686                30.8157

 - Thermochemistry -
 -------------------
 Temperature   298.150 Kelvin.  Pressure   1.00000 Atm.
 Atom     1 has atomic number  6 and mass  12.00000

 Molecular mass:   142.09938 amu.
 Principal axes and moments of inertia in atomic units:
                           1         2         3
     Eigenvalues --   815.626622329.764542729.89444
           X            0.99845  -0.05533   0.00603
           Y            0.05512   0.99800   0.03110
           Z           -0.00774  -0.03072   0.99950
 This molecule is an asymmetric top.
 Rotational symmetry number  1.
 Warning -- assumption of classical behavior for rotation
           may cause significant error
 Rotational temperatures (Kelvin)      0.10619     0.03718     0.03173
 Rotational constants (GHZ):           2.21271     0.77465     0.66110
 Zero-point vibrational energy     553401.7 (Joules/Mol)
                                  132.26619 (Kcal/Mol)
 Warning -- explicit consideration of  15 degrees of freedom as
           vibrations may cause significant error
 Vibrational temperatures:     59.18    79.82   127.21   210.07   268.62
          (Kelvin)            285.90   299.67   370.64   387.81   486.18
                              579.67   626.41   676.90   710.73   779.15
                             1007.86  1072.55  1169.27  1195.70  1224.85
                             1257.79  1298.99  1398.10  1438.36  1472.92
                             1505.33  1569.93  1590.18  1625.57  1654.72
                             1684.81  1697.78  1742.80  1757.00  1799.94
                             1843.94  1887.94  1931.40  1948.75  1983.64
                             2031.95  2063.61  2069.21  2081.48  2111.70
                             2177.71  2194.36  2194.94  2197.84  2211.68
                             2224.30  2714.89  4315.41  4352.08  4370.07
                             4396.78  4398.96  4422.01  4451.62  4456.23
                             4467.74  4492.45  4496.64  4503.61  4504.67
                             4507.90

 Zero-point correction=                           0.210780 (Hartree/Particle)
 Thermal correction to Energy=                    0.221909
 Thermal correction to Enthalpy=                  0.222853
 Thermal correction to Gibbs Free Energy=         0.173336
 Sum of electronic and zero-point Energies=           -463.511380
 Sum of electronic and thermal Energies=              -463.500251
 Sum of electronic and thermal Enthalpies=            -463.499307
 Sum of electronic and thermal Free Energies=         -463.548824

                     E (Thermal)             CV                S
                      KCal/Mol        Cal/Mol-Kelvin    Cal/Mol-Kelvin
 Total                  139.250             40.475            104.217
 Electronic               0.000              0.000              0.000
 Translational            0.889              2.981             40.765
 Rotational               0.889              2.981             30.029
 Vibrational            137.472             34.514             33.423
 Vibration     1          0.594              1.981              5.204
 Vibration     2          0.596              1.975              4.612
 Vibration     3          0.601              1.957              3.695
 Vibration     4          0.617              1.907              2.724
 Vibration     5          0.632              1.858              2.260
 Vibration     6          0.637              1.842              2.145
 Vibration     7          0.642              1.828              2.059
 Vibration     8          0.667              1.750              1.678
 Vibration     9          0.674              1.729              1.599
 Vibration    10          0.718              1.600              1.222
 Vibration    11          0.768              1.464              0.952
 Vibration    12          0.796              1.393              0.841
 Vibration    13          0.827              1.316              0.736
 Vibration    14          0.850              1.263              0.673
 Vibration    15          0.897              1.158              0.562

                           ! Non-Optimized Parameters !

 1\1\GINC-NODE302\Freq\RB3LYP\6-31G(d)\C8H14O2\VSC10255\08-Dec-2020\0\\
 #N Geom=AllCheck Guess=TCheck SCRF=Check GenChk RB3LYP/6-31G(d) Freq\\
 CID_85621661_JID_448_neutraal\\0,1\C,0.9634215707,0.2771910106,-0.3653
 809941\C,0.7617012585,-0.8607644528,-1.3631691769\O,1.6084363481,-1.98
 16828129,-1.1387408379\C,2.9967058004,-1.7919809788,-1.3625428259\C,3.
 3651031892,-1.5593149206,-2.8276680844\C,3.3667170603,-0.0681710102,-3
 .3048830293\C,4.8994107142,-0.1233763591,-3.2920280047\O,5.7670292376,
 0.7121699618,-3.2661252659\C,4.9077416045,-1.6491665004,-3.1378044344\

 Normal termination of Gaussian 16 at Tue Dec  8 10:49:12 2020.

 ----------------------------------------------------------------------
 # B3LYP/6-311++G(d,p) empiricaldispersion=gd3bj scf=xqc pop=npa geom=c
 heck
 ----------------------------------------------------------------------

 -------------------------------------
 CID_85621661_JID_448_Energie_neutraal
 -------------------------------------
 Structure from the checkpoint file:  "JID_448.chk"
 Charge =  0 Multiplicity = 1

 SCF Done:  E(RB3LYP) =  -463.858543313     A.U. after   13 cycles
 Normal termination of Gaussian 16 at Tue Dec  8 10:52:42 2020.

 ----------------------------------------------------------------------
 # B3LYP/6-311++G(d,p) empiricaldispersion=gd3bj scf=xqc pop=npa geom=c
 heck
 ----------------------------------------------------------------------

 -----------------------------------
 CID_85621661_JID_448_Energie_kation
 -----------------------------------
 Structure from the checkpoint file:  "JID_448.chk"
 Charge =  1 Multiplicity = 2

 SCF Done:  E(UB3LYP) =  -463.529720813     A.U. after   24 cycles
 Normal termination of Gaussian 16 at Tue Dec  8 11:00:13 2020.
 Gaussian 16:  ES64L-G16RevA.03 25-Dec-2016

 ----------------------------------
 CID_85621661_JID_448_Energie_anion
 ----------------------------------
 Structure from the checkpoint file:  "JID_448.chk"
 Charge = -1 Multiplicity = 2

                         Standard orientation:
 ---------------------------------------------------------------------
 Center     Atomic      Atomic             Coordinates (Angstroms)
 Number     Number       Type             X           Y           Z
 ---------------------------------------------------------------------
      1          6           0        3.001352   -0.883197    0.886504
      2          6           0        2.717306   -0.111557   -0.400004
      3          8           0        2.012122    1.107317   -0.197892
      4          6           0        0.669338    1.005065    0.249145
      5          6           0       -0.284312    0.395900   -0.778430
      6          6           0       -0.441028   -1.161085   -0.728603
      7          6           0       -1.820729   -0.946681   -0.093922
      8          8           0       -2.564928   -1.644434    0.547075
      9          6           0       -1.812778    0.550407   -0.426421
     10          6           0       -2.309282    1.516470    0.642238
     11          1           0        3.506389   -0.237286    1.612094
     12          1           0        3.649875   -1.740595    0.673583
     13          1           0        2.088016   -1.268571    1.352071
     14          1           0        3.661657    0.193862   -0.861784
     15          1           0        2.194657   -0.751024   -1.126329
     16          1           0        0.603913    0.458705    1.203858
     17          1           0        0.374929    2.039586    0.450515
     18          1           0       -0.021920    0.792309   -1.763127
     19          1           0       -0.503124   -1.632073   -1.716289
     20          1           0        0.265730   -1.729060   -0.116330
     21          1           0       -2.379630    0.701938   -1.355872
     22          1           0       -2.187829    2.558722    0.328179
     23          1           0       -3.372233    1.338517    0.833790
     24          1           0       -1.777184    1.379973    1.589124
 ---------------------------------------------------------------------

 SCF Done:  E(UB3LYP) =  -463.849220934     A.U. after   31 cycles

 The electronic state is 2-A.
 Alpha  occ. eigenvalues --  -19.01636 -18.98246 -10.11570 -10.11346 -10.10585
 Alpha  occ. eigenvalues --  -10.06710 -10.06272 -10.05946 -10.05381 -10.05099
 Alpha  occ. eigenvalues --   -0.92740  -0.91531  -0.73149  -0.66123  -0.62087
 Alpha  occ. eigenvalues --   -0.59564  -0.52103  -0.51472  -0.45922  -0.40520
 Alpha  occ. eigenvalues --   -0.38797  -0.38391  -0.34793  -0.34212  -0.33014
 Alpha  occ. eigenvalues --   -0.31849  -0.31280  -0.29460  -0.29129  -0.27766
 Alpha  occ. eigenvalues --   -0.26801  -0.25742  -0.25568  -0.23300  -0.21525
 Alpha  occ. eigenvalues --   -0.20293  -0.19478  -0.15231  -0.11786   0.04773
 Alpha virt. eigenvalues --    0.06679   0.08038   0.09114   0.09694   0.10166
 Alpha virt. eigenvalues --    0.10243   0.10774   0.11979   0.12691   0.12981
 Alpha virt. eigenvalues --    0.13452   0.13644   0.15374   0.15851   0.16554

  Beta  occ. eigenvalues --  -19.01628 -18.98057 -10.11366 -10.11333 -10.10570
  Beta  occ. eigenvalues --  -10.06697 -10.06248 -10.05957 -10.05392 -10.05049
  Beta  occ. eigenvalues --   -0.92721  -0.91156  -0.72956  -0.66090  -0.62019
  Beta  occ. eigenvalues --   -0.59477  -0.52028  -0.51349  -0.45757  -0.40372
  Beta  occ. eigenvalues --   -0.38735  -0.38266  -0.34641  -0.33947  -0.32956
  Beta  occ. eigenvalues --   -0.31705  -0.31184  -0.29395  -0.29039  -0.27694
  Beta  occ. eigenvalues --   -0.26679  -0.25637  -0.25202  -0.22928  -0.21213
  Beta  occ. eigenvalues --   -0.20213  -0.19411  -0.15191  -0.11628
  Beta virt. eigenvalues --    0.07010   0.08022   0.08681   0.09493   0.10334
  Beta virt. eigenvalues --    0.10761   0.11157   0.11484   0.12298   0.13136
  Beta virt. eigenvalues --    0.13339   0.13819   0.13879   0.15396   0.15903

 Mulliken charges and spin densities:
               1          2
     1  C    0.104958  -0.508860
     2  C   -0.101789  -0.181818
     3  O   -0.123248   0.042677
     4  C    0.173802  -0.853826
     5  C    0.649231  -0.385632
     6  C   -0.244084   0.022820
     7  C    0.946142  -1.132976
     8  O   -0.383950   0.096300
     9  C   -0.981619   1.225607
    10  C    0.765357  -1.408319
    11  H    0.164256  -0.016313
    12  H   -0.239953   0.369810
    13  H    0.060560   0.072585
    14  H   -0.297674   0.458120
    15  H   -0.045697   0.196758
    16  H    0.044075   0.114723
    17  H    0.244130  -0.072363
    18  H   -0.413468   0.643415
    19  H   -0.428614   0.608203
    20  H    0.148187   0.000755
    21  H   -0.623085   0.844344
    22  H   -0.296348   0.449766
    23  H    0.008944   0.140435
    24  H   -0.130114   0.273790
 Sum of Mulliken charges =  -1.00000   1.00000

 Dipole moment (field-independent basis, Debye):
    X=              3.2667    Y=             -0.0860    Z=              3.8080  Tot=              5.0179
 Quadrupole moment (field-independent basis, Debye-Ang):
   XX=           -117.4428   YY=            -98.0187   ZZ=            -93.9311
   XY=              0.3764   XZ=              1.5430   YZ=              2.2149

 Summary of Natural Population Analysis:

                                       Natural Population
                Natural  -----------------------------------------------
    Atom  No    Charge         Core      Valence    Rydberg      Total
 -----------------------------------------------------------------------
      C    1   -0.30340      0.99966     2.29844    0.00530     3.30340
      C    2   -0.01188      0.99959     1.99981    0.01249     3.01188
      O    3   -0.30134      0.99989     3.29160    0.00985     4.30134
      C    4   -0.00867      0.99953     1.99578    0.01336     3.00867
      C    5   -0.12143      0.99960     2.10993    0.01189     3.12143
      C    6   -0.24470      0.99960     2.23613    0.00897     3.24470
      C    7    0.32701      0.99965     1.65028    0.02307     2.67299
      O    8   -0.27446      0.99986     3.26827    0.00633     4.27446
      C    9   -0.15321      0.99957     2.14210    0.01155     3.15321
      C   10   -0.28836      0.99965     2.28111    0.00759     3.28836
      H   11    0.09799      0.00000     0.40108    0.00093     0.40201
      H   12    0.10087      0.00000     0.39811    0.00102     0.39913
      H   13    0.09746      0.00000     0.40159    0.00094     0.40254
      H   14    0.08678      0.00000     0.41184    0.00137     0.41322
      H   15    0.08264      0.00000     0.41572    0.00164     0.41736
      H   16    0.07687      0.00000     0.42175    0.00138     0.42313
      H   17    0.09271      0.00000     0.40572    0.00157     0.40729
      H   18    0.10466      0.00000     0.39200    0.00334     0.39534
      H   19    0.11621      0.00000     0.38076    0.00303     0.38379
      H   20    0.10339      0.00000     0.39543    0.00118     0.39661
      H   21    0.11762      0.00000     0.37645    0.00593     0.38238
      H   22    0.10089      0.00000     0.39780    0.00131     0.39911
      H   23    0.10547      0.00000     0.39371    0.00082     0.39453
      H   24    0.09686      0.00000     0.40223    0.00091     0.40314
 =======================================================================
   * Total *   -0.00000      9.99659    28.86766    0.13575    39.00000

 Normal termination of Gaussian 16 at Tue Dec  8 11:07:18 2020.
