 Gaussian 16, Revision A.03,

 -----------------------------------------------------------
 # opt freq B3LYP/6-31G(d) empiricaldispersion=gd3bj scf=xqc
 -----------------------------------------------------------

 ------------------------------
 CID_62357539_JID_6361_neutraal
 ------------------------------
 Symbolic Z-matrix:
 Charge =  0 Multiplicity = 1

 SCF Done:  E(RB3LYP) =  -659.924828476     A.U. after   13 cycles
 SCF Done:  E(RB3LYP) =  -659.929049161     A.U. after   11 cycles
 SCF Done:  E(RB3LYP) =  -659.929941668     A.U. after   10 cycles
 SCF Done:  E(RB3LYP) =  -659.929965823     A.U. after   10 cycles
 SCF Done:  E(RB3LYP) =  -659.930258672     A.U. after   10 cycles
 SCF Done:  E(RB3LYP) =  -659.930275979     A.U. after    8 cycles
 SCF Done:  E(RB3LYP) =  -659.930287657     A.U. after    9 cycles
 SCF Done:  E(RB3LYP) =  -659.930289223     A.U. after    7 cycles
 SCF Done:  E(RB3LYP) =  -659.930289413     A.U. after    6 cycles
 SCF Done:  E(RB3LYP) =  -659.930289429     A.U. after    6 cycles
 SCF Done:  E(RB3LYP) =  -659.930289373     A.U. after    5 cycles
 Optimization completed.
    -- Stationary point found.
 Normal termination of Gaussian 16 at Thu Dec 10 22:21:36 2020.

 --------------------------------------------------------------------
 #N Geom=AllCheck Guess=TCheck SCRF=Check GenChk RB3LYP/6-31G(d) Freq
 --------------------------------------------------------------------

 Structure from the checkpoint file:  "JID_6361.chk"
 ------------------------------
 CID_62357539_JID_6361_neutraal
 ------------------------------
 Charge =  0 Multiplicity = 1

 SCF Done:  E(RB3LYP) =  -659.930289373     A.U. after    1 cycles

  Exact polarizability: 179.980  -1.160 146.989   0.531   1.317 142.377
 Approx polarizability: 217.420  -1.843 214.675   1.200  -0.622 213.463

                      1                      2                      3
                      A                      A                      A
 Frequencies --     30.0282                44.6044                51.9588
 Red. masses --      3.5579                 3.2802                 2.8574
 Frc consts  --      0.0019                 0.0038                 0.0045
 IR Inten    --      0.0678                 0.0512                 0.0018

                      4                      5                      6
                      A                      A                      A
 Frequencies --     74.1407                96.9029               131.8627
 Red. masses --      2.2928                 2.8662                 3.3465
 Frc consts  --      0.0074                 0.0159                 0.0343
 IR Inten    --      0.0252                 0.6408                 0.3087

                      7                      8                      9
                      A                      A                      A
 Frequencies --    173.4541               190.0800               204.9575
 Red. masses --      3.1141                 2.7297                 2.0887
 Frc consts  --      0.0552                 0.0581                 0.0517
 IR Inten    --      0.6367                 1.1213                 0.1257

                     10                     11                     12
                      A                      A                      A
 Frequencies --    240.9719               249.5059               296.5927
 Red. masses --      2.2382                 1.4132                 2.4085
 Frc consts  --      0.0766                 0.0518                 0.1248
 IR Inten    --      0.5990                 0.4930                 3.2493

                     13                     14                     15
                      A                      A                      A
 Frequencies --    307.1822               322.4157               356.8869
 Red. masses --      2.0303                 2.2390                 2.0223
 Frc consts  --      0.1129                 0.1371                 0.1518
 IR Inten    --      0.0770                 1.3722                 1.5347

                     16                     17                     18
                      A                      A                      A
 Frequencies --    379.2861               397.8583               425.3415
 Red. masses --      1.9065                 1.9462                 1.8635
 Frc consts  --      0.1616                 0.1815                 0.1986
 IR Inten    --      1.4703                 1.4083                 0.3869

                     19                     20                     21
                      A                      A                      A
 Frequencies --    429.8949               432.8039               486.7890
 Red. masses --      2.1912                 2.6953                 2.6537
 Frc consts  --      0.2386                 0.2975                 0.3705
 IR Inten    --      1.8080                 5.5641                 2.4756

                     22                     23                     24
                      A                      A                      A
 Frequencies --    499.3225               501.8654               579.5284
 Red. masses --      2.3648                 3.0099                 2.6515
 Frc consts  --      0.3474                 0.4467                 0.5247
 IR Inten    --      3.0754                 6.2253                 5.4406

                     25                     26                     27
                      A                      A                      A
 Frequencies --    633.3726               657.7951               750.9669
 Red. masses --      1.9538                 2.0100                 2.4381
 Frc consts  --      0.4618                 0.5124                 0.8101
 IR Inten    --      9.0936                 8.1259                 5.2385

                     28                     29                     30
                      A                      A                      A
 Frequencies --    756.3784               763.6945               789.7455
 Red. masses --      2.2372                 2.0746                 1.5567
 Frc consts  --      0.7541                 0.7129                 0.5720
 IR Inten    --      2.9849                 7.6570                54.6816

                     31                     32                     33
                      A                      A                      A
 Frequencies --    834.5105               838.1019               853.1790
 Red. masses --      1.5292                 1.5771                 2.6887
 Frc consts  --      0.6274                 0.6527                 1.1531
 IR Inten    --      1.0600                 0.0820                 0.4072

                     34                     35                     36
                      A                      A                      A
 Frequencies --    881.2598               891.1217               903.5220
 Red. masses --      1.8463                 2.2973                 2.0400
 Frc consts  --      0.8448                 1.0748                 0.9812
 IR Inten    --      4.8425                 7.0975                 1.8984

                     37                     38                     39
                      A                      A                      A
 Frequencies --    919.6982               924.0051               934.5297
 Red. masses --      2.0210                 2.2123                 1.5990
 Frc consts  --      1.0072                 1.1129                 0.8228
 IR Inten    --      1.9983                 0.8472                 4.3077

                     40                     41                     42
                      A                      A                      A
 Frequencies --    971.5668              1020.5270              1023.6735
 Red. masses --      1.9853                 1.8388                 1.7482
 Frc consts  --      1.1041                 1.1283                 1.0794
 IR Inten    --     13.5110                 3.2269                 9.1622

                     43                     44                     45
                      A                      A                      A
 Frequencies --   1032.2064              1033.2010              1038.4433
 Red. masses --      1.6027                 1.9977                 1.5521
 Frc consts  --      1.0061                 1.2565                 0.9862
 IR Inten    --      1.2979                 1.2653                 6.1306

                     46                     47                     48
                      A                      A                      A
 Frequencies --   1048.2472              1065.6588              1074.8639
 Red. masses --      1.8499                 2.0099                 1.8347
 Frc consts  --      1.1977                 1.3448                 1.2489
 IR Inten    --      3.2979                 0.1258                 1.0571

                     49                     50                     51
                      A                      A                      A
 Frequencies --   1084.0464              1090.0109              1110.9736
 Red. masses --      2.2594                 1.8447                 1.7937
 Frc consts  --      1.5644                 1.2913                 1.3044
 IR Inten    --      2.3519                 4.3700                14.4943

                     52                     53                     54
                      A                      A                      A
 Frequencies --   1134.9623              1151.9521              1157.0506
 Red. masses --      1.8344                 1.7660                 2.2015
 Frc consts  --      1.3922                 1.3807                 1.7365
 IR Inten    --     15.5781                 0.2593                36.6428

                     55                     56                     57
                      A                      A                      A
 Frequencies --   1168.1163              1175.1229              1199.3299
 Red. masses --      2.1006                 1.9509                 1.2786
 Frc consts  --      1.6887                 1.5872                 1.0836
 IR Inten    --      9.8899                 0.2407                 7.1728

                     58                     59                     60
                      A                      A                      A
 Frequencies --   1202.7245              1213.8226              1224.8511
 Red. masses --      2.0545                 1.3344                 1.2583
 Frc consts  --      1.7510                 1.1584                 1.1122
 IR Inten    --      7.8527                14.0462                 7.8836

                     61                     62                     63
                      A                      A                      A
 Frequencies --   1230.9799              1270.2059              1289.5398
 Red. masses --      1.2345                 1.3407                 1.2768
 Frc consts  --      1.1022                 1.2744                 1.2509
 IR Inten    --      9.3295                14.1184                 1.1596

                     64                     65                     66
                      A                      A                      A
 Frequencies --   1314.0315              1316.7420              1326.7450
 Red. masses --      1.2159                 1.2136                 1.2642
 Frc consts  --      1.2370                 1.2398                 1.3112
 IR Inten    --      2.1174                 0.7575                 4.4561

                     67                     68                     69
                      A                      A                      A
 Frequencies --   1329.3295              1337.6411              1355.0858
 Red. masses --      1.4367                 1.3493                 1.4425
 Frc consts  --      1.4958                 1.4225                 1.5607
 IR Inten    --      1.7269                 5.1126                13.5675

                     70                     71                     72
                      A                      A                      A
 Frequencies --   1360.4909              1373.3459              1381.0819
 Red. masses --      1.3467                 1.4556                 1.3447
 Frc consts  --      1.4687                 1.6176                 1.5112
 IR Inten    --      9.7466                17.4147                 3.2201

                     73                     74                     75
                      A                      A                      A
 Frequencies --   1384.3268              1388.2907              1391.0033
 Red. masses --      1.3606                 1.4831                 1.3520
 Frc consts  --      1.5362                 1.6841                 1.5413
 IR Inten    --      8.8988                13.9948                30.3993

                     76                     77                     78
                      A                      A                      A
 Frequencies --   1401.3316              1403.2329              1408.7584
 Red. masses --      1.4530                 1.4728                 1.4127
 Frc consts  --      1.6811                 1.7086                 1.6518
 IR Inten    --      2.4630                 2.3417                16.5497

                     79                     80                     81
                      A                      A                      A
 Frequencies --   1420.3156              1426.2865              1434.4646
 Red. masses --      1.4298                 1.3851                 1.4500
 Frc consts  --      1.6994                 1.6601                 1.7579
 IR Inten    --     11.8543                 4.6027                 1.3704

                     82                     83                     84
                      A                      A                      A
 Frequencies --   1441.4381              1446.8559              1453.6760
 Red. masses --      1.2568                 1.4431                 1.4237
 Frc consts  --      1.5385                 1.7800                 1.7725
 IR Inten    --      4.3243                 2.4610                 2.0585

                     85                     86                     87
                      A                      A                      A
 Frequencies --   1500.5683              1504.3498              1506.3619
 Red. masses --      1.2531                 1.0950                 1.0983
 Frc consts  --      1.6624                 1.4601                 1.4683
 IR Inten    --      1.0297                 2.0602                 6.6139

                     88                     89                     90
                      A                      A                      A
 Frequencies --   1512.2257              1515.1109              1516.7847
 Red. masses --      1.0874                 1.0889                 1.0878
 Frc consts  --      1.4651                 1.4728                 1.4746
 IR Inten    --      6.2988                 1.9353                 5.9090

                     91                     92                     93
                      A                      A                      A
 Frequencies --   1518.6836              1520.5266              1530.6792
 Red. masses --      1.0734                 1.1026                 1.1240
 Frc consts  --      1.4587                 1.5019                 1.5517
 IR Inten    --      1.5452                 5.7853                 1.1558

                     94                     95                     96
                      A                      A                      A
 Frequencies --   1531.8339              1535.3830              1540.2888
 Red. masses --      1.0584                 1.0674                 1.0815
 Frc consts  --      1.4633                 1.4825                 1.5117
 IR Inten    --      4.0238                 2.8838                 3.0959

                     97                     98                     99
                      A                      A                      A
 Frequencies --   1541.8864              1548.0266              2908.4891
 Red. masses --      1.0913                 1.0983                 1.0746
 Frc consts  --      1.5286                 1.5507                 5.3558
 IR Inten    --      2.1122                 6.4531                37.1170

                    100                    101                    102
                      A                      A                      A
 Frequencies --   2915.7769              2927.6108              2942.8251
 Red. masses --      1.0733                 1.0731                 1.0718
 Frc consts  --      5.3762                 5.4192                 5.4690
 IR Inten    --    135.0085                39.1542               100.2342

                    103                    104                    105
                      A                      A                      A
 Frequencies --   3012.4448              3013.3414              3023.9456
 Red. masses --      1.0813                 1.0707                 1.0643
 Frc consts  --      5.7816                 5.7284                 5.7340
 IR Inten    --     31.6627                41.8509                29.9446

                    106                    107                    108
                      A                      A                      A
 Frequencies --   3033.5732              3039.5645              3041.2080
 Red. masses --      1.0653                 1.0680                 1.0621
 Frc consts  --      5.7761                 5.8138                 5.7877
 IR Inten    --     21.8438                25.6537                30.7831

                    109                    110                    111
                      A                      A                      A
 Frequencies --   3044.4561              3051.1524              3051.8596
 Red. masses --      1.0388                 1.0650                 1.0641
 Frc consts  --      5.6731                 5.8414                 5.8394
 IR Inten    --     19.8128                20.7965                52.8619

                    112                    113                    114
                      A                      A                      A
 Frequencies --   3058.2176              3061.4565              3068.9356
 Red. masses --      1.0818                 1.0848                 1.0877
 Frc consts  --      5.9614                 5.9902                 6.0357
 IR Inten    --     30.4492                61.1867                47.0655

                    115                    116                    117
                      A                      A                      A
 Frequencies --   3069.3962              3074.3116              3078.7880
 Red. masses --      1.0951                 1.0951                 1.0875
 Frc consts  --      6.0787                 6.0981                 6.0733
 IR Inten    --     30.9106                30.6346                64.2280

                    118                    119                    120
                      A                      A                      A
 Frequencies --   3080.0292              3082.4298              3091.4912
 Red. masses --      1.0915                 1.1039                 1.1033
 Frc consts  --      6.1007                 6.1796                 6.2129
 IR Inten    --     32.2258                40.8017                50.4515

                    121                    122                    123
                      A                      A                      A
 Frequencies --   3092.8287              3099.5854              3103.2663
 Red. masses --      1.1008                 1.0970                 1.0875
 Frc consts  --      6.2037                 6.2096                 6.1707
 IR Inten    --     60.4663                56.1660                49.5155

                    124                    125                    126
                      A                      A                      A
 Frequencies --   3109.6129              3117.7290              3503.0946
 Red. masses --      1.1013                 1.1015                 1.0747
 Frc consts  --      6.2743                 6.3080                 7.7706
 IR Inten    --     49.0859                49.7780                 1.6048

 - Thermochemistry -
 -------------------
 Temperature   298.150 Kelvin.  Pressure   1.00000 Atm.
 Atom     1 has atomic number  6 and mass  12.00000

 Molecular mass:   224.22525 amu.
 Principal axes and moments of inertia in atomic units:
                           1         2         3
     Eigenvalues --  1885.150987212.953427640.78526
           X            0.99998  -0.00626  -0.00197
           Y            0.00631   0.99973   0.02235
           Z            0.00183  -0.02236   0.99975
 This molecule is an asymmetric top.
 Rotational symmetry number  1.
 Warning -- assumption of classical behavior for rotation
           may cause significant error
 Rotational temperatures (Kelvin)      0.04595     0.01201     0.01134
 Rotational constants (GHZ):           0.95735     0.25021     0.23620
 Zero-point vibrational energy    1090771.7 (Joules/Mol)
                                  260.70070 (Kcal/Mol)
 Warning -- explicit consideration of  24 degrees of freedom as
           vibrations may cause significant error
 Vibrational temperatures:     43.20    64.18    74.76   106.67   139.42
          (Kelvin)            189.72   249.56   273.48   294.89   346.70
                              358.98   426.73   441.97   463.88   513.48
                              545.71   572.43   611.97   618.52   622.71
                              700.38   718.41   722.07   833.81   911.28
                              946.42  1080.47  1088.26  1098.79  1136.27
                             1200.67  1205.84  1227.53  1267.94  1282.13
                             1299.97  1323.24  1329.44  1344.58  1397.87
                             1468.31  1472.84  1485.11  1486.55  1494.09
                             1508.19  1533.25  1546.49  1559.70  1568.28
                             1598.44  1632.96  1657.40  1664.74  1680.66
                             1690.74  1725.57  1730.45  1746.42  1762.29
                             1771.11  1827.54  1855.36  1890.60  1894.50
                             1908.89  1912.61  1924.57  1949.67  1957.44
                             1975.94  1987.07  1991.74  1997.44  2001.34
                             2016.20  2018.94  2026.89  2043.52  2052.11
                             2063.87  2073.91  2081.70  2091.52  2158.98
                             2164.42  2167.32  2175.76  2179.91  2182.31
                             2185.05  2187.70  2202.31  2203.97  2209.07
                             2216.13  2218.43  2227.27  4184.67  4195.15
                             4212.18  4234.07  4334.24  4335.53  4350.78
                             4364.64  4373.26  4375.62  4380.29  4389.93
                             4390.95  4400.09  4404.75  4415.51  4416.18
                             4423.25  4429.69  4431.48  4434.93  4447.97
                             4449.89  4459.61  4464.91  4474.04  4485.72
                             5040.17

 Zero-point correction=                           0.415453 (Hartree/Particle)
 Thermal correction to Energy=                    0.431631
 Thermal correction to Enthalpy=                  0.432575
 Thermal correction to Gibbs Free Energy=         0.371364
 Sum of electronic and zero-point Energies=           -659.514836
 Sum of electronic and thermal Energies=              -659.498659
 Sum of electronic and thermal Enthalpies=            -659.497714
 Sum of electronic and thermal Free Energies=         -659.558925

                     E (Thermal)             CV                S
                      KCal/Mol        Cal/Mol-Kelvin    Cal/Mol-Kelvin
 Total                  270.852             64.565            128.829
 Electronic               0.000              0.000              0.000
 Translational            0.889              2.981             42.125
 Rotational               0.889              2.981             33.007
 Vibrational            269.075             58.603             53.696
 Vibration     1          0.594              1.984              5.828
 Vibration     2          0.595              1.980              5.043
 Vibration     3          0.596              1.977              4.741
 Vibration     4          0.599              1.966              4.040
 Vibration     5          0.603              1.951              3.516
 Vibration     6          0.612              1.921              2.919
 Vibration     7          0.627              1.875              2.398
 Vibration     8          0.633              1.854              2.227
 Vibration     9          0.640              1.833              2.088
 Vibration    10          0.658              1.778              1.796
 Vibration    11          0.662              1.764              1.734
 Vibration    12          0.690              1.680              1.436
 Vibration    13          0.697              1.660              1.377
 Vibration    14          0.707              1.631              1.298
 Vibration    15          0.732              1.561              1.136
 Vibration    16          0.749              1.514              1.042
 Vibration    17          0.764              1.475              0.971
 Vibration    18          0.787              1.415              0.874
 Vibration    19          0.791              1.405              0.859
 Vibration    20          0.794              1.399              0.850
 Vibration    21          0.843              1.279              0.692
 Vibration    22          0.855              1.252              0.660
 Vibration    23          0.857              1.246              0.653
 Vibration    24          0.936              1.076              0.486

 Optimization completed.
    -- Stationary point found.
 Normal termination of Gaussian 16 at Thu Dec 10 22:38:42 2020.

 ----------------------------------------------------------------------
 # B3LYP/6-311++G(d,p) empiricaldispersion=gd3bj scf=xqc pop=npa geom=c
 heck
 ----------------------------------------------------------------------

 --------------------------------------
 CID_62357539_JID_6361_Energie_neutraal
 --------------------------------------
 Structure from the checkpoint file:  "JID_6361.chk"
 Charge =  0 Multiplicity = 1

 SCF Done:  E(RB3LYP) =  -660.111603155     A.U. after   13 cycles
 Normal termination of Gaussian 16 at Thu Dec 10 22:46:57 2020.

 ----------------------------------------------------------------------
 # B3LYP/6-311++G(d,p) empiricaldispersion=gd3bj scf=xqc pop=npa geom=c
 heck
 ----------------------------------------------------------------------

 ------------------------------------
 CID_62357539_JID_6361_Energie_kation
 ------------------------------------
 Structure from the checkpoint file:  "JID_6361.chk"
 Charge =  1 Multiplicity = 2

 SCF Done:  E(UB3LYP) =  -659.844774675     A.U. after   21 cycles
 Normal termination of Gaussian 16 at Thu Dec 10 23:07:02 2020.
 Gaussian 16:  ES64L-G16RevA.03 25-Dec-2016

 ----------------------------------------------------------------------
 # B3LYP/6-311++G(d,p) empiricaldispersion=gd3bj scf=xqc pop=npa geom=c
 heck
 ----------------------------------------------------------------------

 -----------------------------------
 CID_62357539_JID_6361_Energie_anion
 -----------------------------------
 Structure from the checkpoint file:  "JID_6361.chk"
 Charge = -1 Multiplicity = 2

                         Standard orientation:
 ---------------------------------------------------------------------
 Center     Atomic      Atomic             Coordinates (Angstroms)
 Number     Number       Type             X           Y           Z
 ---------------------------------------------------------------------
      1          6           0       -3.819979    2.531828   -0.014186
      2          6           0       -3.273099    1.305694   -0.750483
      3          6           0       -3.522601   -0.029866   -0.023215
      4          6           0       -2.827266   -0.128766    1.348046
      5          6           0       -1.308151   -0.261324    1.208522
      6          7           0       -0.975719   -1.416939    0.384163
      7          6           0       -1.556564   -1.363650   -0.950079
      8          6           0       -3.081510   -1.236645   -0.872494
      9          6           0        0.408118   -1.881588    0.426716
     10          6           0        1.441970   -1.225483   -0.510287
     11          6           0        1.664359    0.288358   -0.355648
     12          6           0        2.665458    0.825021   -1.400854
     13          6           0        4.108101    0.393159   -1.097699
     14          6           0        4.481897    0.743641    0.344718
     15          7           0        3.510168    0.143883    1.260292
     16          6           0        2.166332    0.681193    1.043654
     17          1           0       -4.886750    2.412232    0.212451
     18          1           0       -3.707159    3.437419   -0.620630
     19          1           0       -3.298296    2.705217    0.933247
     20          1           0       -3.742970    1.243958   -1.741762
     21          1           0       -2.201170    1.445347   -0.936668
     22          1           0       -4.607598   -0.106294    0.139909
     23          1           0       -3.064882    0.738491    1.974787
     24          1           0       -3.201939   -1.018359    1.869145
     25          1           0       -0.895284    0.687665    0.818156
     26          1           0       -0.861367   -0.411507    2.198345
     27          1           0       -1.292309   -2.291430   -1.472694
     28          1           0       -1.143831   -0.535614   -1.558452
     29          1           0       -3.477794   -2.154745   -0.421391
     30          1           0       -3.495337   -1.162379   -1.886568
     31          1           0        0.747747   -1.805575    1.466038
     32          1           0        0.399623   -2.955428    0.187694
     33          1           0        2.391061   -1.747665   -0.345850
     34          1           0        1.154748   -1.424569   -1.551577
     35          1           0        0.707057    0.796860   -0.521824
     36          1           0        2.371484    0.501043   -2.407297
     37          1           0        2.619792    1.923549   -1.397279
     38          1           0        4.218664   -0.688104   -1.238745
     39          1           0        4.803439    0.882705   -1.790575
     40          1           0        5.477937    0.356441    0.587846
     41          1           0        4.523274    1.847991    0.443510
     42          1           0        3.795021    0.312402    2.222073
     43          1           0        2.137763    1.786723    1.125997
     44          1           0        1.505554    0.285588    1.820679
 ---------------------------------------------------------------------

 SCF Done:  E(UB3LYP) =  -660.098002021     A.U. after   27 cycles

 The electronic state is 2-A.
 Alpha  occ. eigenvalues --  -14.20197 -14.19647 -10.09498 -10.09309 -10.09276
 Alpha  occ. eigenvalues --  -10.09104 -10.08766 -10.07750 -10.07124 -10.06996
 Alpha  occ. eigenvalues --  -10.06959 -10.06722 -10.06711 -10.06677 -10.06538
 Alpha  occ. eigenvalues --  -10.06113  -0.82943  -0.81223  -0.72391  -0.70095
 Alpha  occ. eigenvalues --   -0.66798  -0.65906  -0.65139  -0.61884  -0.56283
 Alpha  occ. eigenvalues --   -0.53904  -0.53447  -0.52830  -0.51003  -0.48703
 Alpha  occ. eigenvalues --   -0.43454  -0.43180  -0.41601  -0.39933  -0.37864
 Alpha  occ. eigenvalues --   -0.37005  -0.36290  -0.35604  -0.34530  -0.34186
 Alpha  occ. eigenvalues --   -0.33772  -0.32322  -0.32024  -0.31078  -0.30450
 Alpha  occ. eigenvalues --   -0.29835  -0.29224  -0.28670  -0.27874  -0.27328
 Alpha  occ. eigenvalues --   -0.26269  -0.26052  -0.25100  -0.24564  -0.23492
 Alpha  occ. eigenvalues --   -0.22651  -0.21926  -0.21640  -0.21335  -0.21036
 Alpha  occ. eigenvalues --   -0.20646  -0.13017  -0.10998   0.04136
 Alpha virt. eigenvalues --    0.05790   0.06684   0.06844   0.07526   0.07924
 Alpha virt. eigenvalues --    0.08165   0.08998   0.09368   0.09586   0.10041
 Alpha virt. eigenvalues --    0.10401   0.10569   0.11237   0.11856   0.12074

  Beta  occ. eigenvalues --  -14.20195 -14.19622 -10.09488 -10.09302 -10.09263
  Beta  occ. eigenvalues --  -10.09082 -10.08748 -10.07745 -10.07122 -10.06987
  Beta  occ. eigenvalues --  -10.06943 -10.06712 -10.06701 -10.06664 -10.06512
  Beta  occ. eigenvalues --  -10.06107  -0.82933  -0.81189  -0.72370  -0.70072
  Beta  occ. eigenvalues --   -0.66770  -0.65885  -0.65109  -0.61857  -0.56253
  Beta  occ. eigenvalues --   -0.53855  -0.53404  -0.52791  -0.50962  -0.48669
  Beta  occ. eigenvalues --   -0.43414  -0.43143  -0.41534  -0.39900  -0.37843
  Beta  occ. eigenvalues --   -0.36984  -0.36270  -0.35577  -0.34507  -0.34165
  Beta  occ. eigenvalues --   -0.33740  -0.32295  -0.31995  -0.31050  -0.30423
  Beta  occ. eigenvalues --   -0.29805  -0.29198  -0.28641  -0.27853  -0.27293
  Beta  occ. eigenvalues --   -0.26239  -0.26028  -0.25079  -0.24540  -0.23467
  Beta  occ. eigenvalues --   -0.22629  -0.21906  -0.21613  -0.21310  -0.21013
  Beta  occ. eigenvalues --   -0.20618  -0.12964  -0.10982
  Beta virt. eigenvalues --    0.06006   0.06610   0.07046   0.07347   0.08000
  Beta virt. eigenvalues --    0.08299   0.08459   0.09275   0.09589   0.09949
  Beta virt. eigenvalues --    0.10398   0.10588   0.10759   0.11375   0.12029

 Mulliken charges and spin densities:
               1          2
     1  C    0.527448  -1.190560
     2  C   -0.308537   0.054851
     3  C   -0.023124   0.459752
     4  C    0.490758  -1.300144
     5  C   -0.597057   0.365144
     6  N    0.153241   0.083291
     7  C   -0.572773   0.286154
     8  C    0.281902  -0.996522
     9  C    0.163489  -0.495117
    10  C   -0.708412   0.329311
    11  C    0.325883   0.500093
    12  C   -0.131266  -0.383524
    13  C   -0.829637   0.449246
    14  C    0.848972  -1.128690
    15  N   -0.391256   0.311186
    16  C    0.425081  -1.291379
    17  H   -0.064666   0.196254
    18  H   -0.160510   0.296821
    19  H   -0.168106   0.307568
    20  H   -0.196677   0.352362
    21  H   -0.244011   0.382861
    22  H   -0.036763   0.243090
    23  H    0.002178   0.154010
    24  H    0.084044   0.056175
    25  H    0.312147  -0.272493
    26  H   -0.036614   0.197375
    27  H   -0.010266   0.173055
    28  H    0.041545   0.094170
    29  H    0.070126   0.071074
    30  H   -0.073253   0.226116
    31  H    0.051350   0.094034
    32  H    0.042021   0.127274
    33  H    0.128079   0.025502
    34  H    0.018521   0.152163
    35  H    0.722690  -0.469932
    36  H   -0.085791   0.211403
    37  H   -0.093416   0.244980
    38  H    0.184068  -0.059889
    39  H   -0.328841   0.495495
    40  H   -0.407403   0.575834
    41  H    0.001099   0.105780
    42  H   -0.130763   0.379057
    43  H   -0.326247   0.455907
    44  H    0.050745   0.130860
 Sum of Mulliken charges =  -1.00000   1.00000

 Dipole moment (field-independent basis, Debye):
    X=             -2.0768    Y=             -3.4642    Z=             -0.8573  Tot=              4.1290
 Quadrupole moment (field-independent basis, Debye-Ang):
   XX=           -201.8918   YY=           -147.4933   ZZ=           -146.3487
   XY=              0.5137   XZ=             -8.0521   YZ=              0.8824

 Summary of Natural Population Analysis:

                                       Natural Population
                Natural  -----------------------------------------------
    Atom  No    Charge         Core      Valence    Rydberg      Total
 -----------------------------------------------------------------------
      C    1   -0.28310      0.99967     2.27924    0.00420     3.28310
      C    2   -0.19306      0.99962     2.18432    0.00912     3.19306
      C    3   -0.10844      0.99959     2.09858    0.01028     3.10844
      C    4   -0.19299      0.99961     2.18380    0.00957     3.19299
      C    5   -0.08396      0.99960     2.07280    0.01156     3.08396
      N    6   -0.28701      0.99971     2.77527    0.01204     3.78701
      C    7   -0.08485      0.99961     2.07439    0.01085     3.08485
      C    8   -0.18985      0.99961     2.18051    0.00973     3.18985
      C    9   -0.07597      0.99961     2.06611    0.01025     3.07597
      C   10   -0.20106      0.99960     2.19313    0.00833     3.20106
      C   11   -0.11921      0.99958     2.10905    0.01058     3.11921
      C   12   -0.18674      0.99961     2.17792    0.00920     3.18674
      C   13   -0.19494      0.99962     2.18717    0.00814     3.19494
      C   14   -0.08579      0.99962     2.07479    0.01138     3.08579
      N   15   -0.34359      0.99974     2.83145    0.01241     3.84359
      C   16   -0.08772      0.99960     2.07544    0.01268     3.08772
      H   17    0.09416      0.00000     0.40463    0.00121     0.40584
      H   18    0.09935      0.00000     0.39973    0.00093     0.40065
      H   19    0.09687      0.00000     0.40197    0.00116     0.40313
      H   20    0.09539      0.00000     0.40339    0.00121     0.40461
      H   21    0.09603      0.00000     0.40210    0.00186     0.40397
      H   22    0.09518      0.00000     0.40317    0.00165     0.40482
      H   23    0.10009      0.00000     0.39904    0.00087     0.39991
      H   24    0.09757      0.00000     0.40100    0.00143     0.40243
      H   25    0.07928      0.00000     0.41822    0.00250     0.42072
      H   26    0.09668      0.00000     0.40184    0.00149     0.40332
      H   27    0.09543      0.00000     0.40351    0.00106     0.40457
      H   28    0.08080      0.00000     0.41748    0.00172     0.41920
      H   29    0.09703      0.00000     0.40169    0.00128     0.40297
      H   30    0.09781      0.00000     0.40122    0.00097     0.40219
      H   31    0.09511      0.00000     0.40366    0.00123     0.40489
      H   32    0.09030      0.00000     0.40868    0.00102     0.40970
      H   33    0.10472      0.00000     0.39367    0.00161     0.39528
      H   34    0.09472      0.00000     0.40406    0.00122     0.40528
      H   35    0.09900      0.00000     0.39825    0.00276     0.40100
      H   36    0.09823      0.00000     0.40078    0.00099     0.40177
      H   37    0.09674      0.00000     0.40191    0.00135     0.40326
      H   38    0.09510      0.00000     0.40359    0.00131     0.40490
      H   39    0.09819      0.00000     0.40084    0.00097     0.40181
      H   40    0.09460      0.00000     0.40415    0.00125     0.40540
      H   41    0.07588      0.00000     0.42225    0.00188     0.42412
      H   42    0.17684      0.00000     0.31986    0.00330     0.32316
      H   43    0.08033      0.00000     0.41786    0.00181     0.41967
      H   44    0.09686      0.00000     0.40160    0.00154     0.40314
 =======================================================================
   * Total *    0.00000     15.99400    46.80411    0.20188    63.00000

 Normal termination of Gaussian 16 at Thu Dec 10 23:29:58 2020.
