 Gaussian 16, Revision A.03,

 -----------------------------------------------------------
 # opt freq B3LYP/6-31G(d) empiricaldispersion=gd3bj scf=xqc
 -----------------------------------------------------------

 -------------------------------
 CID_105459525_JID_5129_neutraal
 -------------------------------
 Symbolic Z-matrix:
 Charge =  0 Multiplicity = 1

 SCF Done:  E(RB3LYP) =  -652.881792847     A.U. after   15 cycles
 SCF Done:  E(RB3LYP) =  -652.885623068     A.U. after   12 cycles
 SCF Done:  E(RB3LYP) =  -652.886068905     A.U. after   11 cycles
 SCF Done:  E(RB3LYP) =  -652.886029222     A.U. after   11 cycles
 SCF Done:  E(RB3LYP) =  -652.886125786     A.U. after   12 cycles
 SCF Done:  E(RB3LYP) =  -652.886182410     A.U. after   11 cycles
 SCF Done:  E(RB3LYP) =  -652.886193318     A.U. after   10 cycles
 SCF Done:  E(RB3LYP) =  -652.886197189     A.U. after    9 cycles
 SCF Done:  E(RB3LYP) =  -652.886199177     A.U. after    8 cycles
 SCF Done:  E(RB3LYP) =  -652.886200387     A.U. after    8 cycles
 SCF Done:  E(RB3LYP) =  -652.886204026     A.U. after    9 cycles
 SCF Done:  E(RB3LYP) =  -652.886204259     A.U. after    9 cycles
 SCF Done:  E(RB3LYP) =  -652.886204363     A.U. after    8 cycles
 SCF Done:  E(RB3LYP) =  -652.886204423     A.U. after    8 cycles
 Optimization completed.
    -- Stationary point found.
 Normal termination of Gaussian 16 at Thu Dec 10 14:51:41 2020.

 --------------------------------------------------------------------
 #N Geom=AllCheck Guess=TCheck SCRF=Check GenChk RB3LYP/6-31G(d) Freq
 --------------------------------------------------------------------

 Structure from the checkpoint file:  "JID_5129.chk"
 -------------------------------
 CID_105459525_JID_5129_neutraal
 -------------------------------
 Charge =  0 Multiplicity = 1

 SCF Done:  E(RB3LYP) =  -652.886204423     A.U. after    1 cycles

  Exact polarizability: 171.053  -8.389 141.672  -1.159  -4.829  97.721
 Approx polarizability: 232.876 -21.900 228.246  -0.351 -17.466 147.406

                      1                      2                      3
                      A                      A                      A
 Frequencies --     14.4419                47.4246                89.3042
 Red. masses --      2.1660                 4.0293                 1.7782
 Frc consts  --      0.0003                 0.0053                 0.0084
 IR Inten    --      0.2705                 1.3771                 0.8746

                      4                      5                      6
                      A                      A                      A
 Frequencies --     96.7633               123.4405               147.4568
 Red. masses --      2.4101                 3.3307                 4.2702
 Frc consts  --      0.0133                 0.0299                 0.0547
 IR Inten    --      1.3161                 0.9194                 2.0860

                      7                      8                      9
                      A                      A                      A
 Frequencies --    172.9270               196.9022               225.0193
 Red. masses --      2.7687                 2.7029                 2.2583
 Frc consts  --      0.0488                 0.0617                 0.0674
 IR Inten    --      1.8918                 4.8830                 2.3054

                     10                     11                     12
                      A                      A                      A
 Frequencies --    255.4785               269.1379               278.2144
 Red. masses --      3.2154                 3.2904                 2.9399
 Frc consts  --      0.1237                 0.1404                 0.1341
 IR Inten    --      0.9183                 2.2520                 1.1569

                     13                     14                     15
                      A                      A                      A
 Frequencies --    318.1227               348.3426               383.2330
 Red. masses --      2.8898                 2.0365                 3.3675
 Frc consts  --      0.1723                 0.1456                 0.2914
 IR Inten    --      0.7719                 0.9412                 4.6820

                     16                     17                     18
                      A                      A                      A
 Frequencies --    395.0284               414.4402               483.0507
 Red. masses --      4.1446                 2.4414                 1.7315
 Frc consts  --      0.3811                 0.2471                 0.2380
 IR Inten    --      1.8815                 1.0827                 0.1923

                     19                     20                     21
                      A                      A                      A
 Frequencies --    505.7342               554.5375               666.0110
 Red. masses --      2.6146                 2.6949                 5.3654
 Frc consts  --      0.3940                 0.4883                 1.4022
 IR Inten    --      0.7162                 1.1063                 6.2113

                     22                     23                     24
                      A                      A                      A
 Frequencies --    685.5887               722.8279               737.9892
 Red. masses --      2.4865                 5.6675                 3.9353
 Frc consts  --      0.6886                 1.7447                 1.2628
 IR Inten    --      2.3309                 1.7324                 3.8690

                     25                     26                     27
                      A                      A                      A
 Frequencies --    779.7492               793.4125               832.0816
 Red. masses --      3.6560                 3.9657                 1.4983
 Frc consts  --      1.3097                 1.4709                 0.6112
 IR Inten    --      8.6817                49.6485                 3.4209

                     28                     29                     30
                      A                      A                      A
 Frequencies --    844.3577               868.2315               884.2686
 Red. masses --      2.0421                 2.7487                 1.7592
 Frc consts  --      0.8578                 1.2208                 0.8105
 IR Inten    --      7.3992                 1.9902                 0.3496

                     31                     32                     33
                      A                      A                      A
 Frequencies --    895.2739               947.1168               979.5504
 Red. masses --      1.3503                 2.1038                 2.4317
 Frc consts  --      0.6376                 1.1119                 1.3747
 IR Inten    --     10.0164                12.0542                 1.6329

                     34                     35                     36
                      A                      A                      A
 Frequencies --    996.0367              1018.7682              1019.9816
 Red. masses --      2.2859                 1.7869                 1.7998
 Frc consts  --      1.3362                 1.0927                 1.1032
 IR Inten    --      7.5072                 0.6457                 1.0259

                     37                     38                     39
                      A                      A                      A
 Frequencies --   1037.2799              1049.3327              1076.6007
 Red. masses --      2.1000                 2.0181                 2.5799
 Frc consts  --      1.3313                 1.3092                 1.7618
 IR Inten    --      0.6505                 0.3619                 0.8099

                     40                     41                     42
                      A                      A                      A
 Frequencies --   1099.7451              1130.5893              1148.3852
 Red. masses --      1.6826                 2.0892                 2.9442
 Frc consts  --      1.1990                 1.5734                 2.2877
 IR Inten    --      0.2056                 0.1284                 0.4762

                     43                     44                     45
                      A                      A                      A
 Frequencies --   1156.3612              1184.1528              1216.6719
 Red. masses --      1.3384                 1.5361                 2.0875
 Frc consts  --      1.0545                 1.2691                 1.8207
 IR Inten    --      4.0155                 1.0416                13.8104

                     46                     47                     48
                      A                      A                      A
 Frequencies --   1224.0380              1246.0457              1253.7614
 Red. masses --      1.5433                 1.2625                 1.3976
 Frc consts  --      1.3624                 1.1549                 1.2944
 IR Inten    --     32.7585                 0.4555                 4.6370

                     49                     50                     51
                      A                      A                      A
 Frequencies --   1289.9043              1302.5679              1312.6153
 Red. masses --      1.1704                 3.8412                 1.2354
 Frc consts  --      1.1473                 3.8399                 1.2541
 IR Inten    --      0.3245                 6.4619                 3.0163

                     52                     53                     54
                      A                      A                      A
 Frequencies --   1328.6017              1352.2113              1373.0584
 Red. masses --      1.1588                 1.3021                 1.2803
 Frc consts  --      1.2052                 1.4027                 1.4221
 IR Inten    --      3.7071                10.0788                10.9039

                     55                     56                     57
                      A                      A                      A
 Frequencies --   1385.9366              1402.2607              1407.3767
 Red. masses --      1.2777                 1.3681                 1.4438
 Frc consts  --      1.4460                 1.5850                 1.6850
 IR Inten    --      0.0421                 6.3924                 1.5458

                     58                     59                     60
                      A                      A                      A
 Frequencies --   1412.1509              1415.5620              1417.6713
 Red. masses --      1.4112                 1.5429                 1.4430
 Frc consts  --      1.6581                 1.8215                 1.7088
 IR Inten    --      1.9249                 6.1532                 2.6678

                     61                     62                     63
                      A                      A                      A
 Frequencies --   1437.9801              1451.3006              1453.4856
 Red. masses --      1.6440                 4.8725                 1.5568
 Frc consts  --      2.0028                 6.0467                 1.9378
 IR Inten    --     17.0463                20.6617                16.2539

                     64                     65                     66
                      A                      A                      A
 Frequencies --   1492.4144              1508.6005              1513.0541
 Red. masses --      2.1712                 1.3592                 1.1513
 Frc consts  --      2.8492                 1.8225                 1.5529
 IR Inten    --      3.7145                21.0525                 1.5310

                     67                     68                     69
                      A                      A                      A
 Frequencies --   1514.4981              1514.7284              1516.9883
 Red. masses --      1.2261                 1.2048                 1.1436
 Frc consts  --      1.6570                 1.6287                 1.5506
 IR Inten    --      1.0656                11.7851                 2.5064

                     70                     71                     72
                      A                      A                      A
 Frequencies --   1523.3361              1534.0328              1536.1244
 Red. masses --      1.1030                 1.0865                 1.3560
 Frc consts  --      1.5081                 1.5064                 1.8852
 IR Inten    --      3.3743                 5.8057                82.0827

                     73                     74                     75
                      A                      A                      A
 Frequencies --   1537.4268              1594.4482              1781.7736
 Red. masses --      1.1125                 5.0492                 9.3382
 Frc consts  --      1.5494                 7.5630                17.4670
 IR Inten    --     18.1825                63.1281               340.1037

                     76                     77                     78
                      A                      A                      A
 Frequencies --   2895.1475              3018.4863              3022.7904
 Red. masses --      1.0815                 1.0693                 1.0636
 Frc consts  --      5.3409                 5.7404                 5.7260
 IR Inten    --    123.1358                14.5907                17.8391

                     79                     80                     81
                      A                      A                      A
 Frequencies --   3025.8071              3037.8145              3044.7656
 Red. masses --      1.0630                 1.0629                 1.0693
 Frc consts  --      5.7343                 5.7792                 5.8406
 IR Inten    --     24.2300                 9.7737                 7.5999

                     82                     83                     84
                      A                      A                      A
 Frequencies --   3050.4801              3063.1222              3065.8520
 Red. masses --      1.0661                 1.0835                 1.0940
 Frc consts  --      5.8447                 5.9899                 6.0588
 IR Inten    --     11.8356                10.7655                61.4503

                     85                     86                     87
                      A                      A                      A
 Frequencies --   3068.8166              3073.5878              3074.4709
 Red. masses --      1.0967                 1.0909                 1.0542
 Frc consts  --      6.0852                 6.0718                 5.8708
 IR Inten    --     41.0968                36.4756                47.3845

                     88                     89                     90
                      A                      A                      A
 Frequencies --   3077.1102              3086.5881              3093.7391
 Red. masses --      1.0896                 1.1010                 1.0988
 Frc consts  --      6.0787                 6.1798                 6.1964
 IR Inten    --     67.9159                13.9302                89.6956

                     91                     92                     93
                      A                      A                      A
 Frequencies --   3148.7936              3192.3809              3276.5082
 Red. masses --      1.0977                 1.1037                 1.0967
 Frc consts  --      6.4126                 6.6273                 6.9367
 IR Inten    --     16.1921                 4.0712                 1.4549

 - Thermochemistry -
 -------------------
 Temperature   298.150 Kelvin.  Pressure   1.00000 Atm.
 Atom     1 has atomic number  6 and mass  12.00000

 Molecular mass:   206.14191 amu.
 Principal axes and moments of inertia in atomic units:
                           1         2         3
     Eigenvalues --  1792.615354790.959715736.99085
           X            0.99994   0.01049  -0.00119
           Y           -0.01048   0.99984   0.01446
           Z            0.00134  -0.01445   0.99989
 This molecule is an asymmetric top.
 Rotational symmetry number  1.
 Warning -- assumption of classical behavior for rotation
           may cause significant error
 Rotational temperatures (Kelvin)      0.04832     0.01808     0.01510
 Rotational constants (GHZ):           1.00676     0.37670     0.31458
 Zero-point vibrational energy     762258.0 (Joules/Mol)
                                  182.18403 (Kcal/Mol)
 Warning -- explicit consideration of  20 degrees of freedom as
           vibrations may cause significant error
 Vibrational temperatures:     20.78    68.23   128.49   139.22   177.60
          (Kelvin)            212.16   248.80   283.30   323.75   367.58
                              387.23   400.29   457.71   501.19   551.39
                              568.36   596.29   695.00   727.64   797.86
                              958.24   986.41  1039.99  1061.80  1121.89
                             1141.54  1197.18  1214.84  1249.19  1272.27
                             1288.10  1362.69  1409.35  1433.07  1465.78
                             1467.53  1492.41  1509.76  1548.99  1582.29
                             1626.67  1652.27  1663.75  1703.73  1750.52
                             1761.12  1792.78  1803.88  1855.88  1874.10
                             1888.56  1911.56  1945.53  1975.52  1994.05
                             2017.54  2024.90  2031.77  2036.68  2039.71
                             2068.93  2088.10  2091.24  2147.25  2170.54
                             2176.95  2179.03  2179.36  2182.61  2191.74
                             2207.13  2210.14  2212.01  2294.06  2563.57
                             4165.47  4342.93  4349.12  4353.46  4370.74
                             4380.74  4388.96  4407.15  4411.08  4415.34
                             4422.21  4423.48  4427.28  4440.91  4451.20
                             4530.41  4593.12  4714.16

 Zero-point correction=                           0.290329 (Hartree/Particle)
 Thermal correction to Energy=                    0.304707
 Thermal correction to Enthalpy=                  0.305651
 Thermal correction to Gibbs Free Energy=         0.247734
 Sum of electronic and zero-point Energies=           -652.595876
 Sum of electronic and thermal Energies=              -652.581498
 Sum of electronic and thermal Enthalpies=            -652.580553
 Sum of electronic and thermal Free Energies=         -652.638470

                     E (Thermal)             CV                S
                      KCal/Mol        Cal/Mol-Kelvin    Cal/Mol-Kelvin
 Total                  191.206             54.434            121.896
 Electronic               0.000              0.000              0.000
 Translational            0.889              2.981             41.874
 Rotational               0.889              2.981             32.266
 Vibrational            189.429             48.473             47.756
 Vibration     1          0.593              1.986              7.281
 Vibration     2          0.595              1.979              4.922
 Vibration     3          0.602              1.957              3.675
 Vibration     4          0.603              1.951              3.518
 Vibration     5          0.610              1.929              3.046
 Vibration     6          0.617              1.905              2.705
 Vibration     7          0.626              1.876              2.403
 Vibration     8          0.636              1.844              2.162
 Vibration     9          0.650              1.803              1.918
 Vibration    10          0.666              1.754              1.692
 Vibration    11          0.674              1.730              1.602
 Vibration    12          0.679              1.714              1.545
 Vibration    13          0.705              1.639              1.320
 Vibration    14          0.726              1.579              1.174
 Vibration    15          0.752              1.506              1.026
 Vibration    16          0.762              1.481              0.981
 Vibration    17          0.778              1.439              0.911
 Vibration    18          0.839              1.288              0.702
 Vibration    19          0.861              1.237              0.644
 Vibration    20          0.910              1.130              0.535

                           ! Non-Optimized Parameters !
 Normal termination of Gaussian 16 at Thu Dec 10 15:02:17 2020.

 ----------------------------------------------------------------------
 # B3LYP/6-311++G(d,p) empiricaldispersion=gd3bj scf=xqc pop=npa geom=c
 heck
 ----------------------------------------------------------------------

 ---------------------------------------
 CID_105459525_JID_5129_Energie_neutraal
 ---------------------------------------
 Structure from the checkpoint file:  "JID_5129.chk"
 Charge =  0 Multiplicity = 1

 SCF Done:  E(RB3LYP) =  -653.062500174     A.U. after   16 cycles
 Normal termination of Gaussian 16 at Thu Dec 10 15:06:48 2020.

 ----------------------------------------------------------------------
 # B3LYP/6-311++G(d,p) empiricaldispersion=gd3bj scf=xqc pop=npa geom=c
 heck
 ----------------------------------------------------------------------

 -------------------------------------
 CID_105459525_JID_5129_Energie_kation
 -------------------------------------
 Structure from the checkpoint file:  "JID_5129.chk"
 Charge =  1 Multiplicity = 2

 SCF Done:  E(UB3LYP) =  -652.734955634     A.U. after   33 cycles
 SCF Done:  E(UB3LYP) =  -652.737353789     a.u. after    9 cycles
 Normal termination of Gaussian 16 at Thu Dec 10 16:08:05 2020.
 Gaussian 16:  ES64L-G16RevA.03 25-Dec-2016

 ----------------------------------------------------------------------
 # B3LYP/6-311++G(d,p) empiricaldispersion=gd3bj scf=xqc pop=npa geom=c
 heck
 ----------------------------------------------------------------------

 ------------------------------------
 CID_105459525_JID_5129_Energie_anion
 ------------------------------------
 Structure from the checkpoint file:  "JID_5129.chk"
 Charge = -1 Multiplicity = 2

                         Standard orientation:
 ---------------------------------------------------------------------
 Center     Atomic      Atomic             Coordinates (Angstroms)
 Number     Number       Type             X           Y           Z
 ---------------------------------------------------------------------
      1          6           0        0.267368    2.571091   -0.418841
      2          7           0        1.216750    1.481867   -0.281802
      3          6           0        0.999957    0.178353    0.035588
      4          6           0        2.270197   -0.410777    0.090934
      5          6           0        3.176895    0.642205   -0.202889
      6          7           0        2.547099    1.781988   -0.423882
      7          6           0        2.612356   -1.792930    0.382371
      8          8           0        3.751706   -2.231332    0.402146
      9          6           0       -0.353737   -0.452560    0.232265
     10          6           0       -1.172586    0.238204    1.374284
     11          6           0       -2.530264    0.866622    1.027788
     12          6           0       -3.647921   -0.138681    0.708655
     13          6           0       -3.615153   -0.718930   -0.708346
     14          6           0       -2.342091   -1.487693   -1.078179
     15          6           0       -1.065476   -0.632666   -1.129699
     16          1           0       -0.095211    2.907563    0.557638
     17          1           0        0.795057    3.388808   -0.908558
     18          1           0       -0.583713    2.265577   -1.029681
     19          1           0        4.255166    0.585494   -0.257065
     20          1           0        1.752092   -2.465478    0.597777
     21          1           0       -0.140274   -1.470667    0.574112
     22          1           0       -1.346870   -0.504210    2.162346
     23          1           0       -0.542808    1.003857    1.840293
     24          1           0       -2.434014    1.582611    0.201122
     25          1           0       -2.836261    1.458396    1.899931
     26          1           0       -4.617439    0.355159    0.853005
     27          1           0       -3.610420   -0.956895    1.442817
     28          1           0       -3.750543    0.100062   -1.430292
     29          1           0       -4.479438   -1.383530   -0.836457
     30          1           0       -2.492320   -1.941176   -2.065716
     31          1           0       -2.193862   -2.324400   -0.379865
     32          1           0       -1.297301    0.338660   -1.583882
     33          1           0       -0.339688   -1.109582   -1.798495
 ---------------------------------------------------------------------

 SCF Done:  E(UB3LYP) =  -653.059185936     A.U. after   33 cycles
 SCF Done:  E(UB3LYP) =  -653.059185936     a.u. after    1 cycles

 The electronic state is 2-A.
 Alpha  occ. eigenvalues --  -18.96881 -14.28362 -14.22446 -10.11379 -10.11131
 Alpha  occ. eigenvalues --  -10.10392 -10.09114 -10.08116 -10.07495 -10.07373
 Alpha  occ. eigenvalues --  -10.07175 -10.06908 -10.06841 -10.06748 -10.05422
 Alpha  occ. eigenvalues --   -0.94227  -0.90135  -0.75094  -0.73283  -0.70135
 Alpha  occ. eigenvalues --   -0.66900  -0.65480  -0.60787  -0.56228  -0.55872
 Alpha  occ. eigenvalues --   -0.53229  -0.47623  -0.47134  -0.45961  -0.43905
 Alpha  occ. eigenvalues --   -0.39849  -0.38276  -0.37327  -0.36318  -0.35973
 Alpha  occ. eigenvalues --   -0.34172  -0.33857  -0.32928  -0.31211  -0.31150
 Alpha  occ. eigenvalues --   -0.30585  -0.30287  -0.28419  -0.28214  -0.28110
 Alpha  occ. eigenvalues --   -0.26003  -0.24510  -0.24009  -0.23265  -0.22683
 Alpha  occ. eigenvalues --   -0.21554  -0.21397  -0.19162  -0.15158  -0.13876
 Alpha  occ. eigenvalues --   -0.12522   0.04066
 Alpha virt. eigenvalues --    0.05745   0.06775   0.07266   0.07918   0.09200
 Alpha virt. eigenvalues --    0.09416   0.09990   0.10321   0.10505   0.11125
 Alpha virt. eigenvalues --    0.11548   0.11977   0.12739   0.13144   0.13353

  Beta  occ. eigenvalues --  -18.96573 -14.28342 -14.22480 -10.11361 -10.10907
  Beta  occ. eigenvalues --  -10.10222 -10.09124 -10.08057 -10.07486 -10.07349
  Beta  occ. eigenvalues --  -10.07160 -10.06884 -10.06820 -10.06730 -10.05458
  Beta  occ. eigenvalues --   -0.94175  -0.89566  -0.75037  -0.73232  -0.70008
  Beta  occ. eigenvalues --   -0.66858  -0.65416  -0.60649  -0.56178  -0.55818
  Beta  occ. eigenvalues --   -0.52878  -0.47532  -0.47061  -0.45799  -0.43735
  Beta  occ. eigenvalues --   -0.39743  -0.38143  -0.37252  -0.36242  -0.35918
  Beta  occ. eigenvalues --   -0.34095  -0.33777  -0.32859  -0.31128  -0.31102
  Beta  occ. eigenvalues --   -0.30448  -0.30050  -0.28308  -0.28070  -0.28049
  Beta  occ. eigenvalues --   -0.24588  -0.24444  -0.23961  -0.23226  -0.22643
  Beta  occ. eigenvalues --   -0.21516  -0.21344  -0.19171  -0.14835  -0.13295
  Beta  occ. eigenvalues --   -0.12268
  Beta virt. eigenvalues --    0.06378   0.07286   0.07736   0.08252   0.08505
  Beta virt. eigenvalues --    0.09466   0.09820   0.10057   0.10595   0.10677
  Beta virt. eigenvalues --    0.11424   0.11761   0.12080   0.13052   0.13314

 Mulliken charges and spin densities:
               1          2
     1  C    0.227223  -0.571254
     2  N    0.158679   0.064763
     3  C   -0.117659  -0.247122
     4  C    0.765585  -0.314393
     5  C    0.029807  -0.088858
     6  N   -0.210459   0.013339
     7  C   -0.539652   0.169857
     8  O   -0.364349   0.098758
     9  C   -0.062381   0.550225
    10  C   -0.617554  -0.097655
    11  C   -0.090414  -0.066887
    12  C   -0.127750  -0.160752
    13  C    0.751715  -1.225748
    14  C   -0.630545   0.435548
    15  C    0.164070  -0.639853
    16  H   -0.225532   0.421119
    17  H    0.135480   0.040117
    18  H   -0.050106   0.208925
    19  H    0.176728  -0.006868
    20  H    0.020896   0.040491
    21  H    0.367052  -0.189388
    22  H   -0.023178   0.181432
    23  H    0.229116  -0.040896
    24  H    0.038062   0.077573
    25  H   -0.487360   0.663496
    26  H   -0.375120   0.552392
    27  H    0.065349   0.046416
    28  H   -0.186886   0.326178
    29  H   -0.161772   0.322262
    30  H   -0.141473   0.319309
    31  H    0.004253   0.109695
    32  H    0.161189  -0.078885
    33  H    0.116988   0.086663
 Sum of Mulliken charges =  -1.00000   1.00000

 Dipole moment (field-independent basis, Debye):
    X=             -0.3516    Y=              0.6142    Z=             -0.7097  Tot=              1.0023
 Quadrupole moment (field-independent basis, Debye-Ang):
   XX=           -181.8909   YY=           -131.5687   ZZ=           -117.6080
   XY=             14.4065   XZ=             -0.3970   YZ=             -5.6385

 Summary of Natural Population Analysis:

                                       Natural Population
                Natural  -----------------------------------------------
    Atom  No    Charge         Core      Valence    Rydberg      Total
 -----------------------------------------------------------------------
      C    1   -0.17551      0.99964     2.16811    0.00776     3.17551
      N    2   -0.11374      0.99960     2.60231    0.01182     3.61374
      C    3    0.15013      0.99948     1.83752    0.01288     2.84987
      C    4   -0.13358      0.99944     2.12546    0.00868     3.13358
      C    5    0.02229      0.99960     1.96334    0.01477     2.97771
      N    6   -0.16736      0.99974     2.65668    0.01095     3.66736
      C    7    0.23036      0.99967     1.74994    0.02004     2.76964
      O    8   -0.26684      0.99989     3.26027    0.00669     4.26684
      C    9   -0.13016      0.99955     2.12082    0.00979     3.13016
      C   10   -0.18462      0.99961     2.17590    0.00911     3.18462
      C   11   -0.19424      0.99962     2.18509    0.00952     3.19424
      C   12   -0.18896      0.99962     2.18041    0.00892     3.18896
      C   13   -0.18609      0.99962     2.17825    0.00822     3.18609
      C   14   -0.19090      0.99962     2.18241    0.00887     3.19090
      C   15   -0.18502      0.99960     2.17685    0.00857     3.18502
      H   16    0.09975      0.00000     0.39884    0.00142     0.40025
      H   17    0.10821      0.00000     0.39042    0.00136     0.39179
      H   18    0.09762      0.00000     0.40123    0.00115     0.40238
      H   19    0.10026      0.00000     0.39886    0.00088     0.39974
      H   20    0.03818      0.00000     0.45959    0.00223     0.46182
      H   21    0.10590      0.00000     0.39182    0.00228     0.39410
      H   22    0.09679      0.00000     0.40209    0.00113     0.40321
      H   23    0.10171      0.00000     0.39719    0.00110     0.39829
      H   24    0.09340      0.00000     0.40483    0.00177     0.40660
      H   25    0.10204      0.00000     0.39645    0.00151     0.39796
      H   26    0.10080      0.00000     0.39764    0.00156     0.39920
      H   27    0.09030      0.00000     0.40852    0.00118     0.40970
      H   28    0.09224      0.00000     0.40634    0.00142     0.40776
      H   29    0.09777      0.00000     0.40111    0.00113     0.40223
      H   30    0.10003      0.00000     0.39896    0.00101     0.39997
      H   31    0.09213      0.00000     0.40664    0.00123     0.40787
      H   32    0.09259      0.00000     0.40603    0.00138     0.40741
      H   33    0.10451      0.00000     0.39454    0.00095     0.39549
 =======================================================================
   * Total *    0.00000     14.99431    40.82445    0.18124    56.00000

 Normal termination of Gaussian 16 at Thu Dec 10 16:23:12 2020.
