 Gaussian 16, Revision A.03,

 -----------------------------------------------------------
 # opt freq B3LYP/6-31G(d) empiricaldispersion=gd3bj scf=xqc
 -----------------------------------------------------------

 -------------------------------
 CID_128371248_JID_9209_neutraal
 -------------------------------
 Symbolic Z-matrix:
 Charge =  0 Multiplicity = 1

 SCF Done:  E(RB3LYP) =  -858.250184180     A.U. after   15 cycles
 SCF Done:  E(RB3LYP) =  -858.258021308     A.U. after   13 cycles
 SCF Done:  E(RB3LYP) =  -858.257660780     A.U. after   13 cycles
 SCF Done:  E(RB3LYP) =  -858.261029203     A.U. after   13 cycles
 SCF Done:  E(RB3LYP) =  -858.254399828     A.U. after   13 cycles
 SCF Done:  E(RB3LYP) =  -858.262286009     A.U. after   12 cycles
 SCF Done:  E(RB3LYP) =  -858.263281705     A.U. after   12 cycles
 SCF Done:  E(RB3LYP) =  -858.263667953     A.U. after   12 cycles
 SCF Done:  E(RB3LYP) =  -858.263781371     A.U. after   11 cycles
 SCF Done:  E(RB3LYP) =  -858.263851892     A.U. after   11 cycles
 SCF Done:  E(RB3LYP) =  -858.270689212     A.U. after    8 cycles
 SCF Done:  E(RB3LYP) =  -858.270689390     A.U. after    8 cycles
 SCF Done:  E(RB3LYP) =  -858.270689492     A.U. after    7 cycles
 SCF Done:  E(RB3LYP) =  -858.270689559     A.U. after    6 cycles
 SCF Done:  E(RB3LYP) =  -858.270689600     A.U. after    6 cycles
 Optimization completed.
    -- Stationary point found.
 Normal termination of Gaussian 16 at Sat Dec 12 10:04:56 2020.

 --------------------------------------------------------------------
 #N Geom=AllCheck Guess=TCheck SCRF=Check GenChk RB3LYP/6-31G(d) Freq
 --------------------------------------------------------------------

 Structure from the checkpoint file:  "JID_9209.chk"
 -------------------------------
 CID_128371248_JID_9209_neutraal
 -------------------------------
 Charge =  0 Multiplicity = 1

 SCF Done:  E(RB3LYP) =  -858.270689600     A.U. after    1 cycles

  Exact polarizability: 207.184   5.196 157.433  -3.905  -5.981 134.587
 Approx polarizability: 266.731   8.137 247.287  -4.997 -22.781 204.687

                      1                      2                      3
                      A                      A                      A
 Frequencies --     20.2096                29.7076                45.9302
 Red. masses --      5.0280                 4.2168                 3.1458
 Frc consts  --      0.0012                 0.0022                 0.0039
 IR Inten    --      1.9562                 1.0157                 2.2355

                      4                      5                      6
                      A                      A                      A
 Frequencies --     58.8301                63.5703                76.6482
 Red. masses --      3.2441                 4.0303                 5.5869
 Frc consts  --      0.0066                 0.0096                 0.0193
 IR Inten    --      2.0604                 0.5591                 1.7146

                      7                      8                      9
                      A                      A                      A
 Frequencies --    102.0729               135.6940               145.3082
 Red. masses --      4.2515                 2.5665                 3.7748
 Frc consts  --      0.0261                 0.0278                 0.0470
 IR Inten    --      2.2296                 1.2652                 3.0197

                     10                     11                     12
                      A                      A                      A
 Frequencies --    159.0577               205.1682               212.2499
 Red. masses --      3.4154                 2.2426                 1.9949
 Frc consts  --      0.0509                 0.0556                 0.0529
 IR Inten    --      3.0700                 1.0907                 0.3077

                     13                     14                     15
                      A                      A                      A
 Frequencies --    240.9505               250.2560               272.4984
 Red. masses --      2.2755                 2.3329                 2.5204
 Frc consts  --      0.0778                 0.0861                 0.1103
 IR Inten    --      0.7438                 1.9247                 2.4191

                     16                     17                     18
                      A                      A                      A
 Frequencies --    293.9955               307.8957               316.5752
 Red. masses --      1.8462                 1.3982                 1.9652
 Frc consts  --      0.0940                 0.0781                 0.1160
 IR Inten    --      3.5490                 1.0706                 0.7572

                     19                     20                     21
                      A                      A                      A
 Frequencies --    339.6509               363.6341               388.2813
 Red. masses --      3.1606                 2.6220                 3.1865
 Frc consts  --      0.2148                 0.2043                 0.2830
 IR Inten    --      1.0813                 0.6808                 1.5737

                     22                     23                     24
                      A                      A                      A
 Frequencies --    421.2980               453.8623               466.9220
 Red. masses --      2.7477                 2.9770                 4.6309
 Frc consts  --      0.2873                 0.3613                 0.5948
 IR Inten    --      3.4389                 8.6463                10.4097

                     25                     26                     27
                      A                      A                      A
 Frequencies --    496.1344               511.2685               514.8441
 Red. masses --      2.2432                 1.7735                 3.5040
 Frc consts  --      0.3253                 0.2731                 0.5472
 IR Inten    --     14.1394                16.8427                 9.2057

                     28                     29                     30
                      A                      A                      A
 Frequencies --    555.7844               586.2044               648.5759
 Red. masses --      2.4210                 2.9340                 2.8904
 Frc consts  --      0.4406                 0.5940                 0.7164
 IR Inten    --     38.1996                18.2188                 3.2080

                     31                     32                     33
                      A                      A                      A
 Frequencies --    687.8650               691.6687               718.7290
 Red. masses --      5.3713                 3.3049                 3.6393
 Frc consts  --      1.4974                 0.9316                 1.1076
 IR Inten    --      5.2426                25.2738                21.3822

                     34                     35                     36
                      A                      A                      A
 Frequencies --    747.1816               794.8568               798.1498
 Red. masses --      2.6656                 2.2383                 1.7386
 Frc consts  --      0.8768                 0.8332                 0.6526
 IR Inten    --      9.0544                 1.8211                 4.6212

                     37                     38                     39
                      A                      A                      A
 Frequencies --    800.8436               817.8412               825.7525
 Red. masses --      1.7155                 1.4277                 1.4881
 Frc consts  --      0.6483                 0.5626                 0.5978
 IR Inten    --      3.4810                 9.2235                 1.9057

                     40                     41                     42
                      A                      A                      A
 Frequencies --    858.5760               903.8761               906.0561
 Red. masses --      2.3303                 2.2970                 3.1265
 Frc consts  --      1.0121                 1.1057                 1.5122
 IR Inten    --      1.5914                 0.5608                 6.2658

                     43                     44                     45
                      A                      A                      A
 Frequencies --    910.2131               944.9647               981.5529
 Red. masses --      1.7603                 2.0221                 3.0604
 Frc consts  --      0.8593                 1.0639                 1.7372
 IR Inten    --      2.8161                 3.4568                 8.4261

                     46                     47                     48
                      A                      A                      A
 Frequencies --   1000.1025              1002.2961              1018.2059
 Red. masses --      3.5023                 2.2622                 2.1167
 Frc consts  --      2.0639                 1.3390                 1.2929
 IR Inten    --      2.6866                 3.3867                 3.9916

                     49                     50                     51
                      A                      A                      A
 Frequencies --   1037.4510              1060.4135              1073.7074
 Red. masses --      1.5159                 2.1632                 6.1332
 Frc consts  --      0.9613                 1.4332                 4.1659
 IR Inten    --      8.1039                 2.9209                 3.6499

                     52                     53                     54
                      A                      A                      A
 Frequencies --   1080.0688              1109.6613              1119.2143
 Red. masses --      1.5749                 1.9597                 2.1894
 Frc consts  --      1.0824                 1.4217                 1.6158
 IR Inten    --     41.4078                10.3379                 6.4896

                     55                     56                     57
                      A                      A                      A
 Frequencies --   1127.0148              1131.0299              1144.8301
 Red. masses --      1.7092                 2.4496                 2.0038
 Frc consts  --      1.2791                 1.8462                 1.5473
 IR Inten    --      3.9999                16.2201                 2.3680

                     58                     59                     60
                      A                      A                      A
 Frequencies --   1162.9668              1223.7590              1226.9056
 Red. masses --      1.6635                 1.2141                 1.5532
 Frc consts  --      1.3256                 1.0713                 1.3775
 IR Inten    --     90.8616                11.1382                32.7119

                     61                     62                     63
                      A                      A                      A
 Frequencies --   1235.7301              1239.8121              1276.6932
 Red. masses --      2.2886                 3.8661                 1.5897
 Frc consts  --      2.0591                 3.5013                 1.5267
 IR Inten    --     30.4363                11.1012                44.6250

                     64                     65                     66
                      A                      A                      A
 Frequencies --   1292.9056              1294.7311              1307.3959
 Red. masses --      2.3692                 1.3139                 1.3598
 Frc consts  --      2.3334                 1.2977                 1.3694
 IR Inten    --     40.7584                 5.8529                 5.1582

                     67                     68                     69
                      A                      A                      A
 Frequencies --   1310.5542              1334.3666              1351.4301
 Red. masses --      2.7465                 1.1354                 1.2667
 Frc consts  --      2.7793                 1.1911                 1.3631
 IR Inten    --    182.3432                 7.4419                24.1814

                     70                     71                     72
                      A                      A                      A
 Frequencies --   1381.1166              1382.9655              1395.5783
 Red. masses --      1.3054                 1.4348                 2.0288
 Frc consts  --      1.4671                 1.6168                 2.3280
 IR Inten    --     12.1403                31.5630                61.5743

                     73                     74                     75
                      A                      A                      A
 Frequencies --   1402.3227              1411.3105              1416.1944
 Red. masses --      1.4248                 1.3830                 1.6234
 Frc consts  --      1.6508                 1.6230                 1.9183
 IR Inten    --      4.5768                 0.2065                 9.0838

                     76                     77                     78
                      A                      A                      A
 Frequencies --   1417.6028              1419.5669              1423.8984
 Red. masses --      2.3930                 1.4350                 1.3403
 Frc consts  --      2.8334                 1.7038                 1.6011
 IR Inten    --      8.4793                19.9186                 1.3920

                     79                     80                     81
                      A                      A                      A
 Frequencies --   1434.0077              1440.2904              1442.0480
 Red. masses --      1.3047                 1.3616                 1.2753
 Frc consts  --      1.5808                 1.6642                 1.5625
 IR Inten    --     11.3030                15.4843                 6.9386

                     82                     83                     84
                      A                      A                      A
 Frequencies --   1461.5527              1470.9043              1508.9409
 Red. masses --      1.3810                 2.2483                 1.0931
 Frc consts  --      1.7381                 2.8660                 1.4665
 IR Inten    --     20.3603                23.7753                 3.4302

                     85                     86                     87
                      A                      A                      A
 Frequencies --   1510.8190              1511.7252              1517.4648
 Red. masses --      1.0874                 1.1967                 1.0911
 Frc consts  --      1.4624                 1.6113                 1.4804
 IR Inten    --      5.1267                20.3952                 3.9758

                     88                     89                     90
                      A                      A                      A
 Frequencies --   1519.1535              1522.2200              1526.2234
 Red. masses --      1.0475                 1.0749                 1.0994
 Frc consts  --      1.4243                 1.4675                 1.5088
 IR Inten    --      3.4833                12.9666                14.0989

                     91                     92                     93
                      A                      A                      A
 Frequencies --   1532.8293              1533.2776              1541.0453
 Red. masses --      1.0896                 1.1181                 1.0763
 Frc consts  --      1.5084                 1.5487                 1.5060
 IR Inten    --     15.0839                 0.0711                11.1104

                     94                     95                     96
                      A                      A                      A
 Frequencies --   1551.9828              1557.1260              1584.6697
 Red. masses --      2.4273                 1.1027                 7.0654
 Frc consts  --      3.4447                 1.5752                10.4536
 IR Inten    --     80.3893                 9.2964               126.6106

                     97                     98                     99
                      A                      A                      A
 Frequencies --   1775.1972              2953.7596              3006.5827
 Red. masses --      8.5417                 1.0752                 1.0637
 Frc consts  --     15.8595                 5.5272                 5.6650
 IR Inten    --    288.1640                83.6348                24.6789

                    100                    101                    102
                      A                      A                      A
 Frequencies --   3009.0711              3027.1262              3031.2219
 Red. masses --      1.0645                 1.0682                 1.0656
 Frc consts  --      5.6789                 5.7670                 5.7686
 IR Inten    --     31.2665                55.3132                87.1107

                    103                    104                    105
                      A                      A                      A
 Frequencies --   3039.6418              3048.3751              3058.2858
 Red. masses --      1.0710                 1.1003                 1.0949
 Frc consts  --      5.8302                 6.0242                 6.0339
 IR Inten    --     24.4270                58.3871                62.9624

                    106                    107                    108
                      A                      A                      A
 Frequencies --   3062.5580              3066.6615              3067.5863
 Red. masses --      1.0639                 1.0539                 1.0838
 Frc consts  --      5.8795                 5.8398                 6.0090
 IR Inten    --     13.9596                 7.3021                53.8514

                    109                    110                    111
                      A                      A                      A
 Frequencies --   3068.6429              3083.5451              3090.6217
 Red. masses --      1.0516                 1.0604                 1.0980
 Frc consts  --      5.8344                 5.9403                 6.1793
 IR Inten    --     22.3092                22.2289                39.9572

                    112                    113                    114
                      A                      A                      A
 Frequencies --   3113.5533              3115.4802              3123.1868
 Red. masses --      1.0933                 1.0890                 1.1054
 Frc consts  --      6.2445                 6.2277                 6.3531
 IR Inten    --     19.0183                 4.1740                 2.5013

                    115                    116                    117
                      A                      A                      A
 Frequencies --   3125.1404              3138.6608              3156.0080
 Red. masses --      1.1017                 1.1027                 1.1038
 Frc consts  --      6.3397                 6.4004                 6.4776
 IR Inten    --     45.1507                22.8700                20.2969

                    118                    119                    120
                      A                      A                      A
 Frequencies --   3176.7747              3274.0348              3528.1975
 Red. masses --      1.0983                 1.0983                 1.0743
 Frc consts  --      6.5307                 6.9363                 7.8789
 IR Inten    --      8.2551                 0.8165                21.4922

 - Thermochemistry -
 -------------------
 Temperature   298.150 Kelvin.  Pressure   1.00000 Atm.
 Atom     1 has atomic number  6 and mass  12.00000

 Molecular mass:   265.19026 amu.
 Principal axes and moments of inertia in atomic units:
                           1         2         3
     Eigenvalues --  2405.394197842.992608543.03688
           X            0.99977  -0.02092  -0.00452
           Y            0.02106   0.99917   0.03498
           Z            0.00379  -0.03507   0.99938
 This molecule is an asymmetric top.
 Rotational symmetry number  1.
 Warning -- assumption of classical behavior for rotation
           may cause significant error
 Rotational temperatures (Kelvin)      0.03601     0.01104     0.01014
 Rotational constants (GHZ):           0.75029     0.23011     0.21125
 Zero-point vibrational energy     970106.9 (Joules/Mol)
                                  231.86110 (Kcal/Mol)
 Warning -- explicit consideration of  29 degrees of freedom as
           vibrations may cause significant error
 Vibrational temperatures:     29.08    42.74    66.08    84.64    91.46
          (Kelvin)            110.28   146.86   195.23   209.07   228.85
                              295.19   305.38   346.67   360.06   392.06
                              422.99   442.99   455.48   488.68   523.19
                              558.65   606.15   653.01   671.80   713.83
                              735.60   740.75   799.65   843.42   933.16
                              989.68   995.16  1034.09  1075.03  1143.62
                             1148.36  1152.24  1176.69  1188.07  1235.30
                             1300.48  1303.61  1309.59  1359.59  1412.24
                             1438.92  1442.08  1464.97  1492.66  1525.70
                             1544.83  1553.98  1596.56  1610.30  1621.52
                             1627.30  1647.16  1673.25  1760.72  1765.24
                             1777.94  1783.81  1836.88  1860.20  1862.83
                             1881.05  1885.60  1919.86  1944.41  1987.12
                             1989.78  2007.93  2017.63  2030.56  2037.59
                             2039.61  2042.44  2048.67  2063.22  2072.26
                             2074.79  2102.85  2116.30  2171.03  2173.73
                             2175.04  2183.29  2185.72  2190.14  2195.90
                             2205.40  2206.04  2217.22  2232.96  2240.36
                             2279.99  2554.11  4249.80  4325.80  4329.38
                             4355.36  4361.25  4373.37  4385.93  4400.19
                             4406.34  4412.24  4413.57  4415.09  4436.53
                             4446.72  4479.71  4482.48  4493.57  4496.38
                             4515.83  4540.79  4570.67  4710.61  5076.29

 Zero-point correction=                           0.369494 (Hartree/Particle)
 Thermal correction to Energy=                    0.388553
 Thermal correction to Enthalpy=                  0.389497
 Thermal correction to Gibbs Free Energy=         0.320660
 Sum of electronic and zero-point Energies=           -857.901195
 Sum of electronic and thermal Energies=              -857.882137
 Sum of electronic and thermal Enthalpies=            -857.881193
 Sum of electronic and thermal Free Energies=         -857.950029

                     E (Thermal)             CV                S
                      KCal/Mol        Cal/Mol-Kelvin    Cal/Mol-Kelvin
 Total                  243.821             72.164            144.880
 Electronic               0.000              0.000              0.000
 Translational            0.889              2.981             42.625
 Rotational               0.889              2.981             33.444
 Vibrational            242.043             66.203             68.811
 Vibration     1          0.593              1.986              6.614
 Vibration     2          0.593              1.984              5.849
 Vibration     3          0.595              1.979              4.985
 Vibration     4          0.596              1.974              4.496
 Vibration     5          0.597              1.972              4.343
 Vibration     6          0.599              1.965              3.975
 Vibration     7          0.604              1.948              3.414
 Vibration     8          0.614              1.918              2.864
 Vibration     9          0.617              1.908              2.733
 Vibration    10          0.621              1.892              2.561
 Vibration    11          0.640              1.833              2.086
 Vibration    12          0.643              1.822              2.024
 Vibration    13          0.658              1.778              1.796
 Vibration    14          0.663              1.762              1.729
 Vibration    15          0.675              1.724              1.580
 Vibration    16          0.689              1.685              1.451
 Vibration    17          0.698              1.659              1.374
 Vibration    18          0.703              1.642              1.328
 Vibration    19          0.720              1.596              1.214
 Vibration    20          0.737              1.547              1.107
 Vibration    21          0.756              1.495              1.007
 Vibration    22          0.784              1.424              0.888
 Vibration    23          0.812              1.352              0.784
 Vibration    24          0.824              1.323              0.746
 Vibration    25          0.852              1.259              0.668
 Vibration    26          0.866              1.225              0.631
 Vibration    27          0.870              1.217              0.622
 Vibration    28          0.911              1.127              0.532
 Vibration    29          0.943              1.061              0.474

                           ! Non-Optimized Parameters !
 Normal termination of Gaussian 16 at Sat Dec 12 10:26:43 2020.

 ----------------------------------------------------------------------
 # B3LYP/6-311++G(d,p) empiricaldispersion=gd3bj scf=xqc pop=npa geom=c
 heck
 ----------------------------------------------------------------------

 ---------------------------------------
 CID_128371248_JID_9209_Energie_neutraal
 ---------------------------------------
 Structure from the checkpoint file:  "JID_9209.chk"
 Charge =  0 Multiplicity = 1

 SCF Done:  E(RB3LYP) =  -858.505338884     A.U. after   16 cycles
 Normal termination of Gaussian 16 at Sat Dec 12 10:36:04 2020.

 ----------------------------------------------------------------------
 # B3LYP/6-311++G(d,p) empiricaldispersion=gd3bj scf=xqc pop=npa geom=c
 heck
 ----------------------------------------------------------------------

 -------------------------------------
 CID_128371248_JID_9209_Energie_kation
 -------------------------------------
 Structure from the checkpoint file:  "JID_9209.chk"
 Charge =  1 Multiplicity = 2

 SCF Done:  E(UB3LYP) =  -858.249263134     A.U. after   21 cycles
 Normal termination of Gaussian 16 at Sat Dec 12 10:52:30 2020.
 Gaussian 16:  ES64L-G16RevA.03 25-Dec-2016

 ----------------------------------------------------------------------
 # B3LYP/6-311++G(d,p) empiricaldispersion=gd3bj scf=xqc pop=npa geom=c
 heck
 ----------------------------------------------------------------------

 ------------------------------------
 CID_128371248_JID_9209_Energie_anion
 ------------------------------------
 Structure from the checkpoint file:  "JID_9209.chk"
 Charge = -1 Multiplicity = 2

                         Standard orientation:
 ---------------------------------------------------------------------
 Center     Atomic      Atomic             Coordinates (Angstroms)
 Number     Number       Type             X           Y           Z
 ---------------------------------------------------------------------
      1          6           0       -3.863876    1.990112    0.397239
      2          6           0       -4.046091    0.905520   -0.661641
      3          7           0       -3.271573   -0.302684   -0.380794
      4          6           0       -3.715283   -1.484847    0.144536
      5          7           0       -2.730702   -2.343755    0.272369
      6          7           0       -1.590482   -1.726364   -0.199596
      7          6           0       -1.923080   -0.508654   -0.566930
      8          7           0       -1.091697    0.477560   -1.093570
      9          6           0        0.102391    1.007588   -0.594265
     10          8           0        0.797780    1.636164   -1.377011
     11          6           0        0.524149    0.874091    0.896847
     12          6           0       -0.561283    0.483952    1.912552
     13          7           0        1.721791    0.082255    1.043411
     14          6           0        2.989452    0.741784    1.292274
     15          6           0        3.718601    1.254197    0.038741
     16          6           0        4.257792    0.149744   -0.879362
     17          6           0        3.250818   -0.945241   -1.270983
     18          6           0        2.854554   -1.858192   -0.098010
     19          6           0        1.686393   -1.344709    0.763037
     20          1           0       -4.131425    1.614412    1.389674
     21          1           0       -4.505474    2.846467    0.165199
     22          1           0       -2.827313    2.335662    0.422614
     23          1           0       -5.093469    0.599223   -0.732572
     24          1           0       -3.749657    1.276681   -1.647149
     25          1           0       -4.750438   -1.666085    0.398993
     26          1           0       -1.160115    0.647355   -2.093668
     27          1           0        0.815484    1.907114    1.117945
     28          1           0       -0.802632   -0.578276    1.868756
     29          1           0       -0.176453    0.702197    2.913674
     30          1           0       -1.484387    1.057209    1.771815
     31          1           0        3.635520    0.045036    1.844968
     32          1           0        2.810566    1.588541    1.970413
     33          1           0        4.555787    1.893407    0.355856
     34          1           0        3.019973    1.884707   -0.520030
     35          1           0        4.649373    0.618404   -1.791804
     36          1           0        5.117348   -0.337145   -0.393523
     37          1           0        2.359130   -0.488364   -1.716901
     38          1           0        3.711068   -1.562331   -2.053580
     39          1           0        2.565773   -2.850334   -0.468369
     40          1           0        3.739840   -2.022838    0.531448
     41          1           0        0.747679   -1.566997    0.248487
     42          1           0        1.663000   -1.934517    1.696896
 ---------------------------------------------------------------------

 SCF Done:  E(UB3LYP) =  -858.500928298     A.U. after   33 cycles
 SCF Done:  E(UB3LYP) =  -858.500928298     a.u. after    1 cycles

 The electronic state is 2-A.
 Alpha  occ. eigenvalues --  -19.01356 -14.29385 -14.26941 -14.23706 -14.23559
 Alpha  occ. eigenvalues --  -14.21191 -10.19910 -10.18114 -10.14203 -10.13217
 Alpha  occ. eigenvalues --  -10.12597 -10.11165 -10.09971 -10.08197 -10.08043
 Alpha  occ. eigenvalues --  -10.07832 -10.07370 -10.07292 -10.07219  -0.98372
 Alpha  occ. eigenvalues --   -0.96566  -0.85597  -0.84093  -0.83718  -0.72082
 Alpha  occ. eigenvalues --   -0.71278  -0.68419  -0.68031  -0.67516  -0.59379
 Alpha  occ. eigenvalues --   -0.57986  -0.57688  -0.56681  -0.55179  -0.53061
 Alpha  occ. eigenvalues --   -0.50075  -0.48277  -0.46002  -0.45410  -0.42002
 Alpha  occ. eigenvalues --   -0.41067  -0.40369  -0.38475  -0.38388  -0.37495
 Alpha  occ. eigenvalues --   -0.36942  -0.35829  -0.35356  -0.35063  -0.34426
 Alpha  occ. eigenvalues --   -0.32801  -0.32096  -0.31285  -0.30826  -0.30536
 Alpha  occ. eigenvalues --   -0.30088  -0.28952  -0.28753  -0.27332  -0.27005
 Alpha  occ. eigenvalues --   -0.25924  -0.24841  -0.24126  -0.23852  -0.23111
 Alpha  occ. eigenvalues --   -0.22957  -0.21171  -0.20186  -0.18655  -0.17593
 Alpha  occ. eigenvalues --   -0.16528  -0.11197   0.03906
 Alpha virt. eigenvalues --    0.05623   0.06560   0.06993   0.07327   0.07512
 Alpha virt. eigenvalues --    0.07760   0.08185   0.09069   0.09611   0.09814
 Alpha virt. eigenvalues --    0.09911   0.10535   0.10806   0.10929   0.11297

  Beta  occ. eigenvalues --  -19.01352 -14.29386 -14.26916 -14.23703 -14.23554
  Beta  occ. eigenvalues --  -14.21191 -10.19909 -10.18104 -10.14171 -10.13209
  Beta  occ. eigenvalues --  -10.12524 -10.11160 -10.09969 -10.08196 -10.08042
  Beta  occ. eigenvalues --  -10.07830 -10.07316 -10.07282 -10.07217  -0.98353
  Beta  occ. eigenvalues --   -0.96556  -0.85566  -0.84087  -0.83693  -0.72075
  Beta  occ. eigenvalues --   -0.71247  -0.68413  -0.67957  -0.67496  -0.59367
  Beta  occ. eigenvalues --   -0.57978  -0.57642  -0.56594  -0.55158  -0.53003
  Beta  occ. eigenvalues --   -0.50036  -0.48270  -0.45971  -0.45339  -0.41978
  Beta  occ. eigenvalues --   -0.41001  -0.40359  -0.38449  -0.38346  -0.37435
  Beta  occ. eigenvalues --   -0.36929  -0.35793  -0.35349  -0.35040  -0.34410
  Beta  occ. eigenvalues --   -0.32791  -0.32070  -0.31227  -0.30800  -0.30514
  Beta  occ. eigenvalues --   -0.30050  -0.28946  -0.28691  -0.27320  -0.26946
  Beta  occ. eigenvalues --   -0.25912  -0.24834  -0.24121  -0.23846  -0.23099
  Beta  occ. eigenvalues --   -0.22951  -0.21143  -0.20150  -0.18637  -0.17566
  Beta  occ. eigenvalues --   -0.16496  -0.11194
  Beta virt. eigenvalues --    0.05542   0.06584   0.07145   0.07177   0.07309
  Beta virt. eigenvalues --    0.08092   0.08263   0.08772   0.09251   0.09675
  Beta virt. eigenvalues --    0.09744   0.10340   0.10600   0.11077   0.11136

 Mulliken charges and spin densities:
               1          2
     1  C    0.792762  -1.202853
     2  C    0.867284  -1.072825
     3  N   -0.170863   0.255674
     4  C    0.511472  -0.405732
     5  N   -0.070384   0.010135
     6  N   -0.086735   0.033060
     7  C    0.446169  -0.837247
     8  N   -0.399900   0.162607
     9  C   -0.103073  -0.100927
    10  O   -0.252836   0.020573
    11  C   -0.379270  -0.160812
    12  C   -0.249884  -0.203521
    13  N    0.304072   0.016650
    14  C   -0.244927   0.018391
    15  C   -0.074716  -0.050557
    16  C   -0.485468  -0.147895
    17  C    0.004035   0.041186
    18  C   -0.420207  -0.067252
    19  C   -0.199064  -0.004983
    20  H   -0.075105   0.225636
    21  H   -0.718356   0.895878
    22  H   -0.106968   0.279457
    23  H   -0.945121   1.148479
    24  H   -0.427933   0.586636
    25  H   -0.565745   0.761401
    26  H    0.062168   0.277147
    27  H    0.025246   0.171102
    28  H    0.156476   0.017952
    29  H    0.016181   0.154826
    30  H    0.217479  -0.103517
    31  H    0.091018   0.049666
    32  H    0.070100   0.069146
    33  H    0.073612   0.059885
    34  H    0.190839   0.004603
    35  H    0.123995   0.018255
    36  H    0.109171   0.007753
    37  H    0.151594   0.024877
    38  H    0.134198   0.035397
    39  H    0.154586   0.011645
    40  H    0.108199   0.016470
    41  H    0.252044  -0.051374
    42  H    0.113855   0.035009
 Sum of Mulliken charges =  -1.00000   1.00000

 Dipole moment (field-independent basis, Debye):
    X=             12.9108    Y=             -2.3264    Z=              2.6848  Tot=             13.3906
 Quadrupole moment (field-independent basis, Debye-Ang):
   XX=           -230.9265   YY=           -167.0049   ZZ=           -148.7528
   XY=             10.1374   XZ=             -6.7856   YZ=              7.9104

 Summary of Natural Population Analysis:

                                       Natural Population
                Natural  -----------------------------------------------
    Atom  No    Charge         Core      Valence    Rydberg      Total
 -----------------------------------------------------------------------
      C    1   -0.28780      0.99966     2.28269    0.00546     3.28780
      C    2   -0.08580      0.99961     2.07420    0.01198     3.08580
      N    3   -0.21162      0.99962     2.69838    0.01362     3.71162
      C    4    0.10909      0.99962     1.87511    0.01618     2.89091
      N    5   -0.16087      0.99973     2.64858    0.01256     3.66087
      N    6   -0.17243      0.99967     2.65983    0.01293     3.67243
      C    7    0.26420      0.99957     1.71852    0.01771     2.73580
      N    8   -0.33096      0.99964     2.82162    0.00970     3.83096
      C    9    0.35240      0.99965     1.62346    0.02449     2.64760
      O   10   -0.31577      0.99987     3.30961    0.00629     4.31577
      C   11   -0.03392      0.99954     2.02187    0.01251     3.03392
      C   12   -0.29930      0.99964     2.29321    0.00645     3.29930
      N   13   -0.28803      0.99969     2.77566    0.01268     3.78803
      C   14   -0.07865      0.99961     2.06698    0.01206     3.07865
      C   15   -0.20412      0.99962     2.19664    0.00787     3.20412
      C   16   -0.18521      0.99963     2.17784    0.00774     3.18521
      C   17   -0.19719      0.99963     2.18915    0.00842     3.19719
      C   18   -0.19608      0.99963     2.18865    0.00780     3.19608
      C   19   -0.08742      0.99960     2.07814    0.00967     3.08742
      H   20    0.10011      0.00000     0.39853    0.00136     0.39989
      H   21    0.11104      0.00000     0.38623    0.00273     0.38896
      H   22    0.09885      0.00000     0.39960    0.00154     0.40115
      H   23    0.11114      0.00000     0.37853    0.01032     0.38886
      H   24    0.10610      0.00000     0.38905    0.00486     0.39390
      H   25    0.10344      0.00000     0.39485    0.00171     0.39656
      H   26    0.20433      0.00000     0.29300    0.00268     0.29567
      H   27    0.10869      0.00000     0.38966    0.00165     0.39131
      H   28    0.11048      0.00000     0.38834    0.00118     0.38952
      H   29    0.10133      0.00000     0.39769    0.00097     0.39867
      H   30    0.10148      0.00000     0.39735    0.00117     0.39852
      H   31    0.08883      0.00000     0.40998    0.00119     0.41117
      H   32    0.09251      0.00000     0.40644    0.00106     0.40749
      H   33    0.09037      0.00000     0.40839    0.00124     0.40963
      H   34    0.11194      0.00000     0.38653    0.00152     0.38806
      H   35    0.09702      0.00000     0.40201    0.00097     0.40298
      H   36    0.08652      0.00000     0.41215    0.00134     0.41348
      H   37    0.10526      0.00000     0.39331    0.00142     0.39474
      H   38    0.09474      0.00000     0.40434    0.00092     0.40526
      H   39    0.10093      0.00000     0.39803    0.00104     0.39907
      H   40    0.08849      0.00000     0.40994    0.00158     0.41151
      H   41    0.11228      0.00000     0.38539    0.00234     0.38772
      H   42    0.08361      0.00000     0.41535    0.00104     0.41639
 =======================================================================
   * Total *   -0.00000     18.99322    52.74484    0.26194    72.00000

 Normal termination of Gaussian 16 at Sat Dec 12 11:18:42 2020.
