 Gaussian 16, Revision A.03,

 -----------------------------------------------------------
 # opt freq B3LYP/6-31G(d) empiricaldispersion=gd3bj scf=xqc
 -----------------------------------------------------------

 -----------------------------
 CID_140166328_JID_53_neutraal
 -----------------------------
 Symbolic Z-matrix:
 Charge =  0 Multiplicity = 1

 SCF Done:  E(RB3LYP) =  -457.517551955     A.U. after   14 cycles
 SCF Done:  E(RB3LYP) =  -457.523646578     A.U. after   12 cycles
 SCF Done:  E(RB3LYP) =  -457.524537548     A.U. after   12 cycles
 SCF Done:  E(RB3LYP) =  -457.525088470     A.U. after   12 cycles
 SCF Done:  E(RB3LYP) =  -457.525255791     A.U. after   12 cycles
 SCF Done:  E(RB3LYP) =  -457.525449681     A.U. after   11 cycles
 SCF Done:  E(RB3LYP) =  -457.525482081     A.U. after   11 cycles
 SCF Done:  E(RB3LYP) =  -457.525488461     A.U. after    9 cycles
 SCF Done:  E(RB3LYP) =  -457.525495380     A.U. after   10 cycles
 SCF Done:  E(RB3LYP) =  -457.525496581     A.U. after    8 cycles
 SCF Done:  E(RB3LYP) =  -457.525496813     A.U. after    7 cycles
 SCF Done:  E(RB3LYP) =  -457.525496862     A.U. after    7 cycles
 Optimization completed.
    -- Stationary point found.
 Normal termination of Gaussian 16 at Tue Dec  8 10:15:50 2020.

 --------------------------------------------------------------------
 #N Geom=AllCheck Guess=TCheck SCRF=Check GenChk RB3LYP/6-31G(d) Freq
 --------------------------------------------------------------------

 Structure from the checkpoint file:  "JID_53.chk"
 -----------------------------
 CID_140166328_JID_53_neutraal
 -----------------------------
 Charge =  0 Multiplicity = 1

 SCF Done:  E(RB3LYP) =  -457.525496862     A.U. after    1 cycles

  Exact polarizability: 104.010   5.877  94.010  -0.801  -0.086  55.063
 Approx polarizability: 139.487   7.579 146.333  -3.719   1.103  84.017

                      1                      2                      3
                      A                      A                      A
 Frequencies --    107.8787               145.6176               154.7933
 Red. masses --      4.1285                 2.4719                 2.9162
 Frc consts  --      0.0283                 0.0309                 0.0412
 IR Inten    --      0.6320                 6.0572                 2.1629

                      4                      5                      6
                      A                      A                      A
 Frequencies --    225.6424               257.8611               307.4300
 Red. masses --      2.1210                 2.4045                 5.3233
 Frc consts  --      0.0636                 0.0942                 0.2964
 IR Inten    --      3.6737                 3.1250                 7.9496

                      7                      8                      9
                      A                      A                      A
 Frequencies --    451.2849               494.1754               547.7660
 Red. masses --      3.4917                 5.1939                 3.3364
 Frc consts  --      0.4190                 0.7473                 0.5898
 IR Inten    --      2.5773                 4.9648                11.5881

                     10                     11                     12
                      A                      A                      A
 Frequencies --    562.0691               612.1768               644.6301
 Red. masses --      1.8723                 3.5928                 2.3831
 Frc consts  --      0.3485                 0.7933                 0.5835
 IR Inten    --     86.7448                 9.4010                 3.9774

                     13                     14                     15
                      A                      A                      A
 Frequencies --    668.0386               717.3888               748.7562
 Red. masses --      4.4637                 1.7535                 2.6483
 Frc consts  --      1.1737                 0.5317                 0.8748
 IR Inten    --      2.1871                38.2075                 3.9527

                     16                     17                     18
                      A                      A                      A
 Frequencies --    785.0370               878.1894               914.9633
 Red. masses --      1.7169                 2.2211                 1.8608
 Frc consts  --      0.6234                 1.0092                 0.9178
 IR Inten    --     76.1767                 8.1668                 1.6827

                     19                     20                     21
                      A                      A                      A
 Frequencies --    932.7118               965.0795              1023.6762
 Red. masses --      2.3298                 2.4452                 2.5435
 Frc consts  --      1.1942                 1.3418                 1.5704
 IR Inten    --      1.9089                 3.2697                22.5329

                     22                     23                     24
                      A                      A                      A
 Frequencies --   1054.1742              1076.5918              1100.4389
 Red. masses --      2.1353                 2.2438                 2.1770
 Frc consts  --      1.3981                 1.5323                 1.5532
 IR Inten    --      1.4374                13.1995                10.5187

                     25                     26                     27
                      A                      A                      A
 Frequencies --   1138.5024              1168.5288              1204.6391
 Red. masses --      1.7587                 2.4869                 1.2322
 Frc consts  --      1.3431                 2.0007                 1.0535
 IR Inten    --     24.7552                17.8795                 1.9889

                     28                     29                     30
                      A                      A                      A
 Frequencies --   1216.7755              1233.0189              1263.0360
 Red. masses --      1.4218                 1.3587                 1.3453
 Frc consts  --      1.2402                 1.2170                 1.2644
 IR Inten    --     30.8234                10.9968                17.4028

                     31                     32                     33
                      A                      A                      A
 Frequencies --   1278.4423              1319.3746              1353.2366
 Red. masses --      1.5812                 1.7184                 1.4236
 Frc consts  --      1.5226                 1.7624                 1.5360
 IR Inten    --      2.3239                18.0893                14.6946

                     34                     35                     36
                      A                      A                      A
 Frequencies --   1361.5121              1378.3654              1413.5223
 Red. masses --      1.4492                 1.6026                 2.9085
 Frc consts  --      1.5828                 1.7939                 3.4240
 IR Inten    --      8.8053                25.1037               118.8608

                     37                     38                     39
                      A                      A                      A
 Frequencies --   1449.5086              1462.3900              1490.0672
 Red. masses --      2.7434                 1.6143                 1.0947
 Frc consts  --      3.3961                 2.0341                 1.4321
 IR Inten    --    173.6461                 9.7205                 5.3674

                     40                     41                     42
                      A                      A                      A
 Frequencies --   1523.9188              1543.9823              1556.0662
 Red. masses --      1.0913                 1.0963                 1.0981
 Frc consts  --      1.4932                 1.5398                 1.5665
 IR Inten    --      0.8137                 8.5402                 6.5619

                     43                     44                     45
                      A                      A                      A
 Frequencies --   1770.9221              1788.1152              2989.5982
 Red. masses --      7.8746                11.7513                 1.0740
 Frc consts  --     14.5505                22.1374                 5.6558
 IR Inten    --    209.9344               348.8436                56.7731

                     46                     47                     48
                      A                      A                      A
 Frequencies --   3007.4495              3037.0158              3065.3246
 Red. masses --      1.0731                 1.0692                 1.0687
 Frc consts  --      5.7187                 5.8102                 5.9164
 IR Inten    --     75.7310                19.4533                28.0959

                     49                     50                     51
                      A                      A                      A
 Frequencies --   3077.5265              3115.8333              3128.4102
 Red. masses --      1.0891                 1.0926                 1.0934
 Frc consts  --      6.0772                 6.2494                 6.3046
 IR Inten    --     38.3024                41.1672                15.3443

                     52                     53                     54
                      A                      A                      A
 Frequencies --   3140.4968              3217.8671              3585.5473
 Red. masses --      1.0990                 1.0914                 1.0763
 Frc consts  --      6.3864                 6.6583                 8.1525
 IR Inten    --     16.8455                10.9311                 9.6954

 - Thermochemistry -
 -------------------
 Temperature   298.150 Kelvin.  Pressure   1.00000 Atm.
 Atom     1 has atomic number  6 and mass  12.00000

 Molecular mass:   138.07931 amu.
 Principal axes and moments of inertia in atomic units:
                           1         2         3
     Eigenvalues --   856.613391274.484402049.75730
           X            0.99652   0.08322   0.00540
           Y           -0.08319   0.99651  -0.00628
           Z           -0.00590   0.00580   0.99997
 This molecule is an asymmetric top.
 Rotational symmetry number  1.
 Warning -- assumption of classical behavior for rotation
           may cause significant error
 Rotational temperatures (Kelvin)      0.10111     0.06796     0.04226
 Rotational constants (GHZ):           2.10683     1.41606     0.88047
 Zero-point vibrational energy     446538.2 (Joules/Mol)
                                  106.72520 (Kcal/Mol)
 Warning -- explicit consideration of  11 degrees of freedom as
           vibrations may cause significant error
 Vibrational temperatures:    155.21   209.51   222.71   324.65   371.00
          (Kelvin)            442.32   649.30   711.01   788.11   808.69
                              880.79   927.48   961.16  1032.16  1077.29
                             1129.49  1263.52  1316.43  1341.96  1388.53
                             1472.84  1516.72  1548.98  1583.29  1638.05
                             1681.25  1733.21  1750.67  1774.04  1817.23
                             1839.39  1898.29  1947.01  1958.91  1983.16
                             2033.74  2085.52  2104.05  2143.87  2192.58
                             2221.45  2238.83  2547.96  2572.70  4301.36
                             4327.05  4369.59  4410.32  4427.87  4482.99
                             4501.08  4518.47  4629.79  5158.80

 Zero-point correction=                           0.170077 (Hartree/Particle)
 Thermal correction to Energy=                    0.178391
 Thermal correction to Enthalpy=                  0.179335
 Thermal correction to Gibbs Free Energy=         0.136954
 Sum of electronic and zero-point Energies=           -457.355419
 Sum of electronic and thermal Energies=              -457.347106
 Sum of electronic and thermal Enthalpies=            -457.346162
 Sum of electronic and thermal Free Energies=         -457.388543

                     E (Thermal)             CV                S
                      KCal/Mol        Cal/Mol-Kelvin    Cal/Mol-Kelvin
 Total                  111.942             32.467             89.199
 Electronic               0.000              0.000              0.000
 Translational            0.889              2.981             40.680
 Rotational               0.889              2.981             29.194
 Vibrational            110.165             26.506             19.325
 Vibration     1          0.606              1.943              3.307
 Vibration     2          0.617              1.907              2.729
 Vibration     3          0.620              1.897              2.612
 Vibration     4          0.650              1.802              1.913
 Vibration     5          0.667              1.749              1.676
 Vibration     6          0.697              1.660              1.376
 Vibration     7          0.810              1.358              0.792
 Vibration     8          0.850              1.263              0.673
 Vibration     9          0.903              1.145              0.549
 Vibration    10          0.918              1.113              0.520
 Vibration    11          0.971              1.006              0.429

 Optimization completed.
    -- Stationary point found.
 Normal termination of Gaussian 16 at Tue Dec  8 10:19:12 2020.

 ----------------------------------------------------------------------
 # B3LYP/6-311++G(d,p) empiricaldispersion=gd3bj scf=xqc pop=npa geom=c
 heck
 ----------------------------------------------------------------------

 -------------------------------------
 CID_140166328_JID_53_Energie_neutraal
 -------------------------------------
 Structure from the checkpoint file:  "JID_53.chk"
 Charge =  0 Multiplicity = 1

 SCF Done:  E(RB3LYP) =  -457.656435347     A.U. after   14 cycles
 Normal termination of Gaussian 16 at Tue Dec  8 10:20:02 2020.

 ----------------------------------------------------------------------
 # B3LYP/6-311++G(d,p) empiricaldispersion=gd3bj scf=xqc pop=npa geom=c
 heck
 ----------------------------------------------------------------------

 -----------------------------------
 CID_140166328_JID_53_Energie_kation
 -----------------------------------
 Structure from the checkpoint file:  "JID_53.chk"
 Charge =  1 Multiplicity = 2

 SCF Done:  E(UB3LYP) =  -457.380586791     A.U. after   19 cycles
 Normal termination of Gaussian 16 at Tue Dec  8 10:21:55 2020.
 Gaussian 16:  ES64L-G16RevA.03 25-Dec-2016

 ----------------------------------------------------------------------
 # B3LYP/6-311++G(d,p) empiricaldispersion=gd3bj scf=xqc pop=npa geom=c
 heck
 ----------------------------------------------------------------------

 ----------------------------------
 CID_140166328_JID_53_Energie_anion
 ----------------------------------
 Structure from the checkpoint file:  "JID_53.chk"
 Charge = -1 Multiplicity = 2

                         Standard orientation:
 ---------------------------------------------------------------------
 Center     Atomic      Atomic             Coordinates (Angstroms)
 Number     Number       Type             X           Y           Z
 ---------------------------------------------------------------------
      1          6           0       -1.910863   -1.342904    0.311988
      2          6           0       -2.144731    0.064391   -0.262108
      3          6           0       -1.004169    1.043881   -0.015516
      4          8           0       -1.139440    2.257648    0.039556
      5          7           0        0.236493    0.455478    0.070411
      6          6           0        1.482835    1.215281    0.006738
      7          6           0        2.530346    0.107900    0.198026
      8          7           0        1.837354   -1.073354   -0.336542
      9          6           0        0.466470   -0.927587   -0.088642
     10          6           0       -0.517066   -1.833925    0.001133
     11          1           0       -2.083430   -1.324496    1.400744
     12          1           0       -2.663174   -2.024646   -0.100398
     13          1           0       -2.245623   -0.001485   -1.355299
     14          1           0       -3.061135    0.521614    0.119291
     15          1           0        1.513676    1.980325    0.784636
     16          1           0        1.575264    1.709401   -0.967602
     17          1           0        2.779183   -0.002394    1.264743
     18          1           0        3.451555    0.305653   -0.356246
     19          1           0        2.221566   -1.969185   -0.061227
     20          1           0       -0.306229   -2.893052   -0.091890
 ---------------------------------------------------------------------

 SCF Done:  E(UB3LYP) =  -457.642817321     A.U. after   31 cycles

 The electronic state is 2-A.
 Alpha  occ. eigenvalues --  -18.99279 -14.24837 -14.21541 -10.17425 -10.13186
 Alpha  occ. eigenvalues --  -10.10810 -10.09930 -10.07993 -10.07503 -10.04177
 Alpha  occ. eigenvalues --   -0.94640  -0.88681  -0.78853  -0.71261  -0.65245
 Alpha  occ. eigenvalues --   -0.61936  -0.54117  -0.53274  -0.51450  -0.40626
 Alpha  occ. eigenvalues --   -0.40574  -0.39575  -0.37856  -0.35732  -0.34371
 Alpha  occ. eigenvalues --   -0.33051  -0.31590  -0.30223  -0.28354  -0.27727
 Alpha  occ. eigenvalues --   -0.27001  -0.26257  -0.24977  -0.22815  -0.16187
 Alpha  occ. eigenvalues --   -0.15041  -0.08955   0.04789
 Alpha virt. eigenvalues --    0.07044   0.08065   0.08928   0.09349   0.09977
 Alpha virt. eigenvalues --    0.10061   0.10556   0.11662   0.12589   0.13208
 Alpha virt. eigenvalues --    0.14948   0.15594   0.15821   0.17062   0.18311

  Beta  occ. eigenvalues --  -18.99275 -14.24824 -14.21501 -10.17424 -10.13189
  Beta  occ. eigenvalues --  -10.10797 -10.09877 -10.07982 -10.07485 -10.04161
  Beta  occ. eigenvalues --   -0.94630  -0.88652  -0.78801  -0.71234  -0.65200
  Beta  occ. eigenvalues --   -0.61899  -0.54068  -0.53187  -0.51393  -0.40580
  Beta  occ. eigenvalues --   -0.40508  -0.39531  -0.37809  -0.35708  -0.34292
  Beta  occ. eigenvalues --   -0.33023  -0.31557  -0.30174  -0.28318  -0.27663
  Beta  occ. eigenvalues --   -0.26974  -0.26224  -0.24940  -0.22790  -0.16170
  Beta  occ. eigenvalues --   -0.15005  -0.08926
  Beta virt. eigenvalues --    0.07233   0.08176   0.08995   0.09258   0.09767
  Beta virt. eigenvalues --    0.10634   0.10825   0.11076   0.11971   0.13266
  Beta virt. eigenvalues --    0.13875   0.15046   0.15614   0.15951   0.17171

 Mulliken charges and spin densities:
               1          2
     1  C    1.031421  -1.543570
     2  C   -0.335074   0.012634
     3  C    0.057437   0.027480
     4  O   -0.369121   0.003191
     5  N   -0.019915   0.093117
     6  C   -0.454956   0.282804
     7  C    2.005290  -2.363509
     8  N   -0.479333   0.383460
     9  C    1.237449  -1.581287
    10  C   -0.881004   1.096347
    11  H   -0.109103   0.244850
    12  H   -0.158651   0.299265
    13  H   -0.028858   0.195905
    14  H    0.170458  -0.003606
    15  H   -0.080817   0.263921
    16  H    0.093430   0.096544
    17  H   -0.570428   0.749501
    18  H   -0.878985   1.061124
    19  H   -0.457796   0.734455
    20  H   -0.771443   0.947373
 Sum of Mulliken charges =  -1.00000   1.00000

 Dipole moment (field-independent basis, Debye):
    X=             -5.7799    Y=              2.8940    Z=             -1.2766  Tot=              6.5888
 Quadrupole moment (field-independent basis, Debye-Ang):
   XX=           -116.1852   YY=           -107.7773   ZZ=            -86.4550
   XY=              7.9131   XZ=             -2.8486   YZ=              0.0831

 Summary of Natural Population Analysis:

                                       Natural Population
                Natural  -----------------------------------------------
    Atom  No    Charge         Core      Valence    Rydberg      Total
 -----------------------------------------------------------------------
      C    1   -0.19754      0.99964     2.18746    0.01044     3.19754
      C    2   -0.22749      0.99960     2.22037    0.00752     3.22749
      C    3    0.35480      0.99965     1.62350    0.02206     2.64520
      O    4   -0.32047      0.99988     3.31504    0.00555     4.32047
      N    5   -0.25166      0.99960     2.74261    0.00946     3.75166
      C    6   -0.08350      0.99963     2.07229    0.01158     3.08350
      C    7   -0.08622      0.99963     2.07528    0.01131     3.08622
      N    8   -0.32071      0.99969     2.80896    0.01205     3.82071
      C    9    0.19206      0.99947     1.79426    0.01420     2.80794
      C   10   -0.17061      0.99949     2.16109    0.01003     3.17061
      H   11    0.09471      0.00000     0.40381    0.00148     0.40529
      H   12    0.10137      0.00000     0.39723    0.00140     0.39863
      H   13    0.10841      0.00000     0.39017    0.00141     0.39159
      H   14    0.10837      0.00000     0.39037    0.00126     0.39163
      H   15    0.10646      0.00000     0.39226    0.00128     0.39354
      H   16    0.09591      0.00000     0.40300    0.00109     0.40409
      H   17    0.09075      0.00000     0.40412    0.00513     0.40925
      H   18    0.10116      0.00000     0.39507    0.00377     0.39884
      H   19    0.19782      0.00000     0.28876    0.01341     0.30218
      H   20    0.10635      0.00000     0.39201    0.00164     0.39365
 =======================================================================
   * Total *    0.00000      9.99627    26.85767    0.14606    37.00000

 Normal termination of Gaussian 16 at Tue Dec  8 10:24:56 2020.
