 Gaussian 16, Revision A.03,

 -----------------------------------------------------------
 # opt freq B3LYP/6-31G(d) empiricaldispersion=gd3bj scf=xqc
 -----------------------------------------------------------

 ------------------------------
 CID_139939804_JID_800_neutraal
 ------------------------------
 Symbolic Z-matrix:
 Charge =  0 Multiplicity = 1

 SCF Done:  E(RB3LYP) =  -508.229936730     A.U. after   15 cycles
 SCF Done:  E(RB3LYP) =  -508.232082801     A.U. after   14 cycles
 SCF Done:  E(RB3LYP) =  -508.230877447     A.U. after   14 cycles
 SCF Done:  E(RB3LYP) =  -508.233434798     A.U. after   12 cycles
 SCF Done:  E(RB3LYP) =  -508.233541047     A.U. after   12 cycles
 SCF Done:  E(RB3LYP) =  -508.233587773     A.U. after   12 cycles
 SCF Done:  E(RB3LYP) =  -508.233652043     A.U. after   12 cycles
 SCF Done:  E(RB3LYP) =  -508.232151823     A.U. after   14 cycles
 SCF Done:  E(RB3LYP) =  -508.233731504     A.U. after   13 cycles
 SCF Done:  E(RB3LYP) =  -508.233771486     A.U. after   12 cycles
 SCF Done:  E(RB3LYP) =  -508.233785039     A.U. after    9 cycles
 SCF Done:  E(RB3LYP) =  -508.233785441     A.U. after    8 cycles
 SCF Done:  E(RB3LYP) =  -508.233785587     A.U. after    8 cycles
 SCF Done:  E(RB3LYP) =  -508.233785789     A.U. after    9 cycles
 SCF Done:  E(RB3LYP) =  -508.233786028     A.U. after    9 cycles
 SCF Done:  E(RB3LYP) =  -508.233786151     A.U. after    8 cycles
 Optimization completed.
    -- Stationary point found.
 Normal termination of Gaussian 16 at Tue Dec  8 12:40:51 2020.

 --------------------------------------------------------------------
 #N Geom=AllCheck Guess=TCheck SCRF=Check GenChk RB3LYP/6-31G(d) Freq
 --------------------------------------------------------------------

 Structure from the checkpoint file:  "JID_800.chk"
 ------------------------------
 CID_139939804_JID_800_neutraal
 ------------------------------
 Charge =  0 Multiplicity = 1

 SCF Done:  E(RB3LYP) =  -508.233786151     A.U. after    1 cycles

  Exact polarizability:  87.978  -3.840  82.487  -5.089  -2.739  41.841
 Approx polarizability: 133.285  -0.443 147.670 -11.348 -10.565  64.659

                      1                      2                      3
                      A                      A                      A
 Frequencies --     41.3997                74.1164               104.1372
 Red. masses --      6.0142                 7.1909                 2.7740
 Frc consts  --      0.0061                 0.0233                 0.0177
 IR Inten    --      1.6494                 2.0555                 5.2062

                      4                      5                      6
                      A                      A                      A
 Frequencies --    146.5635               178.8046               246.9646
 Red. masses --      4.0670                 5.3360                 5.1667
 Frc consts  --      0.0515                 0.1005                 0.1857
 IR Inten    --     18.8061                 3.9276                 6.8300

                      7                      8                      9
                      A                      A                      A
 Frequencies --    369.3841               422.0854               533.4797
 Red. masses --      3.6824                 7.3110                 5.2562
 Frc consts  --      0.2960                 0.7674                 0.8814
 IR Inten    --      6.7841                 9.3347                 1.4662

                     10                     11                     12
                      A                      A                      A
 Frequencies --    608.0899               637.5507               650.3708
 Red. masses --      4.4343                 2.4133                 2.1257
 Frc consts  --      0.9661                 0.5780                 0.5298
 IR Inten    --     14.3082                37.3367                17.9839

                     13                     14                     15
                      A                      A                      A
 Frequencies --    714.0347               741.5880               800.6187
 Red. masses --      2.1472                 3.3172                 2.2025
 Frc consts  --      0.6450                 1.0749                 0.8318
 IR Inten    --     75.9280                 1.9658                11.8301

                     16                     17                     18
                      A                      A                      A
 Frequencies --    898.5887               981.7333               995.0552
 Red. masses --      1.3636                 6.6379                 3.0370
 Frc consts  --      0.6487                 3.7694                 1.7717
 IR Inten    --     10.9383                 7.8642                73.0609

                     19                     20                     21
                      A                      A                      A
 Frequencies --   1038.2872              1042.1111              1133.5851
 Red. masses --      2.9672                 4.3178                 2.0496
 Frc consts  --      1.8846                 2.7627                 1.5518
 IR Inten    --     37.7764                22.2228                 4.9328

                     22                     23                     24
                      A                      A                      A
 Frequencies --   1152.1770              1210.8227              1232.2193
 Red. masses --      3.8213                 1.8460                 1.4906
 Frc consts  --      2.9888                 1.5946                 1.3335
 IR Inten    --     64.8093                 2.8050                 5.1420

                     25                     26                     27
                      A                      A                      A
 Frequencies --   1290.1941              1315.1887              1331.7483
 Red. masses --      1.4999                 4.6073                 3.0025
 Frc consts  --      1.4710                 4.6954                 3.1375
 IR Inten    --      2.3923                63.7562                41.0892

                     28                     29                     30
                      A                      A                      A
 Frequencies --   1424.9470              1445.5387              1450.4946
 Red. masses --      3.6319                 1.1624                 1.1099
 Frc consts  --      4.3450                 1.4311                 1.3759
 IR Inten    --     46.6518                11.8132                11.4325

                     31                     32                     33
                      A                      A                      A
 Frequencies --   1481.6090              1576.4223              1777.5429
 Red. masses --      4.7666                 4.3047                11.9372
 Frc consts  --      6.1649                 6.3028                22.2224
 IR Inten    --     46.7991                17.3434               238.3697

                     34                     35                     36
                      A                      A                      A
 Frequencies --   1842.4514              2944.1666              3066.9200
 Red. masses --     10.1825                 1.0864                 1.0586
 Frc consts  --     20.3656                 5.5481                 5.8668
 IR Inten    --    141.0989                88.4046                 0.2793

                     37                     38                     39
                      A                      A                      A
 Frequencies --   3117.6787              3291.0582              3645.3343
 Red. masses --      1.1034                 1.0978                 1.0822
 Frc consts  --      6.3188                 7.0057                 8.4727
 IR Inten    --      2.3800                 3.2148               102.7995

 - Thermochemistry -
 -------------------
 Temperature   298.150 Kelvin.  Pressure   1.00000 Atm.
 Atom     1 has atomic number  6 and mass  12.00000

 Molecular mass:   139.03818 amu.
 Principal axes and moments of inertia in atomic units:
                           1         2         3
     Eigenvalues --   781.618381794.409482498.35798
           X            0.99984  -0.01781  -0.00249
           Y            0.01782   0.99983   0.00423
           Z            0.00241  -0.00428   0.99999
 This molecule is an asymmetric top.
 Rotational symmetry number  1.
 Warning -- assumption of classical behavior for rotation
           may cause significant error
 Rotational temperatures (Kelvin)      0.11081     0.04827     0.03467
 Rotational constants (GHZ):           2.30898     1.00576     0.72237
 Zero-point vibrational energy     280853.6 (Joules/Mol)
                                   67.12563 (Kcal/Mol)
 Warning -- explicit consideration of  10 degrees of freedom as
           vibrations may cause significant error
 Vibrational temperatures:     59.56   106.64   149.83   210.87   257.26
          (Kelvin)            355.33   531.46   607.29   767.56   874.91
                              917.29   935.74  1027.34  1066.98  1151.91
                             1292.87  1412.50  1431.66  1493.86  1499.37
                             1630.98  1657.73  1742.10  1772.89  1856.30
                             1892.26  1916.09  2050.18  2079.81  2086.94
                             2131.70  2268.12  2557.49  2650.88  4236.00
                             4412.61  4485.64  4735.10  5244.82

 Zero-point correction=                           0.106972 (Hartree/Particle)
 Thermal correction to Energy=                    0.115776
 Thermal correction to Enthalpy=                  0.116720
 Thermal correction to Gibbs Free Energy=         0.071543
 Sum of electronic and zero-point Energies=           -508.126815
 Sum of electronic and thermal Energies=              -508.118010
 Sum of electronic and thermal Enthalpies=            -508.117066
 Sum of electronic and thermal Free Energies=         -508.162243

                     E (Thermal)             CV                S
                      KCal/Mol        Cal/Mol-Kelvin    Cal/Mol-Kelvin
 Total                   72.650             30.346             95.083
 Electronic               0.000              0.000              0.000
 Translational            0.889              2.981             40.700
 Rotational               0.889              2.981             29.639
 Vibrational             70.873             24.384             24.744
 Vibration     1          0.594              1.981              5.191
 Vibration     2          0.599              1.966              4.041
 Vibration     3          0.605              1.946              3.375
 Vibration     4          0.617              1.906              2.716
 Vibration     5          0.629              1.868              2.341
 Vibration     6          0.661              1.768              1.752
 Vibration     7          0.742              1.535              1.082
 Vibration     8          0.784              1.422              0.885
 Vibration     9          0.888              1.176              0.579
 Vibration    10          0.967              1.015              0.436

 Optimization completed.
    -- Stationary point found.
 Normal termination of Gaussian 16 at Tue Dec  8 12:43:04 2020.

 ----------------------------------------------------------------------
 # B3LYP/6-311++G(d,p) empiricaldispersion=gd3bj scf=xqc pop=npa geom=c
 heck
 ----------------------------------------------------------------------

 --------------------------------------
 CID_139939804_JID_800_Energie_neutraal
 --------------------------------------
 Structure from the checkpoint file:  "JID_800.chk"
 Charge =  0 Multiplicity = 1

 SCF Done:  E(RB3LYP) =  -508.383155094     A.U. after   14 cycles
 Normal termination of Gaussian 16 at Tue Dec  8 12:50:24 2020.

 ----------------------------------------------------------------------
 # B3LYP/6-311++G(d,p) empiricaldispersion=gd3bj scf=xqc pop=npa geom=c
 heck
 ----------------------------------------------------------------------

 ------------------------------------
 CID_139939804_JID_800_Energie_kation
 ------------------------------------
 Structure from the checkpoint file:  "JID_800.chk"
 Charge =  1 Multiplicity = 2

 SCF Done:  E(UB3LYP) =  -508.024716495     A.U. after   26 cycles
 Normal termination of Gaussian 16 at Tue Dec  8 13:04:06 2020.
 Gaussian 16:  ES64L-G16RevA.03 25-Dec-2016

 ----------------------------------------------------------------------
 # B3LYP/6-311++G(d,p) empiricaldispersion=gd3bj scf=xqc pop=npa geom=c
 heck
 ----------------------------------------------------------------------

 -----------------------------------
 CID_139939804_JID_800_Energie_anion
 -----------------------------------
 Structure from the checkpoint file:  "JID_800.chk"
 Charge = -1 Multiplicity = 2

                         Standard orientation:
 ---------------------------------------------------------------------
 Center     Atomic      Atomic             Coordinates (Angstroms)
 Number     Number       Type             X           Y           Z
 ---------------------------------------------------------------------
      1          6           0        1.939734   -1.490581    0.111332
      2          7           0        2.795596   -0.494685   -0.127598
      3          7           0        1.983686    0.576930   -0.146847
      4          6           0        0.700975    0.208776    0.078231
      5          7           0        0.643259   -1.109681    0.245916
      6          6           0       -0.417233    1.171738    0.099099
      7          8           0       -0.202257    2.352057   -0.129053
      8          6           0       -1.784663    0.608018    0.416985
      9          6           0       -2.203664   -0.592198   -0.435164
     10          8           0       -3.036130   -1.386365   -0.071603
     11          1           0        2.271264   -2.516127    0.188837
     12          1           0        2.339398    1.509331   -0.312546
     13          1           0       -1.824677    0.292258    1.466118
     14          1           0       -2.515805    1.412934    0.276199
     15          1           0       -1.731768   -0.666397   -1.436543
 ---------------------------------------------------------------------

 SCF Done:  E(UB3LYP) =  -508.416397977     A.U. after   22 cycles

 The electronic state is 2-A.
 Alpha  occ. eigenvalues --  -18.98933 -18.91454 -14.22450 -14.18218 -14.14452
 Alpha  occ. eigenvalues --  -10.12821 -10.06968 -10.06532 -10.05579 -10.03458
 Alpha  occ. eigenvalues --   -0.92287  -0.92115  -0.85849  -0.74264  -0.67292
 Alpha  occ. eigenvalues --   -0.61999  -0.50070  -0.47088  -0.45306  -0.43692
 Alpha  occ. eigenvalues --   -0.36283  -0.33410  -0.32002  -0.30809  -0.30053
 Alpha  occ. eigenvalues --   -0.29442  -0.27674  -0.24682  -0.23594  -0.20998
 Alpha  occ. eigenvalues --   -0.18189  -0.15688  -0.13469  -0.13088  -0.11894
 Alpha  occ. eigenvalues --   -0.08493   0.03996
 Alpha virt. eigenvalues --    0.09957   0.10443   0.11372   0.12068   0.12286
 Alpha virt. eigenvalues --    0.13871   0.15463   0.16044   0.16790   0.18448
 Alpha virt. eigenvalues --    0.19010   0.19760   0.20562   0.21021   0.21624

  Beta  occ. eigenvalues --  -18.98910 -18.90703 -14.22116 -14.17944 -14.14198
  Beta  occ. eigenvalues --  -10.12763 -10.07073 -10.06452 -10.05090 -10.03500
  Beta  occ. eigenvalues --   -0.92081  -0.91815  -0.84489  -0.73733  -0.66769
  Beta  occ. eigenvalues --   -0.61657  -0.49236  -0.46962  -0.45060  -0.43197
  Beta  occ. eigenvalues --   -0.35892  -0.33160  -0.31198  -0.30208  -0.29594
  Beta  occ. eigenvalues --   -0.29343  -0.27277  -0.24023  -0.22984  -0.18024
  Beta  occ. eigenvalues --   -0.17696  -0.14122  -0.13175  -0.12922  -0.10091
  Beta  occ. eigenvalues --   -0.07849
  Beta virt. eigenvalues --    0.10085   0.10436   0.11333   0.12077   0.12161
  Beta virt. eigenvalues --    0.12397   0.13919   0.15858   0.16213   0.16830
  Beta virt. eigenvalues --    0.18840   0.19087   0.19835   0.20677   0.21078

 Mulliken charges and spin densities:
               1          2
     1  C    0.089181  -0.060489
     2  N   -0.243614   0.140845
     3  N   -0.152811   0.119037
     4  C   -0.019689   0.113662
     5  N   -0.177813   0.120669
     6  C   -0.261636   0.281879
     7  O   -0.482596   0.264741
     8  C   -0.200630  -0.052078
     9  C   -0.146866   0.039338
    10  O   -0.258844   0.004051
    11  H    0.121325   0.004329
    12  H    0.298028  -0.008403
    13  H    0.169921   0.032826
    14  H    0.159399  -0.003579
    15  H    0.106646   0.003171
 Sum of Mulliken charges =  -1.00000   1.00000

 Dipole moment (field-independent basis, Debye):
    X=              0.3928    Y=             -0.3653    Z=             -0.3841  Tot=              0.6598
 Quadrupole moment (field-independent basis, Debye-Ang):
   XX=            -86.7810   YY=            -79.2237   ZZ=            -61.2458
   XY=             -3.1153   XZ=              1.4832   YZ=              1.1053

 Summary of Natural Population Analysis:

                                       Natural Population
                Natural  -----------------------------------------------
    Atom  No    Charge         Core      Valence    Rydberg      Total
 -----------------------------------------------------------------------
      C    1    0.04278      0.99973     1.93581    0.02169     2.95722
      N    2   -0.13778      0.99974     2.62396    0.01408     3.63778
      N    3   -0.12900      0.99965     2.61644    0.01291     3.62900
      C    4    0.15915      0.99960     1.82456    0.01668     2.84085
      N    5   -0.23832      0.99969     2.72894    0.00969     3.73832
      C    6    0.30641      0.99963     1.67343    0.02053     2.69359
      O    7   -0.23214      0.99988     3.22551    0.00676     4.23214
      C    8   -0.28016      0.99959     2.27116    0.00941     3.28016
      C    9    0.24662      0.99975     1.73257    0.02106     2.75338
      O   10   -0.29059      0.99987     3.28224    0.00848     4.29059
      H   11    0.08181      0.00000     0.41710    0.00109     0.41819
      H   12    0.19746      0.00000     0.30015    0.00239     0.30254
      H   13    0.11442      0.00000     0.38358    0.00201     0.38558
      H   14    0.11069      0.00000     0.38705    0.00226     0.38931
      H   15    0.04866      0.00000     0.44914    0.00220     0.45134
 =======================================================================
   * Total *    0.00000      9.99713    25.85163    0.15123    36.00000

 Normal termination of Gaussian 16 at Tue Dec  8 13:08:24 2020.
