 Gaussian 16, Revision A.03,

 -----------------------------------------------------------
 # opt freq B3LYP/6-31G(d) empiricaldispersion=gd3bj scf=xqc
 -----------------------------------------------------------

 -------------------------------
 CID_130713961_JID_3500_neutraal
 -------------------------------
 Symbolic Z-matrix:
 Charge =  0 Multiplicity = 1

 SCF Done:  E(RB3LYP) =  -646.111154353     A.U. after   15 cycles
 SCF Done:  E(RB3LYP) =  -646.114560946     A.U. after   12 cycles
 SCF Done:  E(RB3LYP) =  -646.114983765     A.U. after   13 cycles
 SCF Done:  E(RB3LYP) =  -646.115252761     A.U. after   13 cycles
 SCF Done:  E(RB3LYP) =  -646.115611543     A.U. after   11 cycles
 SCF Done:  E(RB3LYP) =  -646.115935592     A.U. after   12 cycles
 SCF Done:  E(RB3LYP) =  -646.116001491     A.U. after   13 cycles
 SCF Done:  E(RB3LYP) =  -646.116308296     A.U. after   11 cycles
 SCF Done:  E(RB3LYP) =  -646.116398485     A.U. after   11 cycles
 SCF Done:  E(RB3LYP) =  -646.116586885     A.U. after   13 cycles
 SCF Done:  E(RB3LYP) =  -646.121572696     A.U. after   11 cycles
 SCF Done:  E(RB3LYP) =  -646.121580173     A.U. after   10 cycles
 SCF Done:  E(RB3LYP) =  -646.121588054     A.U. after   10 cycles
 SCF Done:  E(RB3LYP) =  -646.121591613     A.U. after   10 cycles
 SCF Done:  E(RB3LYP) =  -646.121592108     A.U. after    8 cycles
 Optimization completed.
    -- Stationary point found.
 Normal termination of Gaussian 16 at Wed Dec  9 23:34:25 2020.

 --------------------------------------------------------------------
 #N Geom=AllCheck Guess=TCheck SCRF=Check GenChk RB3LYP/6-31G(d) Freq
 --------------------------------------------------------------------

 Structure from the checkpoint file:  "JID_3500.chk"
 -------------------------------
 CID_130713961_JID_3500_neutraal
 -------------------------------
 Charge =  0 Multiplicity = 1

 SCF Done:  E(RB3LYP) =  -646.121592108     A.U. after    1 cycles

  Exact polarizability: 129.092  10.592 114.258  -6.889   5.549  62.097
 Approx polarizability: 211.775  19.958 165.344 -13.856  13.713  95.224

                      1                      2                      3
                      A                      A                      A
 Frequencies --     53.3045                76.0983               100.3196
 Red. masses --      7.9888                 7.1893                 4.9566
 Frc consts  --      0.0134                 0.0245                 0.0294
 IR Inten    --      6.3785                 1.5932                 1.2604

                      4                      5                      6
                      A                      A                      A
 Frequencies --    125.2902               142.0319               156.1715
 Red. masses --      4.0148                 4.0791                 1.2202
 Frc consts  --      0.0371                 0.0485                 0.0175
 IR Inten    --      9.3018                 0.7535                 0.2558

                      7                      8                      9
                      A                      A                      A
 Frequencies --    191.2962               239.9542               272.9307
 Red. masses --      5.5253                 4.3213                 3.4471
 Frc consts  --      0.1191                 0.1466                 0.1513
 IR Inten    --      0.9525                 1.1379                 3.6831

                     10                     11                     12
                      A                      A                      A
 Frequencies --    295.4100               379.9452               399.4972
 Red. masses --      5.8445                 3.5977                 5.2037
 Frc consts  --      0.3005                 0.3060                 0.4893
 IR Inten    --      4.3461                15.2717                 1.9581

                     13                     14                     15
                      A                      A                      A
 Frequencies --    456.9028               472.3137               542.8827
 Red. masses --      1.9426                 1.3311                 3.3018
 Frc consts  --      0.2389                 0.1749                 0.5733
 IR Inten    --     40.6321               200.6115                31.1210

                     16                     17                     18
                      A                      A                      A
 Frequencies --    548.5789               585.3286               595.9947
 Red. masses --      4.0038                 1.6410                 1.9083
 Frc consts  --      0.7099                 0.3312                 0.3994
 IR Inten    --     16.6475                37.5855                 4.9978

                     19                     20                     21
                      A                      A                      A
 Frequencies --    629.3228               656.0357               685.2508
 Red. masses --      2.9756                 2.6376                 2.1604
 Frc consts  --      0.6943                 0.6688                 0.5977
 IR Inten    --     18.8166                18.9101                 8.4389

                     22                     23                     24
                      A                      A                      A
 Frequencies --    709.7640               725.9362               741.0101
 Red. masses --      2.6188                 1.4586                 3.8225
 Frc consts  --      0.7773                 0.4529                 1.2366
 IR Inten    --     18.0942                64.1736                16.6921

                     25                     26                     27
                      A                      A                      A
 Frequencies --    776.5663               829.4772               862.0999
 Red. masses --      5.1848                 3.9488                 1.3882
 Frc consts  --      1.8422                 1.6008                 0.6079
 IR Inten    --     22.9230                 3.5408                 1.7077

                     28                     29                     30
                      A                      A                      A
 Frequencies --    884.9364               935.8555              1023.8878
 Red. masses --      4.7641                 2.3303                 3.1239
 Frc consts  --      2.1981                 1.2025                 1.9295
 IR Inten    --      0.1542                16.4238                20.9877

                     31                     32                     33
                      A                      A                      A
 Frequencies --   1048.9790              1113.4182              1114.6340
 Red. masses --      1.7785                 2.2522                 1.2502
 Frc consts  --      1.1530                 1.6450                 0.9152
 IR Inten    --     26.0070               189.2205                24.4575

                     34                     35                     36
                      A                      A                      A
 Frequencies --   1157.0516              1167.7273              1199.8080
 Red. masses --      1.9294                 1.3307                 2.4955
 Frc consts  --      1.5219                 1.0691                 2.1165
 IR Inten    --     38.3944                 3.7245                 8.0887

                     37                     38                     39
                      A                      A                      A
 Frequencies --   1216.6583              1264.1181              1320.0128
 Red. masses --      1.5117                 1.4058                 1.8896
 Frc consts  --      1.3185                 1.3236                 1.9399
 IR Inten    --     36.9800                69.1476                11.7214

                     40                     41                     42
                      A                      A                      A
 Frequencies --   1328.7248              1386.7374              1408.6139
 Red. masses --      1.5903                 3.1741                 4.0494
 Frc consts  --      1.6542                 3.5963                 4.7340
 IR Inten    --      0.4421               118.2634                23.6366

                     43                     44                     45
                      A                      A                      A
 Frequencies --   1435.6445              1474.6329              1497.7979
 Red. masses --      5.4155                 1.8377                 2.6819
 Frc consts  --      6.5763                 2.3545                 3.5448
 IR Inten    --     61.2041                34.8848                 6.0704

                     46                     47                     48
                      A                      A                      A
 Frequencies --   1509.2984              1526.7215              1551.6749
 Red. masses --      1.1221                 1.0696                 1.1064
 Frc consts  --      1.5060                 1.4689                 1.5695
 IR Inten    --     18.6494                 5.4640                17.1297

                     49                     50                     51
                      A                      A                      A
 Frequencies --   1557.3826              1594.3484              1660.2423
 Red. masses --      3.2843                 5.1366                 1.2324
 Frc consts  --      4.6933                 7.6929                 2.0015
 IR Inten    --     98.6848                18.7892                91.8913

                     52                     53                     54
                      A                      A                      A
 Frequencies --   1800.7962              1824.2480              3057.8007
 Red. masses --      8.4720                 9.2147                 1.0405
 Frc consts  --     16.1869                18.0675                 5.7323
 IR Inten    --    399.9048               403.8318                47.3022

                     55                     56                     57
                      A                      A                      A
 Frequencies --   3102.5038              3138.5711              3160.6582
 Red. masses --      1.0619                 1.0961                 1.1029
 Frc consts  --      6.0222                 6.3616                 6.4915
 IR Inten    --     11.9204                12.9536                 2.8089

                     58                     59                     60
                      A                      A                      A
 Frequencies --   3173.6209              3273.7335              3293.9628
 Red. masses --      1.1068                 1.0906                 1.1040
 Frc consts  --      6.5677                 6.8866                 7.0573
 IR Inten    --      1.7145                 0.2333                 1.7850

                     61                     62                     63
                      A                      A                      A
 Frequencies --   3548.4211              3683.1418              3689.0542
 Red. masses --      1.0473                 1.0998                 1.0678
 Frc consts  --      7.7695                 8.7903                 8.5615
 IR Inten    --     75.9130                93.5311                57.6531

 - Thermochemistry -
 -------------------
 Temperature   298.150 Kelvin.  Pressure   1.00000 Atm.
 Atom     1 has atomic number  6 and mass  12.00000

 Molecular mass:   182.06914 amu.
 Principal axes and moments of inertia in atomic units:
                           1         2         3
     Eigenvalues --  1765.530292388.177923831.12587
           X            0.99760   0.06876  -0.00791
           Y           -0.06876   0.99763   0.00083
           Z            0.00794  -0.00029   0.99997
 This molecule is an asymmetric top.
 Rotational symmetry number  1.
 Warning -- assumption of classical behavior for rotation
           may cause significant error
 Rotational temperatures (Kelvin)      0.04906     0.03627     0.02261
 Rotational constants (GHZ):           1.02221     0.75570     0.47107
 Zero-point vibrational energy     480750.1 (Joules/Mol)
                                  114.90202 (Kcal/Mol)
 Warning -- explicit consideration of  18 degrees of freedom as
           vibrations may cause significant error
 Vibrational temperatures:     76.69   109.49   144.34   180.26   204.35
          (Kelvin)            224.70   275.23   345.24   392.69   425.03
                              546.66   574.79   657.38   679.55   781.09
                              789.28   842.16   857.50   905.46   943.89
                              985.92  1021.19  1044.46  1066.15  1117.31
                             1193.43  1240.37  1273.23  1346.49  1473.15
                             1509.25  1601.96  1603.71  1664.74  1680.10
                             1726.26  1750.50  1818.78  1899.20  1911.74
                             1995.21  2026.68  2065.57  2121.67  2155.00
                             2171.54  2196.61  2232.51  2240.73  2293.91
                             2388.72  2590.94  2624.69  4399.49  4463.81
                             4515.70  4547.48  4566.13  4710.17  4739.28
                             5105.39  5299.22  5307.73

 Zero-point correction=                           0.183108 (Hartree/Particle)
 Thermal correction to Energy=                    0.195374
 Thermal correction to Enthalpy=                  0.196319
 Thermal correction to Gibbs Free Energy=         0.144432
 Sum of electronic and zero-point Energies=           -645.938484
 Sum of electronic and thermal Energies=              -645.926218
 Sum of electronic and thermal Enthalpies=            -645.925274
 Sum of electronic and thermal Free Energies=         -645.977161

                     E (Thermal)             CV                S
                      KCal/Mol        Cal/Mol-Kelvin    Cal/Mol-Kelvin
 Total                  122.599             45.964            109.205
 Electronic               0.000              0.000              0.000
 Translational            0.889              2.981             41.504
 Rotational               0.889              2.981             31.158
 Vibrational            120.822             40.002             36.543
 Vibration     1          0.596              1.976              4.691
 Vibration     2          0.599              1.965              3.989
 Vibration     3          0.604              1.949              3.448
 Vibration     4          0.610              1.928              3.017
 Vibration     5          0.615              1.911              2.776
 Vibration     6          0.620              1.896              2.596
 Vibration     7          0.634              1.852              2.215
 Vibration     8          0.657              1.779              1.803
 Vibration     9          0.676              1.723              1.578
 Vibration    10          0.690              1.682              1.443
 Vibration    11          0.750              1.513              1.039
 Vibration    12          0.766              1.471              0.964
 Vibration    13          0.815              1.346              0.775
 Vibration    14          0.829              1.311              0.731
 Vibration    15          0.898              1.155              0.559
 Vibration    16          0.904              1.143              0.547
 Vibration    17          0.942              1.063              0.476
 Vibration    18          0.954              1.040              0.457

 Optimization completed.
    -- Stationary point found.
 Normal termination of Gaussian 16 at Wed Dec  9 23:39:43 2020.

 ----------------------------------------------------------------------
 # B3LYP/6-311++G(d,p) empiricaldispersion=gd3bj scf=xqc pop=npa geom=c
 heck
 ----------------------------------------------------------------------

 ---------------------------------------
 CID_130713961_JID_3500_Energie_neutraal
 ---------------------------------------
 Structure from the checkpoint file:  "JID_3500.chk"
 Charge =  0 Multiplicity = 1

 SCF Done:  E(RB3LYP) =  -646.322223492     A.U. after   15 cycles
 Normal termination of Gaussian 16 at Wed Dec  9 23:41:30 2020.

 ----------------------------------------------------------------------
 # B3LYP/6-311++G(d,p) empiricaldispersion=gd3bj scf=xqc pop=npa geom=c
 heck
 ----------------------------------------------------------------------

 -------------------------------------
 CID_130713961_JID_3500_Energie_kation
 -------------------------------------
 Structure from the checkpoint file:  "JID_3500.chk"
 Charge =  1 Multiplicity = 2

 SCF Done:  E(UB3LYP) =  -646.021005100     A.U. after   21 cycles
 Normal termination of Gaussian 16 at Wed Dec  9 23:44:48 2020.
 Gaussian 16:  ES64L-G16RevA.03 25-Dec-2016

 ----------------------------------------------------------------------
 # B3LYP/6-311++G(d,p) empiricaldispersion=gd3bj scf=xqc pop=npa geom=c
 heck
 ----------------------------------------------------------------------

 ------------------------------------
 CID_130713961_JID_3500_Energie_anion
 ------------------------------------
 Structure from the checkpoint file:  "JID_3500.chk"
 Charge = -1 Multiplicity = 2

                         Standard orientation:
 ---------------------------------------------------------------------
 Center     Atomic      Atomic             Coordinates (Angstroms)
 Number     Number       Type             X           Y           Z
 ---------------------------------------------------------------------
      1          6           0        2.186598    1.963525   -0.309844
      2          7           0        0.783702    1.637142   -0.081341
      3          6           0       -0.151361    2.506683    0.455033
      4          6           0       -1.361095    1.868151    0.501746
      5          6           0       -1.160710    0.552504   -0.021611
      6          6           0        0.185106    0.446045   -0.391118
      7          6           0        0.960960   -0.689383   -0.985847
      8          6           0        1.686392   -1.476970    0.116886
      9          8           0        2.837569   -1.222973    0.450103
     10          7           0        0.928861   -2.450433    0.689848
     11          6           0       -2.221769   -0.437328   -0.091313
     12          8           0       -3.397863   -0.240183    0.141629
     13          8           0       -1.791287   -1.705451   -0.440937
     14          1           0        2.360864    2.228346   -1.359210
     15          1           0        2.448970    2.818187    0.316314
     16          1           0        2.812237    1.111505   -0.037140
     17          1           0        0.141903    3.501446    0.756654
     18          1           0       -2.297291    2.256816    0.873436
     19          1           0        0.278199   -1.338949   -1.535149
     20          1           0        1.723168   -0.322459   -1.677496
     21          1           0       -0.066453   -2.485241    0.501918
     22          1           0        1.286026   -2.888779    1.527680
     23          1           0       -2.607636   -2.238334   -0.476509
 ---------------------------------------------------------------------

 SCF Done:  E(UB3LYP) =  -646.312320344     A.U. after   33 cycles
 SCF Done:  E(UB3LYP) =  -646.312320344     a.u. after    1 cycles

 The electronic state is 2-A.
 Alpha  occ. eigenvalues --  -19.05696 -18.99381 -18.99039 -14.26822 -14.22698
 Alpha  occ. eigenvalues --  -10.18733 -10.17552 -10.11170 -10.10712 -10.09422
 Alpha  occ. eigenvalues --  -10.08600 -10.06776 -10.06134  -0.99121  -0.93890
 Alpha  occ. eigenvalues --   -0.90145  -0.89396  -0.80471  -0.71407  -0.68414
 Alpha  occ. eigenvalues --   -0.61635  -0.59819  -0.53986  -0.49144  -0.46724
 Alpha  occ. eigenvalues --   -0.45430  -0.43757  -0.41826  -0.39056  -0.37641
 Alpha  occ. eigenvalues --   -0.36789  -0.35838  -0.34152  -0.33652  -0.32679
 Alpha  occ. eigenvalues --   -0.31845  -0.30913  -0.29584  -0.29084  -0.27761
 Alpha  occ. eigenvalues --   -0.27427  -0.26623  -0.21817  -0.17687  -0.17359
 Alpha  occ. eigenvalues --   -0.16518  -0.14751  -0.11996   0.04427
 Alpha virt. eigenvalues --    0.06196   0.06892   0.07952   0.08453   0.09230
 Alpha virt. eigenvalues --    0.10113   0.11104   0.11540   0.12223   0.13025
 Alpha virt. eigenvalues --    0.13278   0.13530   0.14255   0.15532   0.15614

  Beta  occ. eigenvalues --  -19.05636 -18.99293 -18.99014 -14.26792 -14.22661
  Beta  occ. eigenvalues --  -10.18635 -10.17529 -10.11088 -10.10677 -10.09422
  Beta  occ. eigenvalues --  -10.08591 -10.06775 -10.06115  -0.98977  -0.93843
  Beta  occ. eigenvalues --   -0.89996  -0.89328  -0.80407  -0.71341  -0.68330
  Beta  occ. eigenvalues --   -0.61512  -0.59750  -0.53834  -0.49052  -0.46652
  Beta  occ. eigenvalues --   -0.45323  -0.43692  -0.41741  -0.38959  -0.37524
  Beta  occ. eigenvalues --   -0.36710  -0.35759  -0.34042  -0.33321  -0.32613
  Beta  occ. eigenvalues --   -0.31784  -0.30839  -0.29542  -0.29015  -0.27668
  Beta  occ. eigenvalues --   -0.27333  -0.26570  -0.21516  -0.17621  -0.17225
  Beta  occ. eigenvalues --   -0.16443  -0.14577  -0.11790
  Beta virt. eigenvalues --    0.06954   0.07638   0.07773   0.08544   0.09161
  Beta virt. eigenvalues --    0.09837   0.10539   0.11233   0.11801   0.12660
  Beta virt. eigenvalues --    0.13055   0.13637   0.13855   0.14500   0.15484

 Mulliken charges and spin densities:
               1          2
     1  C    0.776322  -1.102618
     2  N    0.054008   0.166468
     3  C    0.473660  -0.571950
     4  C   -0.860525   0.722255
     5  C   -0.466589   0.226191
     6  C   -0.516974   1.118549
     7  C    1.849142  -2.735601
     8  C    0.136878  -0.064026
     9  O   -0.363576   0.021712
    10  N   -0.400508   0.061462
    11  C    0.323735  -0.454864
    12  O   -0.364273   0.038100
    13  O   -0.355181   0.071073
    14  H   -0.253911   0.435231
    15  H   -0.346685   0.496607
    16  H    0.116705   0.085930
    17  H   -0.568280   0.740677
    18  H    0.105271   0.068268
    19  H   -0.165667   0.387084
    20  H    0.101616   0.099225
    21  H    0.117580   0.188771
    22  H   -0.094770   0.374867
    23  H   -0.297978   0.626590
 Sum of Mulliken charges =  -1.00000   1.00000

 Dipole moment (field-independent basis, Debye):
    X=              0.2146    Y=              0.7843    Z=             -0.4853  Tot=              0.9469
 Quadrupole moment (field-independent basis, Debye-Ang):
   XX=           -133.0986   YY=           -128.2463   ZZ=            -97.6571
   XY=             -8.8718   XZ=             -1.3636   YZ=             -2.3243

 Summary of Natural Population Analysis:

                                       Natural Population
                Natural  -----------------------------------------------
    Atom  No    Charge         Core      Valence    Rydberg      Total
 -----------------------------------------------------------------------
      C    1   -0.18183      0.99963     2.17415    0.00804     3.18183
      N    2   -0.19189      0.99961     2.68227    0.01001     3.69189
      C    3   -0.02039      0.99955     2.00888    0.01196     3.02039
      C    4   -0.11548      0.99954     2.10735    0.00860     3.11548
      C    5   -0.12521      0.99941     2.11568    0.01012     3.12521
      C    6    0.12479      0.99950     1.86279    0.01292     2.87521
      C    7   -0.25316      0.99955     2.24454    0.00906     3.25316
      C    8    0.34776      0.99970     1.63012    0.02242     2.65224
      O    9   -0.32796      0.99987     3.32193    0.00616     4.32796
      N   10   -0.40280      0.99969     2.89496    0.00815     3.90280
      C   11    0.40764      0.99961     1.56889    0.02386     2.59236
      O   12   -0.30885      0.99987     3.30324    0.00574     4.30885
      O   13   -0.36777      0.99988     3.35996    0.00793     4.36777
      H   14    0.09510      0.00000     0.40378    0.00112     0.40490
      H   15    0.10332      0.00000     0.39486    0.00182     0.39668
      H   16    0.11752      0.00000     0.38098    0.00151     0.38248
      H   17    0.10133      0.00000     0.39739    0.00128     0.39867
      H   18    0.11094      0.00000     0.38829    0.00077     0.38906
      H   19    0.12549      0.00000     0.37262    0.00189     0.37451
      H   20    0.11522      0.00000     0.38343    0.00135     0.38478
      H   21    0.20868      0.00000     0.28738    0.00394     0.29132
      H   22    0.19261      0.00000     0.30561    0.00178     0.30739
      H   23    0.24495      0.00000     0.24522    0.00983     0.25505
 =======================================================================
   * Total *   -0.00000     12.99543    34.83432    0.17025    48.00000

 Normal termination of Gaussian 16 at Wed Dec  9 23:50:02 2020.
