 Gaussian 16, Revision A.03,

 -----------------------------------------------------------
 # opt freq B3LYP/6-31G(d) empiricaldispersion=gd3bj scf=xqc
 -----------------------------------------------------------

 -------------------------------
 CID_82535178_JID_10712_neutraal
 -------------------------------
 Symbolic Z-matrix:
 Charge =  0 Multiplicity = 1

 SCF Done:  E(RB3LYP) =  -880.582735020     A.U. after   15 cycles
 SCF Done:  E(RB3LYP) =  -880.587158287     A.U. after   13 cycles
 SCF Done:  E(RB3LYP) =  -880.588361263     A.U. after   13 cycles
 SCF Done:  E(RB3LYP) =  -880.588473811     A.U. after   13 cycles
 SCF Done:  E(RB3LYP) =  -880.589108649     A.U. after   12 cycles
 SCF Done:  E(RB3LYP) =  -880.589204387     A.U. after   11 cycles
 SCF Done:  E(RB3LYP) =  -880.589238378     A.U. after   11 cycles
 SCF Done:  E(RB3LYP) =  -880.589256086     A.U. after   10 cycles
 SCF Done:  E(RB3LYP) =  -880.589262615     A.U. after   10 cycles
 SCF Done:  E(RB3LYP) =  -880.589263632     A.U. after    9 cycles
 SCF Done:  E(RB3LYP) =  -880.589264026     A.U. after    8 cycles
 Optimization completed.
    -- Stationary point found.
 Normal termination of Gaussian 16 at Sat Dec 12 15:54:13 2020.

 --------------------------------------------------------------------
 #N Geom=AllCheck Guess=TCheck SCRF=Check GenChk RB3LYP/6-31G(d) Freq
 --------------------------------------------------------------------

 Structure from the checkpoint file:  "JID_10712.chk"
 -------------------------------
 CID_82535178_JID_10712_neutraal
 -------------------------------
 Charge =  0 Multiplicity = 1

 SCF Done:  E(RB3LYP) =  -880.589264026     A.U. after    1 cycles

  Exact polarizability: 227.313 -20.653 181.640 -13.557   6.470 138.327
 Approx polarizability: 316.436 -33.854 297.952 -34.090  19.546 233.042

                      1                      2                      3
                      A                      A                      A
 Frequencies --     18.7518                28.6471                34.7802
 Red. masses --      5.8470                 5.3788                 4.0435
 Frc consts  --      0.0012                 0.0026                 0.0029
 IR Inten    --      0.0023                 0.9121                 0.0658

                      4                      5                      6
                      A                      A                      A
 Frequencies --     54.4817                73.6738                89.3757
 Red. masses --      9.3298                 5.0725                 5.0305
 Frc consts  --      0.0163                 0.0162                 0.0237
 IR Inten    --      0.5972                 0.1645                 0.1265

                      7                      8                      9
                      A                      A                      A
 Frequencies --    156.5621               164.8994               169.0229
 Red. masses --      4.6619                 3.2079                 3.6586
 Frc consts  --      0.0673                 0.0514                 0.0616
 IR Inten    --      0.3683                 0.1988                 2.1886

                     10                     11                     12
                      A                      A                      A
 Frequencies --    220.5921               231.6513               235.7468
 Red. masses --      5.0816                 2.0641                 2.3920
 Frc consts  --      0.1457                 0.0653                 0.0783
 IR Inten    --      0.8209                 0.0954                 0.2144

                     13                     14                     15
                      A                      A                      A
 Frequencies --    243.1995               285.3292               317.7641
 Red. masses --      1.4881                 3.3088                 1.1178
 Frc consts  --      0.0519                 0.1587                 0.0665
 IR Inten    --      0.0845                 0.0822                 0.8946

                     16                     17                     18
                      A                      A                      A
 Frequencies --    336.2681               351.9574               379.7232
 Red. masses --      2.3288                 3.0002                 7.5869
 Frc consts  --      0.1552                 0.2190                 0.6445
 IR Inten    --      0.1239                 0.4919                 5.2348

                     19                     20                     21
                      A                      A                      A
 Frequencies --    411.6814               417.4909               428.4598
 Red. masses --      3.9173                 3.0109                 3.1908
 Frc consts  --      0.3912                 0.3092                 0.3451
 IR Inten    --      7.5978                 0.1627                 4.3318

                     22                     23                     24
                      A                      A                      A
 Frequencies --    437.9060               468.1669               512.9159
 Red. masses --      3.7697                 2.6880                 3.7889
 Frc consts  --      0.4259                 0.3471                 0.5873
 IR Inten    --      0.6833                13.7919                28.5207

                     25                     26                     27
                      A                      A                      A
 Frequencies --    527.0215               544.9977               565.1314
 Red. masses --      3.1645                 2.7621                 3.2593
 Frc consts  --      0.5179                 0.4834                 0.6133
 IR Inten    --      1.9319                39.0513                 6.6706

                     28                     29                     30
                      A                      A                      A
 Frequencies --    588.7231               626.7517               637.8877
 Red. masses --      2.2250                 1.3444                 6.3042
 Frc consts  --      0.4544                 0.3112                 1.5114
 IR Inten    --     70.6946                85.5193                 0.4094

                     31                     32                     33
                      A                      A                      A
 Frequencies --    638.8558               652.2608               716.5758
 Red. masses --      4.4800                 3.9994                 2.4655
 Frc consts  --      1.0773                 1.0025                 0.7459
 IR Inten    --      5.0951                54.9233                 2.4917

                     34                     35                     36
                      A                      A                      A
 Frequencies --    717.9334               726.5618               758.4084
 Red. masses --      1.7936                 4.3938                 4.2858
 Frc consts  --      0.5447                 1.3666                 1.4524
 IR Inten    --     27.3686                11.5738                 8.2153

                     37                     38                     39
                      A                      A                      A
 Frequencies --    777.5172               785.8183               862.2140
 Red. masses --      4.8621                 2.0932                 1.2486
 Frc consts  --      1.7318                 0.7616                 0.5469
 IR Inten    --     53.7537                18.7181                 0.1589

                     40                     41                     42
                      A                      A                      A
 Frequencies --    878.2862               899.5318               913.8181
 Red. masses --      2.4124                 1.8541                 1.3281
 Frc consts  --      1.0964                 0.8839                 0.6534
 IR Inten    --      2.5855                14.2624                 0.1366

                     43                     44                     45
                      A                      A                      A
 Frequencies --    929.2583               949.1545               952.4597
 Red. masses --      1.4604                 1.7537                 1.4758
 Frc consts  --      0.7430                 0.9308                 0.7888
 IR Inten    --      1.2399                 1.5386                 1.2899

                     46                     47                     48
                      A                      A                      A
 Frequencies --    965.2830               972.8174               985.2117
 Red. masses --      1.5348                 1.3740                 2.6260
 Frc consts  --      0.8426                 0.7661                 1.5018
 IR Inten    --      1.5055                 0.3061                 4.1665

                     49                     50                     51
                      A                      A                      A
 Frequencies --    999.0999              1017.3184              1022.3213
 Red. masses --      1.2478                 1.7944                 5.7765
 Frc consts  --      0.7339                 1.0941                 3.5571
 IR Inten    --      0.4124                 0.5175                 1.4966

                     52                     53                     54
                      A                      A                      A
 Frequencies --   1036.8087              1056.8127              1063.4673
 Red. masses --      5.0839                 1.4401                 2.5176
 Frc consts  --      3.2199                 0.9476                 1.6776
 IR Inten    --     28.3616                 3.2857                 4.8903

                     55                     56                     57
                      A                      A                      A
 Frequencies --   1113.6900              1122.8484              1133.2870
 Red. masses --      2.0967                 3.1200                 2.4807
 Frc consts  --      1.5322                 2.3176                 1.8772
 IR Inten    --      3.0200               103.8914                 8.9247

                     58                     59                     60
                      A                      A                      A
 Frequencies --   1143.2621              1196.7818              1200.1079
 Red. masses --      2.4412                 1.0938                 2.4871
 Frc consts  --      1.8800                 0.9230                 2.1105
 IR Inten    --      8.6366                 0.0938                19.3378

                     61                     62                     63
                      A                      A                      A
 Frequencies --   1210.0941              1215.6546              1228.2063
 Red. masses --      1.6217                 1.9865                 1.1444
 Frc consts  --      1.3991                 1.7296                 1.0171
 IR Inten    --    239.2828                10.2218                 2.2238

                     64                     65                     66
                      A                      A                      A
 Frequencies --   1241.8649              1249.4653              1300.0756
 Red. masses --      1.7263                 2.3182                 2.7073
 Frc consts  --      1.5686                 2.1323                 2.6961
 IR Inten    --      7.5125                26.6344                39.4326

                     67                     68                     69
                      A                      A                      A
 Frequencies --   1329.4980              1343.6719              1350.9502
 Red. masses --      1.8630                 1.6787                 3.4966
 Frc consts  --      1.9402                 1.7857                 3.7598
 IR Inten    --     10.5633                29.1517                 2.0053

                     70                     71                     72
                      A                      A                      A
 Frequencies --   1372.7011              1374.4398              1388.3909
 Red. masses --      1.8896                 1.6088                 1.8216
 Frc consts  --      2.0979                 1.7906                 2.0688
 IR Inten    --     43.5582                 1.6301                75.1701

                     73                     74                     75
                      A                      A                      A
 Frequencies --   1409.8923              1430.0362              1451.3600
 Red. masses --      1.8697                 1.2312                 1.2777
 Frc consts  --      2.1898                 1.4834                 1.5858
 IR Inten    --     53.0444                 6.5084                 8.1390

                     76                     77                     78
                      A                      A                      A
 Frequencies --   1470.0817              1494.9162              1507.0311
 Red. masses --      2.2397                 2.1741                 3.9446
 Frc consts  --      2.8518                 2.8627                 5.2783
 IR Inten    --     22.9234                 9.3598               133.1815

                     79                     80                     81
                      A                      A                      A
 Frequencies --   1518.5799              1520.5014              1533.7928
 Red. masses --      1.0767                 1.0613                 1.0886
 Frc consts  --      1.4629                 1.4457                 1.5089
 IR Inten    --      0.7498                 2.3067                 2.7949

                     82                     83                     84
                      A                      A                      A
 Frequencies --   1543.2424              1549.5018              1550.7580
 Red. masses --      1.0614                 1.2767                 1.6284
 Frc consts  --      1.4894                 1.8060                 2.3072
 IR Inten    --      1.9760                12.9387                 6.4731

                     85                     86                     87
                      A                      A                      A
 Frequencies --   1556.1014              1628.4696              1642.4423
 Red. masses --      1.5930                 4.7518                 5.3178
 Frc consts  --      2.2727                 7.4245                 8.4520
 IR Inten    --    163.4051                90.6622                 1.8618

                     88                     89                     90
                      A                      A                      A
 Frequencies --   1656.0150              1666.6325              1825.8473
 Red. masses --      5.5717                 5.4716                 9.8068
 Frc consts  --      9.0026                 8.9545                19.2623
 IR Inten    --    121.5728                 4.2105               326.3774

                     91                     92                     93
                      A                      A                      A
 Frequencies --   2983.9361              3052.0498              3059.1030
 Red. masses --      1.0704                 1.0365                 1.0438
 Frc consts  --      5.6155                 5.6886                 5.7553
 IR Inten    --     45.5819                20.0457                 8.4985

                     94                     95                     96
                      A                      A                      A
 Frequencies --   3065.3742              3118.0664              3124.2255
 Red. masses --      1.0819                 1.1017                 1.1016
 Frc consts  --      5.9896                 6.3107                 6.3349
 IR Inten    --     40.2930                 5.5864                59.9444

                     97                     98                     99
                      A                      A                      A
 Frequencies --   3132.7374              3140.2301              3144.7079
 Red. masses --      1.1026                 1.1020                 1.0894
 Frc consts  --      6.3756                 6.4025                 6.3475
 IR Inten    --     21.5685                26.2523                29.1396

                    100                    101                    102
                      A                      A                      A
 Frequencies --   3184.1389              3191.4361              3201.3293
 Red. masses --      1.0849                 1.0879                 1.0923
 Frc consts  --      6.4805                 6.5283                 6.5954
 IR Inten    --      3.0467                 3.0458                29.8235

                    103                    104                    105
                      A                      A                      A
 Frequencies --   3211.9783              3218.6810              3226.6753
 Red. masses --      1.0965                 1.0913                 1.0919
 Frc consts  --      6.6651                 6.6612                 6.6979
 IR Inten    --     25.0896                 2.1157                 8.9341

                    106                    107                    108
                      A                      A                      A
 Frequencies --   3249.0605              3558.2647              3698.9942
 Red. masses --      1.0902                 1.0750                 1.0641
 Frc consts  --      6.7804                 8.0190                 8.5786
 IR Inten    --      4.8615                53.5896                71.8705

 - Thermochemistry -
 -------------------
 Temperature   298.150 Kelvin.  Pressure   1.00000 Atm.
 Atom     1 has atomic number  6 and mass  12.00000

 Molecular mass:   270.13683 amu.
 Principal axes and moments of inertia in atomic units:
                           1         2         3
     Eigenvalues --  2790.12548********************
           X            1.00000   0.00203  -0.00184
           Y           -0.00205   0.99990  -0.01371
           Z            0.00181   0.01371   0.99990
 This molecule is an asymmetric top.
 Rotational symmetry number  1.
 Warning -- assumption of classical behavior for rotation
           may cause significant error
 Rotational temperatures (Kelvin)      0.03104     0.00760     0.00690
 Rotational constants (GHZ):           0.64683     0.15842     0.14367
 Zero-point vibrational energy     830618.3 (Joules/Mol)
                                  198.52254 (Kcal/Mol)
 Warning -- explicit consideration of  28 degrees of freedom as
           vibrations may cause significant error
 Vibrational temperatures:     26.98    41.22    50.04    78.39   106.00
          (Kelvin)            128.59   225.26   237.25   243.19   317.38
                              333.29   339.19   349.91   410.53   457.19
                              483.81   506.39   546.34   592.32   600.68
                              616.46   630.05   673.59   737.97   758.27
                              784.13   813.10   847.04   901.76   917.78
                              919.17   938.46  1030.99  1032.95  1045.36
                             1091.18  1118.67  1130.62  1240.53  1263.66
                             1294.23  1314.78  1337.00  1365.62  1370.38
                             1388.83  1399.67  1417.50  1437.48  1463.69
                             1470.89  1491.74  1520.52  1530.09  1602.35
                             1615.53  1630.55  1644.90  1721.90  1726.69
                             1741.06  1749.06  1767.11  1786.77  1797.70
                             1870.52  1912.85  1933.24  1943.72  1975.01
                             1977.51  1997.58  2028.52  2057.50  2088.18
                             2115.12  2150.85  2168.28  2184.90  2187.66
                             2206.79  2220.38  2229.39  2231.19  2238.88
                             2343.00  2363.11  2382.64  2397.91  2626.99
                             4293.22  4391.22  4401.37  4410.39  4486.20
                             4495.06  4507.31  4518.09  4524.53  4581.27
                             4591.76  4606.00  4621.32  4630.96  4642.47
                             4674.67  5119.55  5322.03

 Zero-point correction=                           0.316366 (Hartree/Particle)
 Thermal correction to Energy=                    0.334530
 Thermal correction to Enthalpy=                  0.335474
 Thermal correction to Gibbs Free Energy=         0.268238
 Sum of electronic and zero-point Energies=           -880.272898
 Sum of electronic and thermal Energies=              -880.254734
 Sum of electronic and thermal Enthalpies=            -880.253790
 Sum of electronic and thermal Free Energies=         -880.321026

                     E (Thermal)             CV                S
                      KCal/Mol        Cal/Mol-Kelvin    Cal/Mol-Kelvin
 Total                  209.921             70.746            141.512
 Electronic               0.000              0.000              0.000
 Translational            0.889              2.981             42.680
 Rotational               0.889              2.981             34.345
 Vibrational            208.143             64.785             64.487
 Vibration     1          0.593              1.986              6.762
 Vibration     2          0.593              1.984              5.921
 Vibration     3          0.594              1.983              5.536
 Vibration     4          0.596              1.976              4.648
 Vibration     5          0.599              1.966              4.053
 Vibration     6          0.602              1.957              3.674
 Vibration     7          0.620              1.895              2.591
 Vibration     8          0.623              1.886              2.493
 Vibration     9          0.625              1.881              2.446
 Vibration    10          0.647              1.810              1.954
 Vibration    11          0.653              1.793              1.866
 Vibration    12          0.655              1.786              1.835
 Vibration    13          0.659              1.774              1.779
 Vibration    14          0.683              1.701              1.502
 Vibration    15          0.704              1.640              1.322
 Vibration    16          0.717              1.603              1.230
 Vibration    17          0.729              1.571              1.157
 Vibration    18          0.750              1.513              1.040
 Vibration    19          0.776              1.445              0.921
 Vibration    20          0.781              1.432              0.901
 Vibration    21          0.790              1.408              0.864
 Vibration    22          0.798              1.388              0.833
 Vibration    23          0.825              1.321              0.743
 Vibration    24          0.868              1.221              0.627
 Vibration    25          0.882              1.190              0.594
 Vibration    26          0.900              1.151              0.555
 Vibration    27          0.921              1.107              0.514
 Vibration    28          0.946              1.056              0.469

 Optimization completed.
    -- Stationary point found.
 Normal termination of Gaussian 16 at Sat Dec 12 16:13:30 2020.

 ----------------------------------------------------------------------
 # B3LYP/6-311++G(d,p) empiricaldispersion=gd3bj scf=xqc pop=npa geom=c
 heck
 ----------------------------------------------------------------------

 ---------------------------------------
 CID_82535178_JID_10712_Energie_neutraal
 ---------------------------------------
 Structure from the checkpoint file:  "JID_10712.chk"
 Charge =  0 Multiplicity = 1

 SCF Done:  E(RB3LYP) =  -880.835542706     A.U. after   15 cycles
 Normal termination of Gaussian 16 at Sat Dec 12 16:22:30 2020.

 ----------------------------------------------------------------------
 # B3LYP/6-311++G(d,p) empiricaldispersion=gd3bj scf=xqc pop=npa geom=c
 heck
 ----------------------------------------------------------------------

 -------------------------------------
 CID_82535178_JID_10712_Energie_kation
 -------------------------------------
 Structure from the checkpoint file:  "JID_10712.chk"
 Charge =  1 Multiplicity = 2

 SCF Done:  E(UB3LYP) =  -880.549801706     A.U. after   23 cycles
 Normal termination of Gaussian 16 at Sat Dec 12 16:42:01 2020.
 Gaussian 16:  ES64L-G16RevA.03 25-Dec-2016

 ----------------------------------------------------------------------
 # B3LYP/6-311++G(d,p) empiricaldispersion=gd3bj scf=xqc pop=npa geom=c
 heck
 ----------------------------------------------------------------------

 ------------------------------------
 CID_82535178_JID_10712_Energie_anion
 ------------------------------------
 Structure from the checkpoint file:  "JID_10712.chk"
 Charge = -1 Multiplicity = 2

                         Standard orientation:
 ---------------------------------------------------------------------
 Center     Atomic      Atomic             Coordinates (Angstroms)
 Number     Number       Type             X           Y           Z
 ---------------------------------------------------------------------
      1          6           0        2.185712    1.778287   -1.884122
      2          6           0        2.050216    1.499511   -0.378076
      3          6           0        2.457299    2.772338    0.391510
      4          6           0        0.566523    1.196006   -0.059236
      5          7           0        0.137851   -0.039643   -0.690140
      6          6           0       -1.148369   -0.521277   -0.524979
      7          6           0       -1.444851   -1.860341   -0.865924
      8          7           0       -2.651501   -2.411882   -0.781386
      9          6           0       -3.660868   -1.648918   -0.344716
     10          6           0       -3.483816   -0.313219    0.026984
     11          6           0       -2.211358    0.261291   -0.056778
     12          6           0       -4.662298    0.446540    0.508908
     13          8           0       -5.788243    0.002817    0.607796
     14          8           0       -4.363874    1.730915    0.843125
     15          6           0        2.910245    0.313823    0.084234
     16          6           0        2.915136   -0.057172    1.439693
     17          6           0        3.664314   -1.139672    1.892471
     18          6           0        4.431938   -1.886612    0.996378
     19          6           0        4.435243   -1.537481   -0.351467
     20          6           0        3.680387   -0.450635   -0.801514
     21          1           0        1.573628    2.646269   -2.151117
     22          1           0        1.840676    0.934614   -2.487859
     23          1           0        3.222083    2.005413   -2.154501
     24          1           0        1.834104    3.620478    0.084741
     25          1           0        2.350434    2.649627    1.473510
     26          1           0        3.502238    3.024068    0.184055
     27          1           0        0.414943    1.166438    1.032712
     28          1           0       -0.045514    2.021233   -0.442779
     29          1           0        0.852687   -0.758922   -0.687025
     30          1           0       -0.641195   -2.503963   -1.226547
     31          1           0       -4.644105   -2.104118   -0.280992
     32          1           0       -2.066845    1.292140    0.239257
     33          1           0       -5.205298    2.123484    1.140249
     34          1           0        2.321429    0.505061    2.154471
     35          1           0        3.647353   -1.401721    2.946697
     36          1           0        5.016935   -2.731859    1.347023
     37          1           0        5.024660   -2.109765   -1.062452
     38          1           0        3.701540   -0.202454   -1.856319
 ---------------------------------------------------------------------

 SCF Done:  E(UB3LYP) =  -880.843529026     A.U. after   33 cycles
 SCF Done:  E(UB3LYP) =  -880.843529220     a.u. after    3 cycles

 The electronic state is 2-A.
 Alpha  occ. eigenvalues --  -19.03951 -18.96511 -14.21305 -14.17047 -10.15144
 Alpha  occ. eigenvalues --  -10.11471 -10.10998 -10.10551 -10.09775 -10.09757
 Alpha  occ. eigenvalues --  -10.09605 -10.09576 -10.09552 -10.08827 -10.08787
 Alpha  occ. eigenvalues --  -10.08042 -10.05902 -10.05635 -10.04096 -10.04020
 Alpha  occ. eigenvalues --   -0.97466  -0.88015  -0.83582  -0.80003  -0.78302
 Alpha  occ. eigenvalues --   -0.73612  -0.67095  -0.66933  -0.65998  -0.63306
 Alpha  occ. eigenvalues --   -0.61325  -0.58031  -0.54327  -0.53630  -0.52618
 Alpha  occ. eigenvalues --   -0.49556  -0.47409  -0.46998  -0.43747  -0.41527
 Alpha  occ. eigenvalues --   -0.39454  -0.38627  -0.37771  -0.37159  -0.36616
 Alpha  occ. eigenvalues --   -0.35958  -0.35175  -0.34642  -0.34253  -0.33445
 Alpha  occ. eigenvalues --   -0.32173  -0.31635  -0.30819  -0.30553  -0.29778
 Alpha  occ. eigenvalues --   -0.28865  -0.28234  -0.27900  -0.26939  -0.26382
 Alpha  occ. eigenvalues --   -0.26036  -0.25016  -0.24429  -0.24353  -0.20181
 Alpha  occ. eigenvalues --   -0.19365  -0.17926  -0.17176  -0.15162  -0.15053
 Alpha  occ. eigenvalues --   -0.12236  -0.09214   0.03699
 Alpha virt. eigenvalues --    0.04964   0.05999   0.06119   0.06328   0.06604
 Alpha virt. eigenvalues --    0.08090   0.08303   0.08326   0.09005   0.10325
 Alpha virt. eigenvalues --    0.10535   0.10963   0.11426   0.11602   0.11888

  Beta  occ. eigenvalues --  -19.03905 -18.96251 -14.21318 -14.17030 -10.14915
  Beta  occ. eigenvalues --  -10.11470 -10.10995 -10.10550 -10.09761 -10.09743
  Beta  occ. eigenvalues --  -10.09595 -10.09569 -10.09543 -10.08903 -10.08782
  Beta  occ. eigenvalues --  -10.08037 -10.05852 -10.05322 -10.03949 -10.03800
  Beta  occ. eigenvalues --   -0.97219  -0.87636  -0.83560  -0.79810  -0.78276
  Beta  occ. eigenvalues --   -0.73598  -0.67064  -0.66532  -0.65956  -0.63069
  Beta  occ. eigenvalues --   -0.61313  -0.57873  -0.54142  -0.53245  -0.52584
  Beta  occ. eigenvalues --   -0.49349  -0.47318  -0.46866  -0.43706  -0.41423
  Beta  occ. eigenvalues --   -0.39372  -0.38605  -0.37643  -0.37127  -0.36562
  Beta  occ. eigenvalues --   -0.35827  -0.34939  -0.34608  -0.34139  -0.33284
  Beta  occ. eigenvalues --   -0.31609  -0.31097  -0.30756  -0.30518  -0.29761
  Beta  occ. eigenvalues --   -0.28820  -0.28183  -0.27734  -0.26532  -0.26243
  Beta  occ. eigenvalues --   -0.25904  -0.24911  -0.24305  -0.24238  -0.19705
  Beta  occ. eigenvalues --   -0.18672  -0.17879  -0.17150  -0.14838  -0.13732
  Beta  occ. eigenvalues --   -0.12149  -0.08363
  Beta virt. eigenvalues --    0.05315   0.06023   0.06282   0.06391   0.06806
  Beta virt. eigenvalues --    0.08143   0.08287   0.08377   0.08855   0.09008
  Beta virt. eigenvalues --    0.10208   0.10652   0.10987   0.11443   0.11738

 Mulliken charges and spin densities:
               1          2
     1  C   -0.408874  -0.029820
     2  C    0.103072  -0.039268
     3  C   -0.319593  -0.201306
     4  C   -0.397913  -0.343321
     5  N    0.169769   0.010018
     6  C   -0.214341  -0.052714
     7  C   -0.275477   0.235617
     8  N   -0.081673  -0.001640
     9  C   -0.667894   0.048428
    10  C    0.667567   0.063731
    11  C   -0.086143   0.143182
    12  C   -0.153261   0.154045
    13  O   -0.404445   0.089867
    14  O   -0.237365   0.010947
    15  C    0.586019  -0.093939
    16  C   -0.477793   0.208289
    17  C   -0.297456   0.047578
    18  C    0.585332  -0.997049
    19  C   -0.215938  -0.089137
    20  C   -0.398022   0.435940
    21  H    0.126055   0.022796
    22  H    0.156205   0.006217
    23  H    0.038605   0.101197
    24  H    0.123015   0.020205
    25  H    0.088708   0.049292
    26  H    0.080029   0.079367
    27  H    0.146164  -0.003709
    28  H    0.152484   0.029607
    29  H    0.241315  -0.069344
    30  H    0.116455  -0.003441
    31  H    0.191278  -0.003268
    32  H    0.163498  -0.010253
    33  H    0.273917   0.001329
    34  H    0.136334  -0.000731
    35  H   -0.124571   0.306294
    36  H   -0.235645   0.383822
    37  H   -0.257311   0.443937
    38  H    0.107895   0.047234
 Sum of Mulliken charges =  -1.00000   1.00000

 Dipole moment (field-independent basis, Debye):
    X=              7.1031    Y=              6.1176    Z=              0.2570  Tot=              9.3780
 Quadrupole moment (field-independent basis, Debye-Ang):
   XX=           -226.3648   YY=           -148.9155   ZZ=           -135.3439
   XY=             -5.6333   XZ=             -4.3525   YZ=              0.2085

 Summary of Natural Population Analysis:

                                       Natural Population
                Natural  -----------------------------------------------
    Atom  No    Charge         Core      Valence    Rydberg      Total
 -----------------------------------------------------------------------
      C    1   -0.28828      0.99964     2.28243    0.00621     3.28828
      C    2   -0.05034      0.99955     2.03990    0.01090     3.05034
      C    3   -0.27882      0.99963     2.27352    0.00567     3.27882
      C    4   -0.07807      0.99958     2.06777    0.01071     3.07807
      N    5   -0.32282      0.99967     2.81379    0.00936     3.82282
      C    6    0.05176      0.99950     1.93820    0.01055     2.94824
      C    7    0.07103      0.99957     1.91570    0.01369     2.92897
      N    8   -0.23773      0.99971     2.72619    0.01183     3.73773
      C    9    0.03595      0.99956     1.95050    0.01399     2.96405
      C   10   -0.07232      0.99946     2.06396    0.00890     3.07232
      C   11   -0.06348      0.99951     2.05683    0.00713     3.06348
      C   12    0.42346      0.99967     1.55293    0.02394     2.57654
      O   13   -0.30334      0.99987     3.29670    0.00676     4.30334
      O   14   -0.35692      0.99988     3.34898    0.00806     4.35692
      C   15   -0.01675      0.99948     2.00393    0.01333     3.01675
      C   16   -0.10019      0.99951     2.09146    0.00922     3.10019
      C   17   -0.09637      0.99957     2.08624    0.01057     3.09637
      C   18   -0.10465      0.99956     2.09534    0.00975     3.10465
      C   19   -0.09703      0.99957     2.08692    0.01054     3.09703
      C   20   -0.10697      0.99950     2.09788    0.00959     3.10697
      H   21    0.10163      0.00000     0.39763    0.00073     0.39837
      H   22    0.10856      0.00000     0.39031    0.00112     0.39144
      H   23    0.09800      0.00000     0.40112    0.00088     0.40200
      H   24    0.09912      0.00000     0.40008    0.00080     0.40088
      H   25    0.10038      0.00000     0.39880    0.00082     0.39962
      H   26    0.10117      0.00000     0.39807    0.00076     0.39883
      H   27    0.08661      0.00000     0.41176    0.00164     0.41339
      H   28    0.09668      0.00000     0.40173    0.00159     0.40332
      H   29    0.18622      0.00000     0.31057    0.00321     0.31378
      H   30    0.07525      0.00000     0.42222    0.00253     0.42475
      H   31    0.09327      0.00000     0.40552    0.00121     0.40673
      H   32    0.10198      0.00000     0.39661    0.00141     0.39802
      H   33    0.23254      0.00000     0.26450    0.00296     0.26746
      H   34    0.10069      0.00000     0.39748    0.00183     0.39931
      H   35    0.10156      0.00000     0.39764    0.00080     0.39844
      H   36    0.10240      0.00000     0.39656    0.00104     0.39760
      H   37    0.10160      0.00000     0.39748    0.00092     0.39840
      H   38    0.10422      0.00000     0.39473    0.00105     0.39578
 =======================================================================
   * Total *   -0.00000     19.99200    51.77201    0.23599    72.00000

 Normal termination of Gaussian 16 at Sat Dec 12 18:06:46 2020.
