 Gaussian 16, Revision A.03,

 -----------------------------------------------------------
 # opt freq B3LYP/6-31G(d) empiricaldispersion=gd3bj scf=xqc
 -----------------------------------------------------------

 ------------------------------
 CID_79466095_JID_4953_neutraal
 ------------------------------
 Symbolic Z-matrix:
 Charge =  0 Multiplicity = 1

 SCF Done:  E(RB3LYP) =  -613.552415738     A.U. after   14 cycles
 SCF Done:  E(RB3LYP) =  -613.557266784     A.U. after   11 cycles
 SCF Done:  E(RB3LYP) =  -613.557801376     A.U. after   12 cycles
 SCF Done:  E(RB3LYP) =  -613.557858610     A.U. after   12 cycles
 SCF Done:  E(RB3LYP) =  -613.557969589     A.U. after   10 cycles
 SCF Done:  E(RB3LYP) =  -613.558005704     A.U. after   10 cycles
 SCF Done:  E(RB3LYP) =  -613.558031663     A.U. after   10 cycles
 SCF Done:  E(RB3LYP) =  -613.558045048     A.U. after   10 cycles
 SCF Done:  E(RB3LYP) =  -613.558058895     A.U. after   10 cycles
 SCF Done:  E(RB3LYP) =  -613.558079828     A.U. after   11 cycles
 SCF Done:  E(RB3LYP) =  -613.558082370     A.U. after    9 cycles
 SCF Done:  E(RB3LYP) =  -613.558083289     A.U. after    8 cycles
 SCF Done:  E(RB3LYP) =  -613.558083506     A.U. after    7 cycles
 SCF Done:  E(RB3LYP) =  -613.558083539     A.U. after    7 cycles
 Optimization completed.
    -- Stationary point found.
 Normal termination of Gaussian 16 at Thu Dec 10 10:58:52 2020.

 --------------------------------------------------------------------
 #N Geom=AllCheck Guess=TCheck SCRF=Check GenChk RB3LYP/6-31G(d) Freq
 --------------------------------------------------------------------

 Structure from the checkpoint file:  "JID_4953.chk"
 ------------------------------
 CID_79466095_JID_4953_neutraal
 ------------------------------
 Charge =  0 Multiplicity = 1

 SCF Done:  E(RB3LYP) =  -613.558083539     A.U. after    1 cycles

  Exact polarizability: 142.753  -6.665 121.203 -14.367 -10.208  99.956
 Approx polarizability: 192.602 -13.099 198.567 -28.920 -21.557 157.501

                      1                      2                      3
                      A                      A                      A
 Frequencies --     22.0619                46.3057                56.5194
 Red. masses --      4.5860                 3.6214                 3.9522
 Frc consts  --      0.0013                 0.0046                 0.0074
 IR Inten    --      0.1353                 0.2284                 1.5391

                      4                      5                      6
                      A                      A                      A
 Frequencies --     83.8511               161.6384               218.3469
 Red. masses --      3.4956                 3.4631                 3.8870
 Frc consts  --      0.0145                 0.0533                 0.1092
 IR Inten    --      0.2353                 1.9328                 1.0279

                      7                      8                      9
                      A                      A                      A
 Frequencies --    226.2223               284.0848               300.4509
 Red. masses --      3.0700                 1.1854                 2.0868
 Frc consts  --      0.0926                 0.0564                 0.1110
 IR Inten    --      6.7478                37.0978                 2.6175

                     10                     11                     12
                      A                      A                      A
 Frequencies --    326.6379               374.4518               390.1737
 Red. masses --      2.6119                 3.0322                 2.6204
 Frc consts  --      0.1642                 0.2505                 0.2350
 IR Inten    --     20.1498                 2.9528                 0.2275

                     13                     14                     15
                      A                      A                      A
 Frequencies --    429.3175               460.5926               491.5217
 Red. masses --      2.1912                 3.5089                 3.6488
 Frc consts  --      0.2379                 0.4386                 0.5194
 IR Inten    --      0.5857                 2.5040                10.8403

                     16                     17                     18
                      A                      A                      A
 Frequencies --    503.9031               541.3850               608.3454
 Red. masses --      2.7894                 3.1348                 4.8046
 Frc consts  --      0.4173                 0.5413                 1.0476
 IR Inten    --      4.9644                 3.1990                20.0948

                     19                     20                     21
                      A                      A                      A
 Frequencies --    675.7171               686.4784               743.4919
 Red. masses --      2.2609                 6.6740                 3.5437
 Frc consts  --      0.6082                 1.8531                 1.1541
 IR Inten    --      1.1041                 0.8716                 2.9685

                     22                     23                     24
                      A                      A                      A
 Frequencies --    772.2097               810.0563               823.0294
 Red. masses --      2.4841                 1.7046                 2.7259
 Frc consts  --      0.8727                 0.6590                 1.0879
 IR Inten    --      3.5754                19.7879                 3.5790

                     25                     26                     27
                      A                      A                      A
 Frequencies --    844.7166               872.2838               898.0901
 Red. masses --      2.4599                 2.2443                 1.4357
 Frc consts  --      1.0342                 1.0061                 0.6823
 IR Inten    --      5.7394                36.8936               117.1314

                     28                     29                     30
                      A                      A                      A
 Frequencies --    899.0464               938.2696               959.8616
 Red. masses --      1.3083                 1.8904                 2.2809
 Frc consts  --      0.6231                 0.9805                 1.2381
 IR Inten    --     30.8495                 4.1623                 5.9432

                     31                     32                     33
                      A                      A                      A
 Frequencies --    979.3516               981.7591               995.9804
 Red. masses --      1.4372                 1.5822                 1.4355
 Frc consts  --      0.8122                 0.8985                 0.8390
 IR Inten    --      7.1629                 6.1483                 0.4833

                     34                     35                     36
                      A                      A                      A
 Frequencies --   1014.2665              1017.5155              1045.0248
 Red. masses --      5.6652                 1.5744                 2.1875
 Frc consts  --      3.4338                 0.9604                 1.4075
 IR Inten    --      3.6566                 2.7105                 7.0113

                     37                     38                     39
                      A                      A                      A
 Frequencies --   1058.8074              1081.5306              1099.0582
 Red. masses --      2.0393                 3.0914                 2.0911
 Frc consts  --      1.3470                 2.1305                 1.4882
 IR Inten    --      6.4775                25.6097                29.0532

                     40                     41                     42
                      A                      A                      A
 Frequencies --   1101.8926              1121.6513              1147.7337
 Red. masses --      2.2463                 1.5290                 1.5509
 Frc consts  --      1.6069                 1.1334                 1.2037
 IR Inten    --     68.2273                 5.6987                16.4679

                     43                     44                     45
                      A                      A                      A
 Frequencies --   1160.0000              1214.2416              1231.7070
 Red. masses --      1.9750                 1.5753                 1.6008
 Frc consts  --      1.5658                 1.3684                 1.4309
 IR Inten    --     38.0041                18.5904                24.4102

                     46                     47                     48
                      A                      A                      A
 Frequencies --   1236.0578              1257.0113              1290.6276
 Red. masses --      2.6045                 1.3810                 1.4187
 Frc consts  --      2.3445                 1.2856                 1.3923
 IR Inten    --     15.7991                 9.1722                 4.2209

                     49                     50                     51
                      A                      A                      A
 Frequencies --   1297.6784              1298.9161              1323.7952
 Red. masses --      4.2816                 1.4583                 1.3719
 Frc consts  --      4.2481                 1.4496                 1.4165
 IR Inten    --      7.5168                 2.6766                 4.7826

                     52                     53                     54
                      A                      A                      A
 Frequencies --   1331.8591              1345.9164              1358.3776
 Red. masses --      1.2975                 1.4284                 1.2936
 Frc consts  --      1.3561                 1.5245                 1.4063
 IR Inten    --     12.5607                 4.9030                 3.0398

                     55                     56                     57
                      A                      A                      A
 Frequencies --   1366.0374              1374.1321              1416.4663
 Red. masses --      1.3584                 1.4161                 1.2395
 Frc consts  --      1.4935                 1.5754                 1.4652
 IR Inten    --      7.0575                 4.3464                22.1060

                     58                     59                     60
                      A                      A                      A
 Frequencies --   1427.4372              1444.6430              1461.9475
 Red. masses --      1.2642                 1.4111                 2.0100
 Frc consts  --      1.5177                 1.7351                 2.5311
 IR Inten    --      5.0312                15.4224                24.1935

                     61                     62                     63
                      A                      A                      A
 Frequencies --   1509.0515              1514.9876              1518.8733
 Red. masses --      1.0880                 1.0893                 1.0975
 Frc consts  --      1.4598                 1.4730                 1.4917
 IR Inten    --      0.3406                 5.8564                13.8296

                     64                     65                     66
                      A                      A                      A
 Frequencies --   1535.3883              1544.3463              1624.2937
 Red. masses --      1.1217                 2.0232                 6.7712
 Frc consts  --      1.5580                 2.8430                10.5256
 IR Inten    --      1.6823                 1.3043                14.2761

                     67                     68                     69
                      A                      A                      A
 Frequencies --   1657.4648              1695.1902              3026.5592
 Red. masses --      5.3657                 1.0916                 1.0624
 Frc consts  --      8.6849                 1.8482                 5.7337
 IR Inten    --     44.1603                26.4647                21.8668

                     70                     71                     72
                      A                      A                      A
 Frequencies --   3032.6822              3041.2875              3053.1675
 Red. masses --      1.0755                 1.0763                 1.0716
 Frc consts  --      5.8277                 5.8653                 5.8856
 IR Inten    --      6.3624                20.3717                41.9557

                     73                     74                     75
                      A                      A                      A
 Frequencies --   3059.6227              3066.5510              3094.9802
 Red. masses --      1.0679                 1.0978                 1.0968
 Frc consts  --      5.8899                 6.0822                 6.1900
 IR Inten    --     46.2453                24.4282                 7.1688

                     76                     77                     78
                      A                      A                      A
 Frequencies --   3111.4554              3120.1951              3153.7721
 Red. masses --      1.0938                 1.0956                 1.0917
 Frc consts  --      6.2389                 6.2844                 6.3973
 IR Inten    --     67.9833                39.5903                13.9502

                     79                     80                     81
                      A                      A                      A
 Frequencies --   3168.2161              3172.7397              3190.5954
 Red. masses --      1.0871                 1.0900                 1.0945
 Frc consts  --      6.4290                 6.4645                 6.5646
 IR Inten    --     22.0412                31.4261                20.0407

                     82                     83                     84
                      A                      A                      A
 Frequencies --   3220.7911              3446.6884              3534.6434
 Red. masses --      1.0927                 1.0498                 1.0916
 Frc consts  --      6.6786                 7.3475                 8.0351
 IR Inten    --      5.1954                 3.0732                 1.5279

 - Thermochemistry -
 -------------------
 Temperature   298.150 Kelvin.  Pressure   1.00000 Atm.
 Atom     1 has atomic number  6 and mass  12.00000

 Molecular mass:   192.12626 amu.
 Principal axes and moments of inertia in atomic units:
                           1         2         3
     Eigenvalues --  1332.645724462.913394917.31122
           X            0.99998   0.00533  -0.00182
           Y           -0.00540   0.99917  -0.04029
           Z            0.00161   0.04030   0.99919
 This molecule is an asymmetric top.
 Rotational symmetry number  1.
 Warning -- assumption of classical behavior for rotation
           may cause significant error
 Rotational temperatures (Kelvin)      0.06499     0.01941     0.01761
 Rotational constants (GHZ):           1.35425     0.40439     0.36702
 Zero-point vibrational energy     687996.5 (Joules/Mol)
                                  164.43510 (Kcal/Mol)
 Warning -- explicit consideration of  18 degrees of freedom as
           vibrations may cause significant error
 Vibrational temperatures:     31.74    66.62    81.32   120.64   232.56
          (Kelvin)            314.15   325.48   408.73   432.28   469.96
                              538.75   561.37   617.69   662.69   707.19
                              725.00   778.93   875.27   972.21   987.69
                             1069.72  1111.04  1165.49  1184.16  1215.36
                             1255.02  1292.15  1293.53  1349.96  1381.03
                             1409.07  1412.53  1432.99  1459.30  1463.98
                             1503.56  1523.39  1556.08  1581.30  1585.38
                             1613.81  1651.33  1668.98  1747.02  1772.15
                             1778.41  1808.56  1856.93  1867.07  1868.85
                             1904.65  1916.25  1936.47  1954.40  1965.42
                             1977.07  2037.98  2053.76  2078.52  2103.42
                             2171.19  2179.73  2185.32  2209.08  2221.97
                             2337.00  2384.72  2439.00  4354.54  4363.35
                             4375.73  4392.83  4402.11  4412.08  4452.99
                             4476.69  4489.26  4537.57  4558.36  4564.86
                             4590.56  4634.00  4959.02  5085.56

 Zero-point correction=                           0.262044 (Hartree/Particle)
 Thermal correction to Energy=                    0.274605
 Thermal correction to Enthalpy=                  0.275549
 Thermal correction to Gibbs Free Energy=         0.221544
 Sum of electronic and zero-point Energies=           -613.296040
 Sum of electronic and thermal Energies=              -613.283479
 Sum of electronic and thermal Enthalpies=            -613.282535
 Sum of electronic and thermal Free Energies=         -613.336539

                     E (Thermal)             CV                S
                      KCal/Mol        Cal/Mol-Kelvin    Cal/Mol-Kelvin
 Total                  172.317             49.150            113.662
 Electronic               0.000              0.000              0.000
 Translational            0.889              2.981             41.664
 Rotational               0.889              2.981             31.748
 Vibrational            170.540             43.188             40.250
 Vibration     1          0.593              1.985              6.439
 Vibration     2          0.595              1.979              4.969
 Vibration     3          0.596              1.975              4.575
 Vibration     4          0.601              1.960              3.799
 Vibration     5          0.622              1.889              2.531
 Vibration     6          0.646              1.813              1.973
 Vibration     7          0.650              1.801              1.909
 Vibration     8          0.682              1.703              1.509
 Vibration     9          0.693              1.673              1.414
 Vibration    10          0.710              1.622              1.277
 Vibration    11          0.746              1.525              1.062
 Vibration    12          0.758              1.491              0.999
 Vibration    13          0.791              1.406              0.861
 Vibration    14          0.818              1.337              0.764
 Vibration    15          0.847              1.269              0.680
 Vibration    16          0.859              1.241              0.648
 Vibration    17          0.896              1.159              0.562
 Vibration    18          0.967              1.014              0.436

 Optimization completed.
    -- Stationary point found.
 Normal termination of Gaussian 16 at Thu Dec 10 11:08:47 2020.

 ----------------------------------------------------------------------
 # B3LYP/6-311++G(d,p) empiricaldispersion=gd3bj scf=xqc pop=npa geom=c
 heck
 ----------------------------------------------------------------------

 --------------------------------------
 CID_79466095_JID_4953_Energie_neutraal
 --------------------------------------
 Structure from the checkpoint file:  "JID_4953.chk"
 Charge =  0 Multiplicity = 1

 SCF Done:  E(RB3LYP) =  -613.731793004     A.U. after   14 cycles
 Normal termination of Gaussian 16 at Thu Dec 10 11:13:01 2020.

 ----------------------------------------------------------------------
 # B3LYP/6-311++G(d,p) empiricaldispersion=gd3bj scf=xqc pop=npa geom=c
 heck
 ----------------------------------------------------------------------

 ------------------------------------
 CID_79466095_JID_4953_Energie_kation
 ------------------------------------
 Structure from the checkpoint file:  "JID_4953.chk"
 Charge =  1 Multiplicity = 2

 SCF Done:  E(UB3LYP) =  -613.418039587     A.U. after   33 cycles
 SCF Done:  E(UB3LYP) =  -613.418039587     a.u. after    1 cycles
 Normal termination of Gaussian 16 at Thu Dec 10 11:26:51 2020.
 Gaussian 16:  ES64L-G16RevA.03 25-Dec-2016

 ----------------------------------------------------------------------
 # B3LYP/6-311++G(d,p) empiricaldispersion=gd3bj scf=xqc pop=npa geom=c
 heck
 ----------------------------------------------------------------------

 -----------------------------------
 CID_79466095_JID_4953_Energie_anion
 -----------------------------------
 Structure from the checkpoint file:  "JID_4953.chk"
 Charge = -1 Multiplicity = 2

                         Standard orientation:
 ---------------------------------------------------------------------
 Center     Atomic      Atomic             Coordinates (Angstroms)
 Number     Number       Type             X           Y           Z
 ---------------------------------------------------------------------
      1          6           0        1.606752    1.004071    0.955653
      2          6           0        1.020127   -0.330503    1.425473
      3          6           0        1.461146   -1.378330    0.367185
      4          6           0        2.698845   -0.745896   -0.325872
      5          6           0        2.977247    0.606748    0.385797
      6          7           0        3.580708    1.675686   -0.407310
      7          8           0        0.448825   -1.798842   -0.561257
      8          6           0       -0.209755   -0.803616   -1.319819
      9          6           0       -1.446263   -0.233998   -0.654415
     10          6           0       -1.839769    1.088253   -0.864002
     11          6           0       -3.011088    1.550560   -0.262240
     12          7           0       -3.794024    0.797649    0.518279
     13          6           0       -3.407311   -0.471195    0.713830
     14          6           0       -2.259365   -1.029841    0.156893
     15          1           0        1.688443    1.754182    1.747066
     16          1           0        0.988854    1.442167    0.159009
     17          1           0       -0.059943   -0.321315    1.577418
     18          1           0        1.478632   -0.604692    2.384375
     19          1           0        1.722022   -2.319867    0.855714
     20          1           0        2.474427   -0.560466   -1.383139
     21          1           0        3.565082   -1.415435   -0.306702
     22          1           0        3.653573    0.424492    1.231923
     23          1           0        4.494435    1.380611   -0.749353
     24          1           0        3.010558    1.839882   -1.237873
     25          1           0        0.465431    0.014614   -1.605033
     26          1           0       -0.512195   -1.299608   -2.251277
     27          1           0       -1.243377    1.755718   -1.481123
     28          1           0       -3.331380    2.580660   -0.409798
     29          1           0       -4.052841   -1.071829    1.352425
     30          1           0       -1.982487   -2.059237    0.358750
 ---------------------------------------------------------------------

 SCF Done:  E(UB3LYP) =  -613.722940780     A.U. after   33 cycles
 SCF Done:  E(UB3LYP) =  -613.722940780     a.u. after    1 cycles

 The electronic state is 2-A.
 Alpha  occ. eigenvalues --  -19.01885 -14.19062 -14.18650 -10.11799 -10.11495
 Alpha  occ. eigenvalues --  -10.09373 -10.09231 -10.09186 -10.07040 -10.06748
 Alpha  occ. eigenvalues --  -10.06281 -10.06205 -10.06135 -10.05729  -0.92947
 Alpha  occ. eigenvalues --   -0.82709  -0.78906  -0.71376  -0.70096  -0.64810
 Alpha  occ. eigenvalues --   -0.61903  -0.59995  -0.56553  -0.52003  -0.49911
 Alpha  occ. eigenvalues --   -0.47526  -0.45775  -0.40526  -0.40459  -0.39542
 Alpha  occ. eigenvalues --   -0.37848  -0.36610  -0.35843  -0.33991  -0.33569
 Alpha  occ. eigenvalues --   -0.32221  -0.31702  -0.29849  -0.29423  -0.28150
 Alpha  occ. eigenvalues --   -0.26762  -0.25340  -0.24961  -0.24723  -0.23635
 Alpha  occ. eigenvalues --   -0.22389  -0.20568  -0.16867  -0.16128  -0.15484
 Alpha  occ. eigenvalues --   -0.14599  -0.13661   0.04485
 Alpha virt. eigenvalues --    0.06106   0.07106   0.07862   0.08633   0.08746
 Alpha virt. eigenvalues --    0.09103   0.09499   0.10248   0.10898   0.11113
 Alpha virt. eigenvalues --    0.11567   0.12622   0.12943   0.14005   0.14287

  Beta  occ. eigenvalues --  -19.01874 -14.19025 -14.18425 -10.11791 -10.11499
  Beta  occ. eigenvalues --  -10.09359 -10.09217 -10.09146 -10.06815 -10.06750
  Beta  occ. eigenvalues --  -10.06274 -10.06201 -10.06128 -10.05704  -0.92917
  Beta  occ. eigenvalues --   -0.82406  -0.78847  -0.71266  -0.69822  -0.64683
  Beta  occ. eigenvalues --   -0.61844  -0.59936  -0.56439  -0.51946  -0.49669
  Beta  occ. eigenvalues --   -0.47476  -0.45695  -0.40447  -0.40375  -0.39479
  Beta  occ. eigenvalues --   -0.37779  -0.36512  -0.35729  -0.33936  -0.33437
  Beta  occ. eigenvalues --   -0.32147  -0.31674  -0.29762  -0.29268  -0.27695
  Beta  occ. eigenvalues --   -0.26702  -0.25256  -0.24873  -0.24668  -0.23572
  Beta  occ. eigenvalues --   -0.22345  -0.20517  -0.16165  -0.15809  -0.15131
  Beta  occ. eigenvalues --   -0.14368  -0.13609
  Beta virt. eigenvalues --    0.06965   0.07617   0.07908   0.08194   0.08837
  Beta virt. eigenvalues --    0.08971   0.09419   0.09859   0.10712   0.11203
  Beta virt. eigenvalues --    0.11382   0.11740   0.12939   0.13161   0.14262

 Mulliken charges and spin densities:
               1          2
     1  C    0.145730  -0.266689
     2  C    0.019646  -0.247591
     3  C   -0.912414   0.725551
     4  C    0.485980  -0.767088
     5  C    0.238060  -0.993810
     6  N   -0.337153   0.076310
     7  O   -0.059882   0.003224
     8  C    1.309696  -1.968674
     9  C    0.022130   0.491910
    10  C   -0.538033   0.526046
    11  C   -0.499641  -0.108550
    12  N   -0.118015   0.094066
    13  C   -0.533868  -0.021957
    14  C    0.073661   0.333181
    15  H    0.142751   0.021222
    16  H    0.164982  -0.042972
    17  H    0.249725  -0.026722
    18  H    0.064657   0.087395
    19  H   -0.126711   0.347405
    20  H    0.098490   0.100281
    21  H   -0.570775   0.715647
    22  H   -0.151253   0.322084
    23  H   -0.238217   0.481502
    24  H    0.023924   0.187656
    25  H    0.113700   0.042128
    26  H   -0.245170   0.452994
    27  H   -0.127709   0.280726
    28  H    0.095552   0.041423
    29  H    0.114317   0.023258
    30  H    0.095843   0.090046
 Sum of Mulliken charges =  -1.00000   1.00000

 Dipole moment (field-independent basis, Debye):
    X=             -3.2743    Y=             -0.1495    Z=              2.0594  Tot=              3.8710
 Quadrupole moment (field-independent basis, Debye-Ang):
   XX=           -172.0359   YY=           -116.5209   ZZ=           -111.6155
   XY=              1.2931   XZ=              3.1731   YZ=             -4.3557

 Summary of Natural Population Analysis:

                                       Natural Population
                Natural  -----------------------------------------------
    Atom  No    Charge         Core      Valence    Rydberg      Total
 -----------------------------------------------------------------------
      C    1   -0.19269      0.99961     2.18464    0.00844     3.19269
      C    2   -0.21099      0.99961     2.20407    0.00731     3.21099
      C    3    0.07257      0.99954     1.91300    0.01489     2.92743
      C    4   -0.21471      0.99960     2.20470    0.01041     3.21471
      C    5   -0.01483      0.99959     2.00171    0.01353     3.01483
      N    6   -0.41872      0.99976     2.90827    0.01068     3.91872
      O    7   -0.30101      0.99988     3.29169    0.00943     4.30101
      C    8   -0.02215      0.99951     2.00901    0.01363     3.02215
      C    9    0.02370      0.99949     1.96711    0.00969     2.97630
      C   10   -0.13158      0.99950     2.12307    0.00901     3.13158
      C   11    0.02978      0.99960     1.95446    0.01616     2.97022
      N   12   -0.21581      0.99972     2.70514    0.01095     3.71581
      C   13    0.02372      0.99959     1.96071    0.01597     2.97628
      C   14   -0.12683      0.99950     2.11805    0.00929     3.12683
      H   15    0.10150      0.00000     0.39765    0.00086     0.39850
      H   16    0.09500      0.00000     0.40339    0.00161     0.40500
      H   17    0.11251      0.00000     0.38652    0.00098     0.38749
      H   18    0.09807      0.00000     0.40094    0.00098     0.40193
      H   19    0.09100      0.00000     0.40784    0.00116     0.40900
      H   20    0.10130      0.00000     0.39687    0.00183     0.39870
      H   21    0.10554      0.00000     0.39227    0.00219     0.39446
      H   22    0.08876      0.00000     0.40980    0.00144     0.41124
      H   23    0.17706      0.00000     0.32031    0.00263     0.32294
      H   24    0.16942      0.00000     0.32848    0.00210     0.33058
      H   25    0.08235      0.00000     0.41545    0.00220     0.41765
      H   26    0.10116      0.00000     0.39674    0.00210     0.39884
      H   27    0.10020      0.00000     0.39870    0.00110     0.39980
      H   28    0.08434      0.00000     0.41444    0.00122     0.41566
      H   29    0.08403      0.00000     0.41482    0.00115     0.41597
      H   30    0.10731      0.00000     0.39153    0.00116     0.39269
 =======================================================================
   * Total *   -0.00000     13.99452    37.82140    0.18408    52.00000

 Normal termination of Gaussian 16 at Thu Dec 10 11:40:36 2020.
