 Gaussian 16, Revision A.03,

 -----------------------------------------------------------
 # opt freq B3LYP/6-31G(d) empiricaldispersion=gd3bj scf=xqc
 -----------------------------------------------------------

 --------------------------------
 CID_105346385_JID_10546_neutraal
 --------------------------------
 Symbolic Z-matrix:
 Charge =  0 Multiplicity = 1

 SCF Done:  E(RB3LYP) =  -808.729839626     A.U. after   13 cycles
 SCF Done:  E(RB3LYP) =  -808.734332500     A.U. after   12 cycles
 SCF Done:  E(RB3LYP) =  -808.735709026     A.U. after   12 cycles
 SCF Done:  E(RB3LYP) =  -808.736212810     A.U. after   14 cycles
 SCF Done:  E(RB3LYP) =  -808.736483971     A.U. after   11 cycles
 SCF Done:  E(RB3LYP) =  -808.736607767     A.U. after   11 cycles
 SCF Done:  E(RB3LYP) =  -808.736837342     A.U. after   12 cycles
 SCF Done:  E(RB3LYP) =  -808.736909483     A.U. after   12 cycles
 SCF Done:  E(RB3LYP) =  -808.736923251     A.U. after   12 cycles
 SCF Done:  E(RB3LYP) =  -808.736965094     A.U. after   10 cycles
 SCF Done:  E(RB3LYP) =  -808.737024449     A.U. after   10 cycles
 SCF Done:  E(RB3LYP) =  -808.737016781     A.U. after   10 cycles
 SCF Done:  E(RB3LYP) =  -808.737024783     A.U. after   10 cycles
 SCF Done:  E(RB3LYP) =  -808.737024823     A.U. after    7 cycles
 SCF Done:  E(RB3LYP) =  -808.737024829     A.U. after    6 cycles
 Optimization completed.
    -- Stationary point found.
 Normal termination of Gaussian 16 at Mon Dec 14 17:51:24 2020.

 --------------------------------------------------------------------
 #N Geom=AllCheck Guess=TCheck SCRF=Check GenChk RB3LYP/6-31G(d) Freq
 --------------------------------------------------------------------

 Structure from the checkpoint file:  "JID_10546.chk"
 --------------------------------
 CID_105346385_JID_10546_neutraal
 --------------------------------
 Charge =  0 Multiplicity = 1

 SCF Done:  E(RB3LYP) =  -808.737024829     A.U. after    1 cycles

  Exact polarizability: 218.532  -6.557 172.536   2.457  13.698 187.863
 Approx polarizability: 288.966  -4.229 255.627   6.009  30.874 333.551

                      1                      2                      3
                      A                      A                      A
 Frequencies --     18.0435                25.1518                44.2523
 Red. masses --      4.3288                 4.0524                 3.5573
 Frc consts  --      0.0008                 0.0015                 0.0041
 IR Inten    --      0.0501                 0.2108                 0.1387

                      4                      5                      6
                      A                      A                      A
 Frequencies --     59.1870                81.0467                86.1962
 Red. masses --      4.2730                 3.7529                 3.2226
 Frc consts  --      0.0088                 0.0145                 0.0141
 IR Inten    --      0.0025                 0.0354                 0.1013

                      7                      8                      9
                      A                      A                      A
 Frequencies --    122.6056               160.5645               179.5438
 Red. masses --      3.2043                 2.3116                 3.0434
 Frc consts  --      0.0284                 0.0351                 0.0578
 IR Inten    --      0.6958                 0.4914                 1.4451

                     10                     11                     12
                      A                      A                      A
 Frequencies --    200.1353               206.7200               226.1006
 Red. masses --      2.6154                 2.8524                 1.7976
 Frc consts  --      0.0617                 0.0718                 0.0541
 IR Inten    --      0.4969                 0.6523                 1.1770

                     13                     14                     15
                      A                      A                      A
 Frequencies --    254.7773               302.9692               329.1492
 Red. masses --      2.8939                 3.0012                 2.2010
 Frc consts  --      0.1107                 0.1623                 0.1405
 IR Inten    --      2.1148                 6.8141                 3.7720

                     16                     17                     18
                      A                      A                      A
 Frequencies --    351.7382               391.2678               408.8382
 Red. masses --      2.8040                 2.3038                 2.6090
 Frc consts  --      0.2044                 0.2078                 0.2569
 IR Inten    --     12.6493                 0.6590                 4.9441

                     19                     20                     21
                      A                      A                      A
 Frequencies --    424.6799               427.0819               440.6080
 Red. masses --      3.0541                 2.8570                 2.4946
 Frc consts  --      0.3245                 0.3070                 0.2853
 IR Inten    --      0.1776                 0.6821                 0.0542

                     22                     23                     24
                      A                      A                      A
 Frequencies --    469.0174               480.5753               516.5038
 Red. masses --      3.1829                 3.8172                 3.2936
 Frc consts  --      0.4125                 0.5194                 0.5177
 IR Inten    --      2.0534                 5.2202                 0.0298

                     25                     26                     27
                      A                      A                      A
 Frequencies --    528.9342               604.9896               611.7394
 Red. masses --      4.0038                 6.1393                 2.7373
 Frc consts  --      0.6600                 1.3239                 0.6035
 IR Inten    --      0.7990                 0.1106                17.2314

                     28                     29                     30
                      A                      A                      A
 Frequencies --    659.8216               677.1789               712.1168
 Red. masses --      6.4094                 3.8089                 3.3347
 Frc consts  --      1.6441                 1.0291                 0.9963
 IR Inten    --      0.1170                11.9408                 6.4512

                     31                     32                     33
                      A                      A                      A
 Frequencies --    722.9052               757.5183               758.0630
 Red. masses --      3.7794                 1.8966                 1.2022
 Frc consts  --      1.1637                 0.6412                 0.4070
 IR Inten    --      0.0039                50.3705                45.7189

                     34                     35                     36
                      A                      A                      A
 Frequencies --    785.7105               811.7913               832.8312
 Red. masses --      2.3047                 2.5631                 2.6443
 Frc consts  --      0.8383                 0.9952                 1.0806
 IR Inten    --     74.4745                 5.7805                 0.6883

                     37                     38                     39
                      A                      A                      A
 Frequencies --    844.5351               861.3903               867.1508
 Red. masses --      2.5975                 1.4105                 2.9777
 Frc consts  --      1.0915                 0.6166                 1.3192
 IR Inten    --     10.4093                 0.5598                 0.9603

                     40                     41                     42
                      A                      A                      A
 Frequencies --    877.7166               880.9646               881.2800
 Red. masses --      2.1409                 1.3368                 4.2398
 Frc consts  --      0.9718                 0.6113                 1.9401
 IR Inten    --     17.6341                 0.1166                 5.1609

                     43                     44                     45
                      A                      A                      A
 Frequencies --    933.3939               941.7334               960.1377
 Red. masses --      1.3666                 2.5359                 1.9596
 Frc consts  --      0.7015                 1.3250                 1.0643
 IR Inten    --      1.0313                14.5527                 2.0023

                     46                     47                     48
                      A                      A                      A
 Frequencies --    965.5982               968.0404               979.8397
 Red. masses --      1.3481                 1.3094                 1.2474
 Frc consts  --      0.7406                 0.7230                 0.7056
 IR Inten    --      0.4136                 1.0329                 0.0024

                     49                     50                     51
                      A                      A                      A
 Frequencies --   1003.7541              1035.4375              1044.1171
 Red. masses --      1.7968                 1.7558                 2.4337
 Frc consts  --      1.0666                 1.1091                 1.5632
 IR Inten    --      0.7668                15.1083                 4.4568

                     52                     53                     54
                      A                      A                      A
 Frequencies --   1045.3400              1057.6557              1062.1705
 Red. masses --      1.9697                 2.1169                 1.7386
 Frc consts  --      1.2681                 1.3952                 1.1557
 IR Inten    --      0.5515                 2.2348                 1.3751

                     55                     56                     57
                      A                      A                      A
 Frequencies --   1108.1404              1125.9496              1145.0516
 Red. masses --      2.3769                 1.7712                 1.8020
 Frc consts  --      1.7197                 1.3230                 1.3921
 IR Inten    --      9.2907                 5.6182                17.4399

                     58                     59                     60
                      A                      A                      A
 Frequencies --   1161.4620              1163.4571              1168.3180
 Red. masses --      1.4409                 1.3918                 2.3911
 Frc consts  --      1.1452                 1.1100                 1.9230
 IR Inten    --      2.6129                 3.9731                41.7552

                     61                     62                     63
                      A                      A                      A
 Frequencies --   1192.3794              1194.1039              1200.0213
 Red. masses --      1.1132                 1.9089                 1.7724
 Frc consts  --      0.9325                 1.6037                 1.5038
 IR Inten    --      0.0970                24.8173                 0.0078

                     64                     65                     66
                      A                      A                      A
 Frequencies --   1208.9681              1219.7675              1224.1479
 Red. masses --      1.3038                 1.1614                 2.4852
 Frc consts  --      1.1228                 1.0181                 2.1942
 IR Inten    --      1.6737                 2.6782                 7.7873

                     67                     68                     69
                      A                      A                      A
 Frequencies --   1232.5334              1235.1713              1241.8778
 Red. masses --      1.5516                 2.1973                 2.0544
 Frc consts  --      1.3888                 1.9751                 1.8668
 IR Inten    --      9.3706                13.5326                 1.6320

                     70                     71                     72
                      A                      A                      A
 Frequencies --   1261.7806              1272.7223              1319.7065
 Red. masses --      2.1970                 1.2815                 1.4448
 Frc consts  --      2.0608                 1.2230                 1.4825
 IR Inten    --      4.4847                 0.4767                 7.2397

                     73                     74                     75
                      A                      A                      A
 Frequencies --   1333.8444              1356.8831              1362.1286
 Red. masses --      1.7305                 3.9227                 1.4161
 Frc consts  --      1.8140                 4.2552                 1.5480
 IR Inten    --      6.3390                 8.3103                 0.3861

                     76                     77                     78
                      A                      A                      A
 Frequencies --   1363.0457              1377.9991              1390.7068
 Red. masses --      2.6063                 1.3425                 1.2902
 Frc consts  --      2.8530                 1.5020                 1.4701
 IR Inten    --      1.4515                 3.4742                38.1261

                     79                     80                     81
                      A                      A                      A
 Frequencies --   1402.8154              1404.8963              1414.6369
 Red. masses --      1.6110                 1.2689                 2.1039
 Frc consts  --      1.8679                 1.4756                 2.4807
 IR Inten    --      6.6336                16.9735                17.9322

                     82                     83                     84
                      A                      A                      A
 Frequencies --   1469.7190              1480.5616              1499.8927
 Red. masses --      2.4833                 1.1513                 1.0960
 Frc consts  --      3.1604                 1.4869                 1.4527
 IR Inten    --      5.5362                 0.8319                 8.1959

                     85                     86                     87
                      A                      A                      A
 Frequencies --   1507.3829              1510.6283              1512.5847
 Red. masses --      1.1081                 1.1076                 2.4748
 Frc consts  --      1.4834                 1.4892                 3.3360
 IR Inten    --      3.5944                 5.6627                 4.6437

                     88                     89                     90
                      A                      A                      A
 Frequencies --   1521.8630              1529.2367              1531.6310
 Red. masses --      1.1447                 1.1142                 2.5942
 Frc consts  --      1.5621                 1.5352                 3.5856
 IR Inten    --      2.0497                14.0050                19.8677

                     91                     92                     93
                      A                      A                      A
 Frequencies --   1538.3489              1550.7110              1551.0215
 Red. masses --      1.0838                 1.0948                 1.0641
 Frc consts  --      1.5112                 1.5511                 1.5083
 IR Inten    --      2.6767                 3.3855                 2.9172

                     94                     95                     96
                      A                      A                      A
 Frequencies --   1563.5960              1630.4779              1652.6357
 Red. masses --      2.4428                 6.0216                 6.2640
 Frc consts  --      3.5188                 9.4318                10.0799
 IR Inten    --      9.7161                 0.1268                 1.2185

                     97                     98                     99
                      A                      A                      A
 Frequencies --   1674.7789              1677.0286              2940.0864
 Red. masses --      5.8153                 6.5955                 1.0721
 Frc consts  --      9.6102                10.9289                 5.4599
 IR Inten    --      2.8515                 0.1243                35.0711

                    100                    101                    102
                      A                      A                      A
 Frequencies --   2948.4523              2959.9805              3036.6515
 Red. masses --      1.0725                 1.0602                 1.0670
 Frc consts  --      5.4932                 5.4730                 5.7972
 IR Inten    --     54.8887                74.8599                21.9130

                    103                    104                    105
                      A                      A                      A
 Frequencies --   3036.9504              3038.4734              3040.6242
 Red. masses --      1.0847                 1.0600                 1.0819
 Frc consts  --      5.8943                 5.7657                 5.8936
 IR Inten    --     50.3482                34.7940                78.2402

                    106                    107                    108
                      A                      A                      A
 Frequencies --   3051.0687              3069.5784              3079.9164
 Red. masses --      1.0609                 1.0731                 1.1048
 Frc consts  --      5.8189                 5.9570                 6.1746
 IR Inten    --     43.1091                56.8086                37.0448

                    109                    110                    111
                      A                      A                      A
 Frequencies --   3080.6365              3096.2375              3117.1695
 Red. masses --      1.1061                 1.1033                 1.1023
 Frc consts  --      6.1850                 6.2316                 6.3105
 IR Inten    --     18.9646                42.3401                27.4040

                    112                    113                    114
                      A                      A                      A
 Frequencies --   3170.0546              3172.3462              3178.9186
 Red. masses --      1.0865                 1.0866                 1.0854
 Frc consts  --      6.4329                 6.4427                 6.4628
 IR Inten    --     16.3721                11.7689                 4.0713

                    115                    116                    117
                      A                      A                      A
 Frequencies --   3184.7462              3186.8551              3190.8911
 Red. masses --      1.0889                 1.0939                 1.0943
 Frc consts  --      6.5069                 6.5454                 6.5648
 IR Inten    --      2.2918                35.8071                 5.1055

                    118                    119                    120
                      A                      A                      A
 Frequencies --   3195.4845              3208.4154              3498.6066
 Red. masses --      1.0929                 1.0971                 1.0735
 Frc consts  --      6.5751                 6.6541                 7.7418
 IR Inten    --     35.2956                32.4803                 0.3284

 - Thermochemistry -
 -------------------
 Temperature   298.150 Kelvin.  Pressure   1.00000 Atm.
 Atom     1 has atomic number  6 and mass  12.00000

 Molecular mass:   266.17830 amu.
 Principal axes and moments of inertia in atomic units:
                           1         2         3
     Eigenvalues --  3462.57208********************
           X            0.99991   0.01314   0.00196
           Y           -0.01317   0.99972   0.01988
           Z           -0.00170  -0.01991   0.99980
 This molecule is an asymmetric top.
 Rotational symmetry number  1.
 Warning -- assumption of classical behavior for rotation
           may cause significant error
 Rotational temperatures (Kelvin)      0.02501     0.00858     0.00745
 Rotational constants (GHZ):           0.52121     0.17884     0.15525
 Zero-point vibrational energy     962080.9 (Joules/Mol)
                                  229.94285 (Kcal/Mol)
 Warning -- explicit consideration of  27 degrees of freedom as
           vibrations may cause significant error
 Vibrational temperatures:     25.96    36.19    63.67    85.16   116.61
          (Kelvin)            124.02   176.40   231.02   258.32   287.95
                              297.42   325.31   366.57   435.91   473.57
                              506.07   562.95   588.23   611.02   614.48
                              633.94   674.81   691.44   743.13   761.02
                              870.45   880.16   949.34   974.31  1024.58
                             1040.10  1089.90  1090.68  1130.46  1167.99
                             1198.26  1215.10  1239.35  1247.64  1262.84
                             1267.51  1267.97  1342.95  1354.94  1381.42
                             1389.28  1392.79  1409.77  1444.18  1489.76
                             1502.25  1504.01  1521.73  1528.23  1594.37
                             1619.99  1647.47  1671.08  1673.96  1680.95
                             1715.57  1718.05  1726.56  1739.44  1754.97
                             1761.28  1773.34  1777.14  1786.79  1815.42
                             1831.16  1898.76  1919.10  1952.25  1959.80
                             1961.12  1982.63  2000.92  2018.34  2021.33
                             2035.35  2114.60  2130.20  2158.01  2168.79
                             2173.46  2176.27  2189.62  2200.23  2203.68
                             2213.34  2231.13  2231.57  2249.67  2345.89
                             2377.77  2409.63  2412.87  4230.13  4242.17
                             4258.75  4369.06  4369.49  4371.69  4374.78
                             4389.81  4416.44  4431.31  4432.35  4454.80
                             4484.91  4561.00  4564.30  4573.75  4582.14
                             4585.17  4590.98  4597.59  4616.19  5033.71

 Zero-point correction=                           0.366437 (Hartree/Particle)
 Thermal correction to Energy=                    0.384248
 Thermal correction to Enthalpy=                  0.385192
 Thermal correction to Gibbs Free Energy=         0.318533
 Sum of electronic and zero-point Energies=           -808.370588
 Sum of electronic and thermal Energies=              -808.352777
 Sum of electronic and thermal Enthalpies=            -808.351833
 Sum of electronic and thermal Free Energies=         -808.418492

                     E (Thermal)             CV                S
                      KCal/Mol        Cal/Mol-Kelvin    Cal/Mol-Kelvin
 Total                  241.119             70.111            140.296
 Electronic               0.000              0.000              0.000
 Translational            0.889              2.981             42.636
 Rotational               0.889              2.981             34.362
 Vibrational            239.342             64.149             63.298
 Vibration     1          0.593              1.986              6.839
 Vibration     2          0.593              1.985              6.179
 Vibration     3          0.595              1.980              5.059
 Vibration     4          0.597              1.974              4.484
 Vibration     5          0.600              1.962              3.865
 Vibration     6          0.601              1.959              3.745
 Vibration     7          0.610              1.930              3.059
 Vibration     8          0.622              1.891              2.543
 Vibration     9          0.629              1.867              2.333
 Vibration    10          0.638              1.840              2.132
 Vibration    11          0.641              1.830              2.072
 Vibration    12          0.650              1.801              1.910
 Vibration    13          0.665              1.755              1.697
 Vibration    14          0.694              1.668              1.400
 Vibration    15          0.712              1.617              1.264
 Vibration    16          0.728              1.572              1.158
 Vibration    17          0.759              1.489              0.995
 Vibration    18          0.773              1.451              0.931
 Vibration    19          0.787              1.417              0.876
 Vibration    20          0.789              1.411              0.868
 Vibration    21          0.801              1.382              0.825
 Vibration    22          0.826              1.319              0.740
 Vibration    23          0.837              1.293              0.709
 Vibration    24          0.872              1.213              0.618
 Vibration    25          0.884              1.186              0.590
 Vibration    26          0.964              1.021              0.441
 Vibration    27          0.971              1.007              0.430

 Optimization completed.
    -- Stationary point found.
 Normal termination of Gaussian 16 at Mon Dec 14 18:12:21 2020.

 ----------------------------------------------------------------------
 # B3LYP/6-311++G(d,p) empiricaldispersion=gd3bj scf=xqc pop=npa geom=c
 heck
 ----------------------------------------------------------------------

 ----------------------------------------
 CID_105346385_JID_10546_Energie_neutraal
 ----------------------------------------
 Structure from the checkpoint file:  "JID_10546.chk"
 Charge =  0 Multiplicity = 1

 SCF Done:  E(RB3LYP) =  -808.947570086     A.U. after   14 cycles
 Normal termination of Gaussian 16 at Mon Dec 14 18:21:49 2020.

 ----------------------------------------------------------------------
 # B3LYP/6-311++G(d,p) empiricaldispersion=gd3bj scf=xqc pop=npa geom=c
 heck
 ----------------------------------------------------------------------

 --------------------------------------
 CID_105346385_JID_10546_Energie_kation
 --------------------------------------
 Structure from the checkpoint file:  "JID_10546.chk"
 Charge =  1 Multiplicity = 2

 SCF Done:  E(UB3LYP) =  -808.676935114     A.U. after   26 cycles
 Normal termination of Gaussian 16 at Mon Dec 14 18:47:32 2020.
 Gaussian 16:  ES64L-G16RevA.03 25-Dec-2016

 ----------------------------------------------------------------------
 # B3LYP/6-311++G(d,p) empiricaldispersion=gd3bj scf=xqc pop=npa geom=c
 heck
 ----------------------------------------------------------------------

 -------------------------------------
 CID_105346385_JID_10546_Energie_anion
 -------------------------------------
 Structure from the checkpoint file:  "JID_10546.chk"
 Charge = -1 Multiplicity = 2

                         Standard orientation:
 ---------------------------------------------------------------------
 Center     Atomic      Atomic             Coordinates (Angstroms)
 Number     Number       Type             X           Y           Z
 ---------------------------------------------------------------------
      1          6           0        4.116818    2.682430    1.011162
      2          7           0        3.348272    2.348648   -0.179950
      3          6           0        4.027565    1.466749   -1.118118
      4          6           0        4.328123    0.024306   -0.626401
      5          6           0        3.064654   -0.716868   -0.271240
      6          6           0        2.333610   -1.402452   -1.250102
      7          6           0        1.124129   -2.020807   -0.941633
      8          6           0        0.596872   -1.970245    0.355399
      9          6           0        1.333633   -1.297805    1.337132
     10          6           0        2.545132   -0.679308    1.029171
     11          6           0       -0.763191   -2.565289    0.669450
     12          7           0       -1.895244   -1.662240    0.489813
     13          6           0       -2.184451   -1.219446   -0.879339
     14          6           0       -3.070362   -0.021095   -0.652862
     15          6           0       -3.890039    0.666362   -1.540627
     16          6           0       -4.594823    1.782853   -1.078836
     17          6           0       -4.472525    2.199973    0.249329
     18          6           0       -3.643307    1.507578    1.137873
     19          6           0       -2.948019    0.396132    0.675445
     20          6           0       -1.975151   -0.506314    1.390423
     21          1           0        5.032494    3.205982    0.711132
     22          1           0        4.418379    1.825263    1.640346
     23          1           0        3.532658    3.365838    1.636179
     24          1           0        2.458087    1.933481    0.088479
     25          1           0        3.410338    1.401594   -2.022818
     26          1           0        4.971790    1.946530   -1.407019
     27          1           0        4.866854   -0.503822   -1.423042
     28          1           0        4.999797    0.062607    0.238963
     29          1           0        2.722927   -1.456836   -2.264334
     30          1           0        0.585309   -2.563185   -1.715142
     31          1           0        0.961107   -1.269956    2.358543
     32          1           0        3.105398   -0.174778    1.812641
     33          1           0       -0.939963   -3.441995    0.033727
     34          1           0       -0.784421   -2.913096    1.709917
     35          1           0       -1.281254   -0.919296   -1.442931
     36          1           0       -2.668461   -2.026629   -1.446343
     37          1           0       -3.987788    0.343614   -2.574066
     38          1           0       -5.245110    2.327923   -1.757327
     39          1           0       -5.028485    3.066804    0.595507
     40          1           0       -3.550873    1.833665    2.170774
     41          1           0       -2.314418   -0.822251    2.386624
     42          1           0       -1.007571    0.013158    1.523792
 ---------------------------------------------------------------------

 SCF Done:  E(UB3LYP) =  -808.935875016     A.U. after   33 cycles
 SCF Done:  E(UB3LYP) =  -808.935875016     a.u. after    1 cycles

 The electronic state is 2-A.
 Alpha  occ. eigenvalues --  -14.21904 -14.20554 -10.11158 -10.11113 -10.11059
 Alpha  occ. eigenvalues --  -10.10193 -10.09622 -10.09506 -10.09454 -10.09392
 Alpha  occ. eigenvalues --  -10.09360 -10.09331 -10.09297 -10.08662 -10.08376
 Alpha  occ. eigenvalues --  -10.08218 -10.08208 -10.08063 -10.08015 -10.07789
 Alpha  occ. eigenvalues --   -0.85425  -0.81420  -0.77605  -0.76519  -0.70472
 Alpha  occ. eigenvalues --   -0.67969  -0.67908  -0.65562  -0.63822  -0.62405
 Alpha  occ. eigenvalues --   -0.60144  -0.57534  -0.53230  -0.52081  -0.51415
 Alpha  occ. eigenvalues --   -0.50017  -0.49898  -0.47939  -0.42985  -0.41402
 Alpha  occ. eigenvalues --   -0.40554  -0.39463  -0.38879  -0.38309  -0.37558
 Alpha  occ. eigenvalues --   -0.36695  -0.35963  -0.35140  -0.33885  -0.33523
 Alpha  occ. eigenvalues --   -0.33169  -0.32666  -0.32253  -0.31375  -0.30530
 Alpha  occ. eigenvalues --   -0.29795  -0.29680  -0.28146  -0.28033  -0.27277
 Alpha  occ. eigenvalues --   -0.26474  -0.26202  -0.25753  -0.25441  -0.24538
 Alpha  occ. eigenvalues --   -0.24255  -0.17236  -0.16677  -0.16491  -0.15317
 Alpha  occ. eigenvalues --   -0.13299  -0.12508   0.03856
 Alpha virt. eigenvalues --    0.05352   0.05969   0.06148   0.06482   0.06817
 Alpha virt. eigenvalues --    0.06992   0.07208   0.07866   0.07957   0.08099
 Alpha virt. eigenvalues --    0.08570   0.08790   0.09720   0.09866   0.10287

  Beta  occ. eigenvalues --  -14.21903 -14.20550 -10.11146 -10.11099 -10.11053
  Beta  occ. eigenvalues --  -10.10177 -10.09598 -10.09505 -10.09452 -10.09385
  Beta  occ. eigenvalues --  -10.09353 -10.09324 -10.09290 -10.08622 -10.08335
  Beta  occ. eigenvalues --  -10.08207 -10.08193 -10.08050 -10.07996 -10.07777
  Beta  occ. eigenvalues --   -0.85411  -0.81406  -0.77578  -0.76475  -0.70418
  Beta  occ. eigenvalues --   -0.67955  -0.67874  -0.65513  -0.63777  -0.62382
  Beta  occ. eigenvalues --   -0.60109  -0.57489  -0.53186  -0.52040  -0.51378
  Beta  occ. eigenvalues --   -0.49998  -0.49869  -0.47878  -0.42952  -0.41356
  Beta  occ. eigenvalues --   -0.40526  -0.39438  -0.38848  -0.38277  -0.37529
  Beta  occ. eigenvalues --   -0.36635  -0.35935  -0.35113  -0.33861  -0.33488
  Beta  occ. eigenvalues --   -0.33143  -0.32639  -0.32195  -0.31353  -0.30482
  Beta  occ. eigenvalues --   -0.29769  -0.29646  -0.28123  -0.28007  -0.27255
  Beta  occ. eigenvalues --   -0.26447  -0.26123  -0.25730  -0.25419  -0.24499
  Beta  occ. eigenvalues --   -0.24215  -0.17222  -0.16628  -0.16409  -0.15171
  Beta  occ. eigenvalues --   -0.13266  -0.12488
  Beta virt. eigenvalues --    0.05569   0.06036   0.06261   0.06598   0.06846
  Beta virt. eigenvalues --    0.06931   0.07275   0.07595   0.07893   0.08356
  Beta virt. eigenvalues --    0.08453   0.08835   0.09073   0.09970   0.10056

 Mulliken charges and spin densities:
               1          2
     1  C    0.206815  -0.626313
     2  N   -0.224135   0.078461
     3  C    0.142963  -0.764242
     4  C    0.511342  -0.803751
     5  C    1.101485  -0.173741
     6  C   -0.675982   0.115463
     7  C   -0.490806   0.106336
     8  C    1.626051  -0.316713
     9  C   -0.510204   0.083079
    10  C   -1.123483   0.602706
    11  C    0.112792  -1.292592
    12  N    0.237898   0.071543
    13  C    0.639118  -1.125289
    14  C    0.419923   0.145708
    15  C   -1.389938   0.846311
    16  C    0.381715  -0.710067
    17  C    0.432065  -0.750812
    18  C   -1.466969   0.917050
    19  C    0.374375   0.218181
    20  C    0.571984  -1.065966
    21  H   -0.123953   0.269642
    22  H   -0.022840   0.131179
    23  H   -0.050689   0.195612
    24  H    0.224659   0.010888
    25  H    0.072856   0.098691
    26  H   -0.139135   0.276744
    27  H   -0.220383   0.389978
    28  H   -0.086521   0.249097
    29  H   -0.388450   0.551432
    30  H   -0.350971   0.503682
    31  H   -0.441168   0.601760
    32  H   -0.297290   0.448874
    33  H   -0.007843   0.183885
    34  H    0.042263   0.133091
    35  H    0.328107  -0.187809
    36  H    0.026204   0.164198
    37  H   -0.272666   0.438314
    38  H   -0.097182   0.247879
    39  H   -0.106770   0.259357
    40  H   -0.327314   0.495634
    41  H    0.022716   0.167545
    42  H    0.339360  -0.185023
 Sum of Mulliken charges =  -1.00000   1.00000

 Dipole moment (field-independent basis, Debye):
    X=             -2.9704    Y=             -0.8648    Z=              0.0533  Tot=              3.0942
 Quadrupole moment (field-independent basis, Debye-Ang):
   XX=           -221.5692   YY=           -173.0370   ZZ=           -164.0080
   XY=             -1.1031   XZ=              2.0377   YZ=             -1.5079

 Summary of Natural Population Analysis:

                                       Natural Population
                Natural  -----------------------------------------------
    Atom  No    Charge         Core      Valence    Rydberg      Total
 -----------------------------------------------------------------------
      C    1   -0.17873      0.99966     2.17205    0.00702     3.17873
      N    2   -0.33857      0.99976     2.82788    0.01094     3.83857
      C    3   -0.08159      0.99962     2.06972    0.01225     3.08159
      C    4   -0.20934      0.99959     2.20025    0.00949     3.20934
      C    5   -0.01258      0.99950     2.00220    0.01088     3.01258
      C    6   -0.09750      0.99951     2.08834    0.00965     3.09750
      C    7   -0.09724      0.99951     2.08820    0.00953     3.09724
      C    8   -0.02699      0.99950     2.01814    0.00935     3.02699
      C    9   -0.09857      0.99951     2.08898    0.01008     3.09857
      C   10   -0.10298      0.99951     2.09356    0.00991     3.10298
      C   11   -0.08711      0.99958     2.07578    0.01175     3.08711
      N   12   -0.27289      0.99973     2.76064    0.01251     3.77289
      C   13   -0.08878      0.99958     2.07917    0.01004     3.08878
      C   14   -0.01328      0.99946     2.00477    0.00904     3.01328
      C   15   -0.09909      0.99951     2.09041    0.00918     3.09909
      C   16   -0.10290      0.99957     2.09350    0.00983     3.10290
      C   17   -0.10249      0.99957     2.09314    0.00978     3.10249
      C   18   -0.09828      0.99951     2.08966    0.00912     3.09828
      C   19   -0.01382      0.99946     2.00449    0.00987     3.01382
      C   20   -0.08847      0.99958     2.07893    0.00996     3.08847
      H   21    0.09030      0.00000     0.40845    0.00124     0.40970
      H   22    0.07826      0.00000     0.41992    0.00182     0.42174
      H   23    0.09439      0.00000     0.40458    0.00103     0.40561
      H   24    0.17460      0.00000     0.32176    0.00365     0.32540
      H   25    0.09310      0.00000     0.40566    0.00124     0.40690
      H   26    0.09143      0.00000     0.40743    0.00114     0.40857
      H   27    0.10429      0.00000     0.39415    0.00156     0.39571
      H   28    0.10133      0.00000     0.39725    0.00142     0.39867
      H   29    0.09991      0.00000     0.39855    0.00154     0.40009
      H   30    0.09945      0.00000     0.39902    0.00153     0.40055
      H   31    0.10000      0.00000     0.39838    0.00162     0.40000
      H   32    0.10056      0.00000     0.39733    0.00211     0.39944
      H   33    0.09812      0.00000     0.40074    0.00113     0.40188
      H   34    0.09831      0.00000     0.40055    0.00115     0.40169
      H   35    0.09404      0.00000     0.40424    0.00172     0.40596
      H   36    0.09749      0.00000     0.40103    0.00148     0.40251
      H   37    0.10168      0.00000     0.39734    0.00098     0.39832
      H   38    0.09984      0.00000     0.39929    0.00087     0.40016
      H   39    0.10010      0.00000     0.39903    0.00087     0.39990
      H   40    0.10227      0.00000     0.39671    0.00102     0.39773
      H   41    0.09784      0.00000     0.40066    0.00149     0.40216
      H   42    0.09390      0.00000     0.40433    0.00177     0.40610
 =======================================================================
   * Total *    0.00000     19.99122    51.77622    0.23256    72.00000

 Normal termination of Gaussian 16 at Mon Dec 14 19:23:11 2020.
