 Gaussian 16, Revision A.03,

 -----------------------------------------------------------
 # opt freq B3LYP/6-31G(d) empiricaldispersion=gd3bj scf=xqc
 -----------------------------------------------------------

 ----------------------------
 CID_68308871_JID_92_neutraal
 ----------------------------
 Symbolic Z-matrix:
 Charge =  0 Multiplicity = 1

 SCF Done:  E(RB3LYP) =  -423.940348207     A.U. after   13 cycles
 SCF Done:  E(RB3LYP) =  -423.948297527     A.U. after   11 cycles
 SCF Done:  E(RB3LYP) =  -423.949017617     A.U. after   10 cycles
 SCF Done:  E(RB3LYP) =  -423.949207287     A.U. after   10 cycles
 SCF Done:  E(RB3LYP) =  -423.949225824     A.U. after    9 cycles
 SCF Done:  E(RB3LYP) =  -423.949231236     A.U. after    8 cycles
 SCF Done:  E(RB3LYP) =  -423.949231690     A.U. after    7 cycles
 SCF Done:  E(RB3LYP) =  -423.949231780     A.U. after    6 cycles
 Optimization completed.
    -- Stationary point found.

 1\1\GINC-NODE310\FOpt\RB3LYP\6-31G(d)\C8H16N2\VSC10255\08-Dec-2020\0\\
 # opt freq B3LYP/6-31G(d) empiricaldispersion=gd3bj scf=xqc\\CID_68308
 871_JID_92_neutraal\\0,1\C,1.0352408428,0.0719442804,0.0177928057\C,0.
 3421955239,0.649633563,1.2484445206\N,1.087645696,1.7643058067,1.80052
 21325\C,1.1188076619,3.0271433275,1.0327188181\C,0.9966317199,3.806721
 3192,2.3679461335\C,0.5086109988,2.4652376091,2.9642468578\C,0.1356434
 214,5.0470354231,2.4092011511\C,-1.3752574134,4.942041132,2.3220672133
 \C,-0.6991328732,5.3312703953,3.6239769967\N,0.8279885826,6.1724526274

 Normal termination of Gaussian 16 at Tue Dec  8 10:15:32 2020.

 --------------------------------------------------------------------
 #N Geom=AllCheck Guess=TCheck SCRF=Check GenChk RB3LYP/6-31G(d) Freq
 --------------------------------------------------------------------

 Structure from the checkpoint file:  "JID_92.chk"
 ----------------------------
 CID_68308871_JID_92_neutraal
 ----------------------------
 Charge =  0 Multiplicity = 1

 SCF Done:  E(RB3LYP) =  -423.949231780     A.U. after    1 cycles

  Exact polarizability: 109.668  -0.656  89.953  -1.059   1.756  81.685
 Approx polarizability: 129.968  -0.214 131.213  -0.889   1.043 124.895

                      1                      2                      3
                      A                      A                      A
 Frequencies --     51.5726                68.0612               100.6979
 Red. masses --      3.3190                 3.1400                 2.0250
 Frc consts  --      0.0052                 0.0086                 0.0121
 IR Inten    --      0.1054                 0.0481                 0.3938

                      4                      5                      6
                      A                      A                      A
 Frequencies --    185.5066               210.6490               229.2636
 Red. masses --      2.1261                 2.7492                 1.2242
 Frc consts  --      0.0431                 0.0719                 0.0379
 IR Inten    --      4.5214                 1.3334                16.6596

                      7                      8                      9
                      A                      A                      A
 Frequencies --    237.4437               301.0190               318.9213
 Red. masses --      1.1905                 2.1688                 3.0530
 Frc consts  --      0.0395                 0.1158                 0.1830
 IR Inten    --     28.9825                 0.5141                 7.5088

                     10                     11                     12
                      A                      A                      A
 Frequencies --    370.3013               379.5239               417.4563
 Red. masses --      2.0640                 2.5236                 2.4120
 Frc consts  --      0.1668                 0.2142                 0.2477
 IR Inten    --      3.2804                 9.9044                 3.6421

                     13                     14                     15
                      A                      A                      A
 Frequencies --    490.6166               508.4550               595.1954
 Red. masses --      2.9651                 2.9609                 2.3854
 Frc consts  --      0.4205                 0.4510                 0.4979
 IR Inten    --      2.1191                 3.6610                 3.9729

                     16                     17                     18
                      A                      A                      A
 Frequencies --    715.9558               784.0456               822.8331
 Red. masses --      3.1525                 1.0747                 1.1193
 Frc consts  --      0.9521                 0.3892                 0.4465
 IR Inten    --      7.2870                 0.6466                 0.9197

                     19                     20                     21
                      A                      A                      A
 Frequencies --    835.6713               878.6177               896.7372
 Red. masses --      2.2146                 1.2388                 2.5105
 Frc consts  --      0.9112                 0.5634                 1.1895
 IR Inten    --     30.0683                61.7641                 5.3058

                     22                     23                     24
                      A                      A                      A
 Frequencies --    915.7116               944.6525               967.7512
 Red. masses --      1.3296                 2.2411                 1.8508
 Frc consts  --      0.6569                 1.1783                 1.0213
 IR Inten    --      3.0711                 3.4662                33.2660

                     25                     26                     27
                      A                      A                      A
 Frequencies --    982.6021               995.6643              1029.5071
 Red. masses --      1.4126                 2.4778                 3.2212
 Frc consts  --      0.8036                 1.4472                 2.0115
 IR Inten    --     28.4048                 8.6311                 5.2463

                     28                     29                     30
                      A                      A                      A
 Frequencies --   1045.4201              1054.6880              1062.1012
 Red. masses --      1.4450                 2.5491                 2.7471
 Frc consts  --      0.9304                 1.6707                 1.8258
 IR Inten    --      8.5215                14.0628                 1.5338

                     31                     32                     33
                      A                      A                      A
 Frequencies --   1079.8274              1114.7189              1145.8598
 Red. masses --      1.4435                 1.7527                 1.1732
 Frc consts  --      0.9917                 1.2832                 0.9076
 IR Inten    --      1.5145                 4.1195                 3.7104

                     34                     35                     36
                      A                      A                      A
 Frequencies --   1152.2114              1184.8080              1197.6309
 Red. masses --      2.2257                 1.4838                 1.3535
 Frc consts  --      1.7409                 1.2272                 1.1438
 IR Inten    --     12.9638                 4.8525                 0.8327

                     37                     38                     39
                      A                      A                      A
 Frequencies --   1209.6410              1221.5184              1247.2472
 Red. masses --      1.5298                 1.9439                 2.0067
 Frc consts  --      1.3189                 1.7089                 1.8393
 IR Inten    --      2.7167                13.8470                29.0123

                     40                     41                     42
                      A                      A                      A
 Frequencies --   1281.0668              1292.2958              1305.7621
 Red. masses --      1.7399                 1.4012                 1.4526
 Frc consts  --      1.6824                 1.3787                 1.4593
 IR Inten    --     18.8846                 8.2852                 8.2664

                     43                     44                     45
                      A                      A                      A
 Frequencies --   1329.4709              1354.5284              1389.7882
 Red. masses --      1.2364                 1.7275                 1.6404
 Frc consts  --      1.2876                 1.8674                 1.8668
 IR Inten    --     11.0663                12.2365                11.7911

                     46                     47                     48
                      A                      A                      A
 Frequencies --   1412.7121              1438.2667              1442.4183
 Red. masses --      1.3659                 2.4246                 1.3626
 Frc consts  --      1.6061                 2.9551                 1.6704
 IR Inten    --     16.7309                 1.7883                21.4208

                     49                     50                     51
                      A                      A                      A
 Frequencies --   1490.1454              1519.7854              1522.9483
 Red. masses --      1.0909                 1.0484                 1.0538
 Frc consts  --      1.4272                 1.4267                 1.4401
 IR Inten    --      1.8320                 6.3376                 3.3294

                     52                     53                     54
                      A                      A                      A
 Frequencies --   1528.8495              1537.3247              1540.5822
 Red. masses --      1.1785                 1.2422                 1.1130
 Frc consts  --      1.6230                 1.7297                 1.5564
 IR Inten    --      7.5459                 5.2583                 0.7860

                     55                     56                     57
                      A                      A                      A
 Frequencies --   1559.4298              1694.1605              2898.7459
 Red. masses --      1.1194                 1.0935                 1.0737
 Frc consts  --      1.6038                 1.8492                 5.3156
 IR Inten    --      8.8994                31.4234                74.5710

                     58                     59                     60
                      A                      A                      A
 Frequencies --   2960.4018              2983.7136              3051.8842
 Red. masses --      1.0687                 1.0693                 1.0400
 Frc consts  --      5.5184                 5.6088                 5.7072
 IR Inten    --     51.1571                65.0513                17.6580

                     61                     62                     63
                      A                      A                      A
 Frequencies --   3057.0310              3072.9019              3078.9953
 Red. masses --      1.0820                 1.0932                 1.0918
 Frc consts  --      5.9575                 6.0819                 6.0984
 IR Inten    --     32.2498                35.4611                39.3946

                     64                     65                     66
                      A                      A                      A
 Frequencies --   3102.0794              3117.2637              3131.1849
 Red. masses --      1.0876                 1.1014                 1.1032
 Frc consts  --      6.1662                 6.3058                 6.3725
 IR Inten    --     42.5899                47.0763                28.1760

                     67                     68                     69
                      A                      A                      A
 Frequencies --   3137.7074              3141.0408              3211.3646
 Red. masses --      1.0511                 1.0587                 1.1186
 Frc consts  --      6.0968                 6.1544                 6.7971
 IR Inten    --     22.4102                 8.5070                 0.2171

                     70                     71                     72
                      A                      A                      A
 Frequencies --   3224.5248              3449.7930              3540.5736
 Red. masses --      1.1155                 1.0505                 1.0910
 Frc consts  --      6.8339                 7.3662                 8.0579
 IR Inten    --     28.6011                 2.8554                 0.9784

 - Thermochemistry -
 -------------------
 Temperature   298.150 Kelvin.  Pressure   1.00000 Atm.
 Atom     1 has atomic number  6 and mass  12.00000

 Molecular mass:   140.13135 amu.
 Principal axes and moments of inertia in atomic units:
                           1         2         3
     Eigenvalues --   599.244822605.586562782.33524
           X            0.99998  -0.00523  -0.00381
           Y            0.00537   0.99932   0.03661
           Z            0.00362  -0.03663   0.99932
 This molecule is an asymmetric top.
 Rotational symmetry number  1.
 Warning -- assumption of classical behavior for rotation
           may cause significant error
 Rotational temperatures (Kelvin)      0.14454     0.03324     0.03113
 Rotational constants (GHZ):           3.01169     0.69264     0.64864
 Zero-point vibrational energy     620555.9 (Joules/Mol)
                                  148.31642 (Kcal/Mol)
 Warning -- explicit consideration of  15 degrees of freedom as
           vibrations may cause significant error
 Vibrational temperatures:     74.20    97.92   144.88   266.90   303.08
          (Kelvin)            329.86   341.63   433.10   458.86   532.78
                              546.05   600.63   705.89   731.55   856.35
                             1030.10  1128.07  1183.87  1202.34  1264.13
                             1290.20  1317.50  1359.14  1392.38  1413.75
                             1432.54  1481.23  1504.13  1517.46  1528.13
                             1553.63  1603.83  1648.64  1657.78  1704.67
                             1723.12  1740.40  1757.49  1794.51  1843.17
                             1859.33  1878.70  1912.81  1948.86  1999.60
                             2032.58  2069.34  2075.32  2143.99  2186.63
                             2191.18  2199.67  2211.87  2216.55  2243.67
                             2437.52  4170.65  4259.36  4292.90  4390.98
                             4398.39  4421.22  4429.99  4463.20  4485.05
                             4505.08  4514.46  4519.26  4620.44  4639.37
                             4963.48  5094.10

 Zero-point correction=                           0.236357 (Hartree/Particle)
 Thermal correction to Energy=                    0.247157
 Thermal correction to Enthalpy=                  0.248101
 Thermal correction to Gibbs Free Energy=         0.199992
 Sum of electronic and zero-point Energies=           -423.712875
 Sum of electronic and thermal Energies=              -423.702075
 Sum of electronic and thermal Enthalpies=            -423.701131
 Sum of electronic and thermal Free Energies=         -423.749240

                     E (Thermal)             CV                S
                      KCal/Mol        Cal/Mol-Kelvin    Cal/Mol-Kelvin
 Total                  155.093             41.253            101.255
 Electronic               0.000              0.000              0.000
 Translational            0.889              2.981             40.724
 Rotational               0.889              2.981             29.853
 Vibrational            153.316             35.291             30.678
 Vibration     1          0.596              1.977              4.756
 Vibration     2          0.598              1.969              4.209
 Vibration     3          0.604              1.949              3.441
 Vibration     4          0.632              1.860              2.272
 Vibration     5          0.643              1.825              2.038
 Vibration     6          0.652              1.796              1.885
 Vibration     7          0.656              1.783              1.822
 Vibration     8          0.693              1.672              1.411
 Vibration     9          0.705              1.637              1.316
 Vibration    10          0.742              1.533              1.079
 Vibration    11          0.750              1.514              1.041
 Vibration    12          0.780              1.432              0.901
 Vibration    13          0.846              1.271              0.682
 Vibration    14          0.864              1.231              0.637
 Vibration    15          0.953              1.042              0.458

                           ! Non-Optimized Parameters !

 1\1\GINC-NODE310\Freq\RB3LYP\6-31G(d)\C8H16N2\VSC10255\08-Dec-2020\0\\
 #N Geom=AllCheck Guess=TCheck SCRF=Check GenChk RB3LYP/6-31G(d) Freq\\
 CID_68308871_JID_92_neutraal\\0,1\C,1.0352408428,0.0719442804,0.017792
 8057\C,0.3421955239,0.649633563,1.2484445206\N,1.087645696,1.764305806
 7,1.8005221325\C,1.1188076619,3.0271433275,1.0327188181\C,0.9966317199
 ,3.8067213192,2.3679461335\C,0.5086109988,2.4652376091,2.9642468578\C,
 0.1356434214,5.0470354231,2.4092011511\C,-1.3752574134,4.942041132,2.3
 220672133\C,-0.6991328732,5.3312703953,3.6239769967\N,0.8279885826,6.1

 Normal termination of Gaussian 16 at Tue Dec  8 10:20:00 2020.

 ----------------------------------------------------------------------
 # B3LYP/6-311++G(d,p) empiricaldispersion=gd3bj scf=xqc pop=npa geom=c
 heck
 ----------------------------------------------------------------------

 ------------------------------------
 CID_68308871_JID_92_Energie_neutraal
 ------------------------------------
 Structure from the checkpoint file:  "JID_92.chk"
 Charge =  0 Multiplicity = 1

 SCF Done:  E(RB3LYP) =  -424.073827104     A.U. after   13 cycles
 Normal termination of Gaussian 16 at Tue Dec  8 10:21:34 2020.

 ----------------------------------------------------------------------
 # B3LYP/6-311++G(d,p) empiricaldispersion=gd3bj scf=xqc pop=npa geom=c
 heck
 ----------------------------------------------------------------------

 ----------------------------------
 CID_68308871_JID_92_Energie_kation
 ----------------------------------
 Structure from the checkpoint file:  "JID_92.chk"
 Charge =  1 Multiplicity = 2

 SCF Done:  E(UB3LYP) =  -423.779893592     A.U. after   25 cycles
 Normal termination of Gaussian 16 at Tue Dec  8 10:25:24 2020.
 Gaussian 16:  ES64L-G16RevA.03 25-Dec-2016

 ---------------------------------
 CID_68308871_JID_92_Energie_anion
 ---------------------------------
 Structure from the checkpoint file:  "JID_92.chk"
 Charge = -1 Multiplicity = 2

                         Standard orientation:
 ---------------------------------------------------------------------
 Center     Atomic      Atomic             Coordinates (Angstroms)
 Number     Number       Type             X           Y           Z
 ---------------------------------------------------------------------
      1          6           0       -3.736666    0.464571    0.458273
      2          6           0       -2.644541   -0.588825    0.296523
      3          7           0       -1.583886   -0.121198   -0.574864
      4          6           0       -0.694898    0.948571   -0.074318
      5          6           0        0.502578    0.225040   -0.743688
      6          6           0       -0.424748   -1.012698   -0.780946
      7          6           0        1.828965    0.194493   -0.021783
      8          6           0        2.008969   -0.645548    1.228564
      9          6           0        2.675177   -1.044196   -0.075606
     10          7           0        2.512779    1.471556   -0.151013
     11          1           0       -3.336302    1.377683    0.914182
     12          1           0       -4.542674    0.095569    1.101783
     13          1           0       -4.157748    0.730519   -0.516579
     14          1           0       -2.250399   -0.874479    1.294874
     15          1           0       -3.066055   -1.499562   -0.148546
     16          1           0       -0.947837    1.959753   -0.412230
     17          1           0       -0.600419    0.947822    1.026821
     18          1           0        0.672987    0.612650   -1.751956
     19          1           0       -0.257399   -1.696758    0.068314
     20          1           0       -0.454482   -1.602532   -1.704541
     21          1           0        2.640456   -0.234742    2.012561
     22          1           0        1.190462   -1.258110    1.596836
     23          1           0        2.285203   -1.910223   -0.603726
     24          1           0        3.752730   -0.925124   -0.163858
     25          1           0        2.026768    2.171187    0.411103
     26          1           0        3.453446    1.405391    0.233983
 ---------------------------------------------------------------------

 SCF Done:  E(UB3LYP) =  -424.056671975     A.U. after   30 cycles

 The electronic state is 2-A.
 Alpha  occ. eigenvalues --  -14.19827 -14.18900 -10.10475 -10.09178 -10.08931
 Alpha  occ. eigenvalues --  -10.08567 -10.07310 -10.06733 -10.06153 -10.05795
 Alpha  occ. eigenvalues --   -0.84301  -0.80357  -0.71091  -0.68084  -0.60417
 Alpha  occ. eigenvalues --   -0.57489  -0.52571  -0.50189  -0.46525  -0.43418
 Alpha  occ. eigenvalues --   -0.40660  -0.39550  -0.37636  -0.36519  -0.34829
 Alpha  occ. eigenvalues --   -0.33447  -0.31779  -0.29545  -0.28467  -0.27296
 Alpha  occ. eigenvalues --   -0.26565  -0.25413  -0.24449  -0.23580  -0.22060
 Alpha  occ. eigenvalues --   -0.20713  -0.18372  -0.12747  -0.12004   0.04782
 Alpha virt. eigenvalues --    0.06557   0.07556   0.08449   0.08851   0.09325
 Alpha virt. eigenvalues --    0.10137   0.10901   0.10939   0.11462   0.12000
 Alpha virt. eigenvalues --    0.12644   0.13807   0.14112   0.15098   0.15464

  Beta  occ. eigenvalues --  -14.19818 -14.18853 -10.10474 -10.09168 -10.08914
  Beta  occ. eigenvalues --  -10.08545 -10.07306 -10.06713 -10.06121 -10.05766
  Beta  occ. eigenvalues --   -0.84279  -0.80309  -0.71027  -0.68058  -0.60381
  Beta  occ. eigenvalues --   -0.57450  -0.52514  -0.50112  -0.46460  -0.43363
  Beta  occ. eigenvalues --   -0.40626  -0.39508  -0.37573  -0.36479  -0.34798
  Beta  occ. eigenvalues --   -0.33411  -0.31736  -0.29520  -0.28429  -0.27263
  Beta  occ. eigenvalues --   -0.26529  -0.25373  -0.24422  -0.23547  -0.22032
  Beta  occ. eigenvalues --   -0.20686  -0.18342  -0.12705  -0.11946
  Beta virt. eigenvalues --    0.07035   0.07779   0.08199   0.08824   0.09554
  Beta virt. eigenvalues --    0.09976   0.10619   0.11178   0.11342   0.12006
  Beta virt. eigenvalues --    0.12592   0.13018   0.14021   0.14531   0.15294

 Mulliken charges and spin densities:
               1          2
     1  C    0.413727  -0.917662
     2  C   -0.095438  -0.055910
     3  N   -0.202228   0.214010
     4  C    0.023509  -0.652191
     5  C    1.523495  -1.241586
     6  C    0.190149  -0.740907
     7  C   -1.888641   1.649614
     8  C    0.387511  -0.598369
     9  C    0.942349  -1.214963
    10  N   -0.214299  -0.067155
    11  H   -0.295932   0.441635
    12  H   -0.496561   0.631902
    13  H    0.067374   0.065593
    14  H    0.042759   0.050330
    15  H   -0.208578   0.351199
    16  H   -0.063116   0.257696
    17  H   -0.070767   0.227435
    18  H    0.193233  -0.001989
    19  H    0.087702   0.014864
    20  H    0.069220   0.108372
    21  H   -0.403648   0.589108
    22  H   -0.272266   0.395931
    23  H   -0.067912   0.194290
    24  H   -0.227804   0.379729
    25  H   -0.126635   0.362924
    26  H   -0.307205   0.556099
 Sum of Mulliken charges =  -1.00000   1.00000

 Dipole moment (field-independent basis, Debye):
    X=             -1.4858    Y=             -2.3905    Z=             -3.3917  Tot=              4.4075
 Quadrupole moment (field-independent basis, Debye-Ang):
   XX=           -143.8968   YY=            -99.0849   ZZ=            -97.3509
   XY=             -6.0514   XZ=             -1.6065   YZ=             -0.6409

 Summary of Natural Population Analysis:

                                       Natural Population
                Natural  -----------------------------------------------
    Atom  No    Charge         Core      Valence    Rydberg      Total
 -----------------------------------------------------------------------
      C    1   -0.28965      0.99967     2.28463    0.00536     3.28965
      C    2   -0.08141      0.99963     2.07011    0.01167     3.08141
      N    3   -0.28082      0.99972     2.76856    0.01254     3.78082
      C    4   -0.07851      0.99963     2.06757    0.01132     3.07851
      C    5   -0.11396      0.99953     2.10177    0.01266     3.11396
      C    6   -0.07396      0.99963     2.06573    0.00860     3.07396
      C    7    0.04782      0.99951     1.93739    0.01527     2.95218
      C    8   -0.20662      0.99959     2.19659    0.01044     3.20662
      C    9   -0.19805      0.99959     2.18907    0.00939     3.19805
      N   10   -0.41563      0.99975     2.90548    0.01040     3.91563
      H   11    0.09857      0.00000     0.40008    0.00135     0.40143
      H   12    0.09959      0.00000     0.39919    0.00122     0.40041
      H   13    0.09802      0.00000     0.40063    0.00134     0.40198
      H   14    0.07772      0.00000     0.42051    0.00177     0.42228
      H   15    0.09162      0.00000     0.40689    0.00149     0.40838
      H   16    0.09284      0.00000     0.40559    0.00156     0.40716
      H   17    0.08607      0.00000     0.41216    0.00177     0.41393
      H   18    0.10596      0.00000     0.39261    0.00142     0.39404
      H   19    0.08408      0.00000     0.41419    0.00173     0.41592
      H   20    0.08980      0.00000     0.40888    0.00132     0.41020
      H   21    0.10557      0.00000     0.39184    0.00259     0.39443
      H   22    0.10159      0.00000     0.39687    0.00155     0.39841
      H   23    0.10106      0.00000     0.39797    0.00097     0.39894
      H   24    0.10336      0.00000     0.39549    0.00116     0.39664
      H   25    0.17661      0.00000     0.32037    0.00303     0.32339
      H   26    0.17834      0.00000     0.31809    0.00357     0.32166
 =======================================================================
   * Total *   -0.00000      9.99624    28.86828    0.13548    39.00000

 Normal termination of Gaussian 16 at Tue Dec  8 10:29:59 2020.
