 Gaussian 16, Revision A.03,

 -----------------------------------------------------------
 # opt freq B3LYP/6-31G(d) empiricaldispersion=gd3bj scf=xqc
 -----------------------------------------------------------

 ------------------------------
 CID_79287309_JID_9149_neutraal
 ------------------------------
 Symbolic Z-matrix:
 Charge =  0 Multiplicity = 1

 SCF Done:  E(RB3LYP) =  -878.052536147     A.U. after   15 cycles
 SCF Done:  E(RB3LYP) =  -878.061421462     A.U. after   13 cycles
 SCF Done:  E(RB3LYP) =  -878.059866137     A.U. after   13 cycles
 SCF Done:  E(RB3LYP) =  -878.063629572     A.U. after   13 cycles
 SCF Done:  E(RB3LYP) =  -878.063940173     A.U. after   12 cycles
 SCF Done:  E(RB3LYP) =  -878.064964808     A.U. after   12 cycles
 SCF Done:  E(RB3LYP) =  -878.065862403     A.U. after   12 cycles
 SCF Done:  E(RB3LYP) =  -878.066118421     A.U. after   13 cycles
 SCF Done:  E(RB3LYP) =  -878.067385997     A.U. after   11 cycles
 SCF Done:  E(RB3LYP) =  -878.068227278     A.U. after   12 cycles
 SCF Done:  E(RB3LYP) =  -878.070865566     A.U. after    9 cycles
 SCF Done:  E(RB3LYP) =  -878.070866017     A.U. after    9 cycles
 SCF Done:  E(RB3LYP) =  -878.070866380     A.U. after   10 cycles
 SCF Done:  E(RB3LYP) =  -878.070866642     A.U. after    8 cycles
 SCF Done:  E(RB3LYP) =  -878.070866667     A.U. after    7 cycles
 Optimization completed.
    -- Stationary point found.
 Normal termination of Gaussian 16 at Mon Dec 14 13:49:09 2020.

 --------------------------------------------------------------------
 #N Geom=AllCheck Guess=TCheck SCRF=Check GenChk RB3LYP/6-31G(d) Freq
 --------------------------------------------------------------------

 Structure from the checkpoint file:  "JID_9149.chk"
 ------------------------------
 CID_79287309_JID_9149_neutraal
 ------------------------------
 Charge =  0 Multiplicity = 1

 SCF Done:  E(RB3LYP) =  -878.070866667     A.U. after    1 cycles

  Exact polarizability: 222.360  -4.586 150.991  19.392  -3.876 126.607
 Approx polarizability: 277.124  -5.896 224.567  39.021 -11.566 199.115

                      1                      2                      3
                      A                      A                      A
 Frequencies --     14.9319                27.1615                38.6586
 Red. masses --      4.7737                 5.7116                 6.5799
 Frc consts  --      0.0006                 0.0025                 0.0058
 IR Inten    --      2.4186                 0.8442                 0.3365

                      4                      5                      6
                      A                      A                      A
 Frequencies --     42.7040                45.4685                54.4867
 Red. masses --      4.1490                 4.0401                 3.0470
 Frc consts  --      0.0045                 0.0049                 0.0053
 IR Inten    --      0.1234                 0.7268                 0.9001

                      7                      8                      9
                      A                      A                      A
 Frequencies --     66.8104                81.9737               110.4662
 Red. masses --      4.3889                 3.2042                 4.4469
 Frc consts  --      0.0115                 0.0127                 0.0320
 IR Inten    --      1.8834                 0.0477                 0.9244

                     10                     11                     12
                      A                      A                      A
 Frequencies --    132.6645               163.9046               191.3592
 Red. masses --      3.1835                 3.9880                 3.9986
 Frc consts  --      0.0330                 0.0631                 0.0863
 IR Inten    --      3.8033                 2.0989                 1.2371

                     13                     14                     15
                      A                      A                      A
 Frequencies --    219.1773               261.5776               281.9585
 Red. masses --      3.1392                 1.1775                 1.8347
 Frc consts  --      0.0889                 0.0475                 0.0859
 IR Inten    --      1.2126                 0.3594                 2.0224

                     16                     17                     18
                      A                      A                      A
 Frequencies --    286.5529               299.8311               317.9112
 Red. masses --      4.7779                 1.4897                 2.7004
 Frc consts  --      0.2312                 0.0789                 0.1608
 IR Inten    --      0.8381                 0.8437                 9.4904

                     19                     20                     21
                      A                      A                      A
 Frequencies --    332.5897               347.2673               350.1534
 Red. masses --      2.6612                 2.8866                 2.3625
 Frc consts  --      0.1734                 0.2051                 0.1707
 IR Inten    --      2.0711                12.2544                 2.6494

                     22                     23                     24
                      A                      A                      A
 Frequencies --    353.1613               403.0821               435.7200
 Red. masses --      2.9902                 3.0092                 2.0504
 Frc consts  --      0.2197                 0.2881                 0.2293
 IR Inten    --      3.1416                 1.6583                 3.2920

                     25                     26                     27
                      A                      A                      A
 Frequencies --    450.1465               468.8179               469.6691
 Red. masses --      2.2640                 3.0315                 2.7642
 Frc consts  --      0.2703                 0.3926                 0.3593
 IR Inten    --      0.4163                 9.1878                 5.5317

                     28                     29                     30
                      A                      A                      A
 Frequencies --    489.4906               565.2620               573.8655
 Red. masses --      2.4479                 4.8954                 3.4621
 Frc consts  --      0.3456                 0.9216                 0.6717
 IR Inten    --      4.4211                19.4567                 8.7303

                     31                     32                     33
                      A                      A                      A
 Frequencies --    605.7739               607.2431               629.3708
 Red. masses --      4.6885                 1.2009                 2.6468
 Frc consts  --      1.0137                 0.2609                 0.6177
 IR Inten    --      0.8182                46.6213                20.9279

                     34                     35                     36
                      A                      A                      A
 Frequencies --    639.6718               678.3948               690.9293
 Red. masses --      1.2450                 3.0719                 5.1619
 Frc consts  --      0.3001                 0.8330                 1.4519
 IR Inten    --     44.4687                 7.1057                 6.2450

                     37                     38                     39
                      A                      A                      A
 Frequencies --    759.0068               792.7175               820.1289
 Red. masses --      2.9260                 4.6427                 1.6819
 Frc consts  --      0.9932                 1.7189                 0.6665
 IR Inten    --      7.6546                14.2170                80.9402

                     40                     41                     42
                      A                      A                      A
 Frequencies --    859.2316               875.5649               920.7636
 Red. masses --      1.5956                 4.4780                 2.7312
 Frc consts  --      0.6941                 2.0226                 1.3643
 IR Inten    --      0.4597                16.8952                 1.3445

                     43                     44                     45
                      A                      A                      A
 Frequencies --    933.4318               943.6874               953.2661
 Red. masses --      3.5982                 2.1538                 2.3758
 Frc consts  --      1.8472                 1.1301                 1.2720
 IR Inten    --     16.7278                 2.7605                 0.9305

                     46                     47                     48
                      A                      A                      A
 Frequencies --    983.9825              1008.2193              1012.8393
 Red. masses --      2.7636                 2.2018                 2.1682
 Frc consts  --      1.5765                 1.3187                 1.3105
 IR Inten    --      4.5089                50.1723               120.6116

                     49                     50                     51
                      A                      A                      A
 Frequencies --   1054.4503              1062.0130              1072.8701
 Red. masses --      2.2346                 2.3058                 1.9646
 Frc consts  --      1.4639                 1.5323                 1.3324
 IR Inten    --     10.5828                25.4910                22.1916

                     52                     53                     54
                      A                      A                      A
 Frequencies --   1080.2555              1082.5248              1112.3379
 Red. masses --      1.7213                 1.7431                 1.9204
 Frc consts  --      1.1835                 1.2035                 1.4000
 IR Inten    --      8.9253                10.9324                 4.8012

                     55                     56                     57
                      A                      A                      A
 Frequencies --   1135.0576              1138.7831              1141.6982
 Red. masses --      1.3336                 4.3873                 2.0872
 Frc consts  --      1.0123                 3.3522                 1.6029
 IR Inten    --      1.6567                44.3125                40.5552

                     58                     59                     60
                      A                      A                      A
 Frequencies --   1181.8835              1204.7029              1214.7900
 Red. masses --      1.4061                 2.8528                 1.7270
 Frc consts  --      1.1572                 2.4394                 1.5016
 IR Inten    --     59.4307                16.3565                78.4423

                     61                     62                     63
                      A                      A                      A
 Frequencies --   1224.4638              1237.0399              1259.6493
 Red. masses --      1.2124                 1.3625                 1.7391
 Frc consts  --      1.0710                 1.2284                 1.6258
 IR Inten    --     17.6050                 3.6605                81.9200

                     64                     65                     66
                      A                      A                      A
 Frequencies --   1275.5492              1287.8974              1313.9153
 Red. masses --      2.1355                 1.7584                 1.9932
 Frc consts  --      2.0471                 1.7185                 2.0274
 IR Inten    --     17.9478               101.8456                35.3616

                     67                     68                     69
                      A                      A                      A
 Frequencies --   1316.7806              1326.7193              1330.9850
 Red. masses --      1.8578                 1.2443                 1.4906
 Frc consts  --      1.8979                 1.2904                 1.5558
 IR Inten    --     26.7521                29.4758                24.2955

                     70                     71                     72
                      A                      A                      A
 Frequencies --   1367.3169              1377.8207              1394.0356
 Red. masses --      1.2754                 1.2766                 1.3149
 Frc consts  --      1.4049                 1.4279                 1.5056
 IR Inten    --      3.4812                19.8286                10.4224

                     73                     74                     75
                      A                      A                      A
 Frequencies --   1397.7317              1406.9671              1412.2744
 Red. masses --      1.3069                 1.3861                 1.4495
 Frc consts  --      1.5044                 1.6166                 1.7034
 IR Inten    --      4.8971                 3.3073                12.9360

                     76                     77                     78
                      A                      A                      A
 Frequencies --   1418.1654              1468.4197              1475.0300
 Red. masses --      1.4574                 1.1932                 2.2337
 Frc consts  --      1.7270                 1.5159                 2.8633
 IR Inten    --      4.6538                 1.0644               142.0131

                     79                     80                     81
                      A                      A                      A
 Frequencies --   1483.8178              1493.8714              1496.8893
 Red. masses --      2.4969                 1.0708                 1.2006
 Frc consts  --      3.2390                 1.4079                 1.5850
 IR Inten    --    185.2490                 4.0172                 8.4756

                     82                     83                     84
                      A                      A                      A
 Frequencies --   1507.0064              1508.8689              1512.8107
 Red. masses --      1.1107                 1.1547                 1.0543
 Frc consts  --      1.4862                 1.5489                 1.4217
 IR Inten    --      1.2609                40.0914                12.3146

                     85                     86                     87
                      A                      A                      A
 Frequencies --   1517.5731              1518.2308              1524.1155
 Red. masses --      1.1664                 1.1856                 1.1036
 Frc consts  --      1.5827                 1.6101                 1.5104
 IR Inten    --     25.2822                 5.5477                11.6563

                     88                     89                     90
                      A                      A                      A
 Frequencies --   1526.6256              1527.7256              1539.6575
 Red. masses --      1.0637                 1.0537                 1.0690
 Frc consts  --      1.4606                 1.4490                 1.4931
 IR Inten    --     20.4311                10.8459                11.7095

                     91                     92                     93
                      A                      A                      A
 Frequencies --   1542.8982              1545.6234              1759.5178
 Red. masses --      1.0710                 1.0838                10.1720
 Frc consts  --      1.5021                 1.5255                18.5543
 IR Inten    --      4.6213                 3.8744               352.0145

                     94                     95                     96
                      A                      A                      A
 Frequencies --   1761.8200              2233.1541              2915.9204
 Red. masses --     10.6885                 5.9285                 1.0630
 Frc consts  --     19.5474                17.4194                 5.3252
 IR Inten    --    272.0274                 0.5255                49.4203

                     97                     98                     99
                      A                      A                      A
 Frequencies --   2926.2522              2942.7408              3015.8002
 Red. masses --      1.0653                 1.0704                 1.0742
 Frc consts  --      5.3744                 5.4614                 5.7560
 IR Inten    --     67.4142               152.6636                22.9328

                    100                    101                    102
                      A                      A                      A
 Frequencies --   3030.0610              3036.7969              3041.3779
 Red. masses --      1.0605                 1.0720                 1.0740
 Frc consts  --      5.7365                 5.8247                 5.8531
 IR Inten    --     23.1615                17.2941                29.2129

                    103                    104                    105
                      A                      A                      A
 Frequencies --   3042.6373              3055.4909              3077.4177
 Red. masses --      1.0611                 1.0712                 1.1019
 Frc consts  --      5.7874                 5.8921                 6.1487
 IR Inten    --     26.7365                69.2797                19.9088

                    106                    107                    108
                      A                      A                      A
 Frequencies --   3082.1805              3082.2883              3090.8055
 Red. masses --      1.0694                 1.1016                 1.0687
 Frc consts  --      5.9858                 6.1665                 6.0152
 IR Inten    --     36.4993                14.2956                32.6831

                    109                    110                    111
                      A                      A                      A
 Frequencies --   3117.0728              3128.6232              3137.4796
 Red. masses --      1.0877                 1.1037                 1.1030
 Frc consts  --      6.2267                 6.3649                 6.3973
 IR Inten    --      8.9743                28.0108                35.2166

                    112                    113                    114
                      A                      A                      A
 Frequencies --   3172.6317              3174.7081              3178.5804
 Red. masses --      1.0947                 1.0922                 1.0893
 Frc consts  --      6.4921                 6.4858                 6.4841
 IR Inten    --      3.0295                 3.3103                12.0222

                    115                    116                    117
                      A                      A                      A
 Frequencies --   3187.3441              3488.9730              3493.5783
 Red. masses --      1.0904                 1.0743                 1.1604
 Frc consts  --      6.5266                 7.7048                 8.3443
 IR Inten    --      5.7324                 0.9809                58.6119

 - Thermochemistry -
 -------------------
 Temperature   298.150 Kelvin.  Pressure   1.00000 Atm.
 Atom     1 has atomic number  6 and mass  12.00000

 Molecular mass:   266.17428 amu.
 Principal axes and moments of inertia in atomic units:
                           1         2         3
     Eigenvalues --  2409.64713********************
           X            0.99994  -0.01119  -0.00175
           Y            0.01120   0.99992   0.00497
           Z            0.00169  -0.00499   0.99999
 This molecule is an asymmetric top.
 Rotational symmetry number  1.
 Warning -- assumption of classical behavior for rotation
           may cause significant error
 Rotational temperatures (Kelvin)      0.03594     0.00710     0.00628
 Rotational constants (GHZ):           0.74896     0.14788     0.13081
 Zero-point vibrational energy     931784.1 (Joules/Mol)
                                  222.70175 (Kcal/Mol)
 Warning -- explicit consideration of  32 degrees of freedom as
           vibrations may cause significant error
 Vibrational temperatures:     21.48    39.08    55.62    61.44    65.42
          (Kelvin)             78.39    96.13   117.94   158.94   190.87
                              235.82   275.32   315.35   376.35   405.68
                              412.29   431.39   457.40   478.52   499.64
                              503.79   508.12   579.95   626.90   647.66
                              674.52   675.75   704.27   813.29   825.66
                              871.57   873.69   905.52   920.35   976.06
                              994.09  1092.04  1140.54  1179.98  1236.24
                             1259.74  1324.77  1343.00  1357.76  1371.54
                             1415.73  1450.60  1457.25  1517.12  1528.00
                             1543.62  1554.25  1557.51  1600.41  1633.09
                             1638.45  1642.65  1700.47  1733.30  1747.81
                             1761.73  1779.82  1812.35  1835.23  1853.00
                             1890.43  1894.55  1908.85  1914.99  1967.26
                             1982.38  2005.71  2011.02  2024.31  2031.95
                             2040.42  2112.73  2122.24  2134.88  2149.35
                             2153.69  2168.25  2170.93  2176.60  2183.45
                             2184.40  2192.86  2196.47  2198.06  2215.22
                             2219.89  2223.81  2531.55  2534.87  3213.01
                             4195.36  4210.22  4233.95  4339.06  4359.58
                             4369.27  4375.86  4377.68  4396.17  4427.72
                             4434.57  4434.73  4446.98  4484.77  4501.39
                             4514.13  4564.71  4567.70  4573.27  4585.88
                             5019.85  5026.48

 Zero-point correction=                           0.354898 (Hartree/Particle)
 Thermal correction to Energy=                    0.375167
 Thermal correction to Enthalpy=                  0.376111
 Thermal correction to Gibbs Free Energy=         0.302696
 Sum of electronic and zero-point Energies=           -877.715969
 Sum of electronic and thermal Energies=              -877.695700
 Sum of electronic and thermal Enthalpies=            -877.694756
 Sum of electronic and thermal Free Energies=         -877.768171

                     E (Thermal)             CV                S
                      KCal/Mol        Cal/Mol-Kelvin    Cal/Mol-Kelvin
 Total                  235.421             74.545            154.515
 Electronic               0.000              0.000              0.000
 Translational            0.889              2.981             42.636
 Rotational               0.889              2.981             34.361
 Vibrational            233.643             68.583             77.518
 Vibration     1          0.593              1.986              7.215
 Vibration     2          0.593              1.984              6.027
 Vibration     3          0.594              1.981              5.327
 Vibration     4          0.595              1.980              5.130
 Vibration     5          0.595              1.979              5.005
 Vibration     6          0.596              1.976              4.648
 Vibration     7          0.598              1.970              4.245
 Vibration     8          0.600              1.961              3.843
 Vibration     9          0.606              1.941              3.261
 Vibration    10          0.613              1.921              2.907
 Vibration    11          0.623              1.887              2.504
 Vibration    12          0.634              1.852              2.215
 Vibration    13          0.647              1.812              1.966
 Vibration    14          0.669              1.743              1.651
 Vibration    15          0.681              1.707              1.522
 Vibration    16          0.684              1.699              1.494
 Vibration    17          0.692              1.674              1.418
 Vibration    18          0.704              1.639              1.321
 Vibration    19          0.715              1.610              1.247
 Vibration    20          0.725              1.581              1.179
 Vibration    21          0.727              1.575              1.166
 Vibration    22          0.729              1.569              1.152
 Vibration    23          0.768              1.463              0.951
 Vibration    24          0.796              1.392              0.840
 Vibration    25          0.809              1.361              0.795
 Vibration    26          0.826              1.319              0.741
 Vibration    27          0.827              1.317              0.738
 Vibration    28          0.845              1.273              0.685
 Vibration    29          0.921              1.106              0.513
 Vibration    30          0.930              1.088              0.497
 Vibration    31          0.964              1.020              0.440
 Vibration    32          0.966              1.016              0.437

 Optimization completed.
    -- Stationary point found.
 Normal termination of Gaussian 16 at Mon Dec 14 14:09:54 2020.

 ----------------------------------------------------------------------
 # B3LYP/6-311++G(d,p) empiricaldispersion=gd3bj scf=xqc pop=npa geom=c
 heck
 ----------------------------------------------------------------------

 --------------------------------------
 CID_79287309_JID_9149_Energie_neutraal
 --------------------------------------
 Structure from the checkpoint file:  "JID_9149.chk"
 Charge =  0 Multiplicity = 1

 SCF Done:  E(RB3LYP) =  -878.327249265     A.U. after   15 cycles
 Normal termination of Gaussian 16 at Mon Dec 14 14:19:38 2020.

 ----------------------------------------------------------------------
 # B3LYP/6-311++G(d,p) empiricaldispersion=gd3bj scf=xqc pop=npa geom=c
 heck
 ----------------------------------------------------------------------

 ------------------------------------
 CID_79287309_JID_9149_Energie_kation
 ------------------------------------
 Structure from the checkpoint file:  "JID_9149.chk"
 Charge =  1 Multiplicity = 2

 SCF Done:  E(UB3LYP) =  -878.038809798     A.U. after   27 cycles
 Normal termination of Gaussian 16 at Mon Dec 14 14:45:11 2020.
 Gaussian 16:  ES64L-G16RevA.03 25-Dec-2016

 ----------------------------------------------------------------------
 # B3LYP/6-311++G(d,p) empiricaldispersion=gd3bj scf=xqc pop=npa geom=c
 heck
 ----------------------------------------------------------------------

 -----------------------------------
 CID_79287309_JID_9149_Energie_anion
 -----------------------------------
 Structure from the checkpoint file:  "JID_9149.chk"
 Charge = -1 Multiplicity = 2

                         Standard orientation:
 ---------------------------------------------------------------------
 Center     Atomic      Atomic             Coordinates (Angstroms)
 Number     Number       Type             X           Y           Z
 ---------------------------------------------------------------------
      1          6           0       -3.762533    1.557356    1.449614
      2          7           0       -4.526884    1.071526    0.312252
      3          6           0       -5.443591    2.086300   -0.182051
      4          6           0       -3.685999    0.557734   -0.764326
      5          6           0       -3.003838   -0.757305   -0.362631
      6          8           0       -3.642475   -1.801172   -0.423154
      7          7           0       -1.693876   -0.737114    0.063363
      8          6           0       -1.050469   -2.003009    0.422053
      9          6           0        0.199447   -2.226411   -0.432558
     10          7           0        1.088053   -1.068544   -0.339246
     11          6           0        0.446558    0.187046   -0.708484
     12          6           0       -0.803820    0.414215    0.152169
     13          6           0        2.275547   -1.192312    0.337516
     14          8           0        2.665681   -2.266461    0.785185
     15          6           0        3.138117    0.060975    0.510973
     16          7           0        3.472972    0.683202   -0.772756
     17          6           0        4.366512    1.839750   -0.634386
     18          6           0        5.667578    1.552617   -0.009404
     19          6           0        6.720586    1.256957    0.502962
     20          1           0       -4.451209    1.864669    2.243038
     21          1           0       -3.118403    2.426784    1.204254
     22          1           0       -3.128372    0.759143    1.845194
     23          1           0       -4.928232    2.985425   -0.576689
     24          1           0       -6.061677    1.667477   -0.982551
     25          1           0       -6.105326    2.405647    0.629787
     26          1           0       -4.339690    0.281934   -1.595381
     27          1           0       -2.981430    1.320714   -1.146307
     28          1           0       -0.763628   -1.972118    1.482202
     29          1           0       -1.782450   -2.796199    0.275063
     30          1           0       -0.092593   -2.363616   -1.481697
     31          1           0        0.754172   -3.100928   -0.094008
     32          1           0        0.145551    0.127752   -1.763463
     33          1           0        1.154976    1.007861   -0.618958
     34          1           0       -1.315796    1.320395   -0.164919
     35          1           0       -0.498338    0.552563    1.200141
     36          1           0        2.601373    0.805161    1.116316
     37          1           0        4.015313   -0.260534    1.085874
     38          1           0        3.930177   -0.013108   -1.360105
     39          1           0        4.521974    2.265547   -1.632941
     40          1           0        3.837604    2.603459   -0.048841
     41          1           0        7.653939    1.006077    0.953759
 ---------------------------------------------------------------------

 SCF Done:  E(UB3LYP) =  -878.323246353     A.U. after   33 cycles
 SCF Done:  E(UB3LYP) =  -878.323246353     a.u. after    1 cycles

 The electronic state is 2-A.
 Alpha  occ. eigenvalues --  -18.99990 -18.99777 -14.26065 -14.25752 -14.22893
 Alpha  occ. eigenvalues --  -14.22609 -10.18505 -10.18385 -10.13678 -10.12431
 Alpha  occ. eigenvalues --  -10.12103 -10.12028 -10.11877 -10.11536 -10.11447
 Alpha  occ. eigenvalues --  -10.10544 -10.10074 -10.09616 -10.08640  -0.95481
 Alpha  occ. eigenvalues --   -0.95164  -0.87489  -0.84431  -0.83941  -0.83073
 Alpha  occ. eigenvalues --   -0.70025  -0.68981  -0.66475  -0.64676  -0.62669
 Alpha  occ. eigenvalues --   -0.62358  -0.58370  -0.57562  -0.55580  -0.51950
 Alpha  occ. eigenvalues --   -0.49074  -0.46313  -0.44811  -0.43346  -0.42018
 Alpha  occ. eigenvalues --   -0.40583  -0.40305  -0.39961  -0.39475  -0.38439
 Alpha  occ. eigenvalues --   -0.38082  -0.37556  -0.36868  -0.35888  -0.35086
 Alpha  occ. eigenvalues --   -0.33590  -0.32466  -0.31984  -0.31593  -0.31067
 Alpha  occ. eigenvalues --   -0.30891  -0.30182  -0.29665  -0.28855  -0.28250
 Alpha  occ. eigenvalues --   -0.28140  -0.27750  -0.27290  -0.27014  -0.20650
 Alpha  occ. eigenvalues --   -0.19736  -0.18172  -0.17329  -0.17013  -0.16079
 Alpha  occ. eigenvalues --   -0.14919  -0.13430   0.03585
 Alpha virt. eigenvalues --    0.05687   0.06559   0.06648   0.07468   0.07676
 Alpha virt. eigenvalues --    0.08335   0.08497   0.09039   0.09233   0.09412
 Alpha virt. eigenvalues --    0.09516   0.10248   0.10391   0.10583   0.11103

  Beta  occ. eigenvalues --  -18.99963 -18.99769 -14.26068 -14.25756 -14.22873
  Beta  occ. eigenvalues --  -14.22598 -10.18493 -10.18361 -10.13636 -10.12401
  Beta  occ. eigenvalues --  -10.12099 -10.12023 -10.11852 -10.11518 -10.11428
  Beta  occ. eigenvalues --  -10.10524 -10.10047 -10.09613 -10.08619  -0.95449
  Beta  occ. eigenvalues --   -0.95132  -0.87475  -0.84410  -0.83913  -0.83054
  Beta  occ. eigenvalues --   -0.69994  -0.68932  -0.66439  -0.64633  -0.62629
  Beta  occ. eigenvalues --   -0.62319  -0.58301  -0.57504  -0.55539  -0.51893
  Beta  occ. eigenvalues --   -0.49033  -0.46267  -0.44763  -0.43305  -0.41983
  Beta  occ. eigenvalues --   -0.40551  -0.40264  -0.39935  -0.39436  -0.38402
  Beta  occ. eigenvalues --   -0.38049  -0.37514  -0.36814  -0.35840  -0.35052
  Beta  occ. eigenvalues --   -0.33551  -0.32435  -0.31951  -0.31526  -0.31018
  Beta  occ. eigenvalues --   -0.30857  -0.30150  -0.29637  -0.28828  -0.28215
  Beta  occ. eigenvalues --   -0.28071  -0.27727  -0.27265  -0.26960  -0.20584
  Beta  occ. eigenvalues --   -0.19710  -0.18142  -0.17309  -0.16986  -0.16055
  Beta  occ. eigenvalues --   -0.14880  -0.13365
  Beta virt. eigenvalues --    0.05794   0.06073   0.06853   0.07227   0.07729
  Beta virt. eigenvalues --    0.08159   0.08539   0.08898   0.09122   0.09400
  Beta virt. eigenvalues --    0.09515   0.09643   0.10450   0.10582   0.10723

 Mulliken charges and spin densities:
               1          2
     1  C    0.217767  -0.640042
     2  N   -0.018670   0.187682
     3  C    0.119484  -0.410492
     4  C    0.156673  -0.725422
     5  C   -0.322839   0.364158
     6  O   -0.341618   0.004047
     7  N    0.068680   0.031033
     8  C   -0.043140  -0.059686
     9  C   -0.012588  -0.143277
    10  N    0.119060   0.071585
    11  C   -0.420769  -0.550538
    12  C    0.374969  -0.445371
    13  C   -0.358190   0.244076
    14  O   -0.326741   0.009566
    15  C    0.391981  -0.866332
    16  N   -0.273987   0.261116
    17  C    1.929394  -2.244205
    18  C    2.221681  -0.476062
    19  C   -3.547147   1.558286
    20  H    0.000778   0.159758
    21  H   -0.323214   0.452146
    22  H    0.067206   0.093222
    23  H   -0.071366   0.192507
    24  H   -0.006042   0.136377
    25  H    0.009761   0.111157
    26  H    0.121532   0.063563
    27  H   -0.203002   0.309269
    28  H    0.107334   0.068463
    29  H    0.187971   0.024961
    30  H    0.091039   0.082579
    31  H    0.202807   0.012898
    32  H   -0.209546   0.374169
    33  H   -0.452649   0.778692
    34  H    0.155483   0.028396
    35  H   -0.154326   0.339008
    36  H   -0.133820   0.324604
    37  H    0.277504  -0.071374
    38  H    0.119576   0.119508
    39  H   -0.288503   0.495151
    40  H   -0.323647   0.498764
    41  H   -0.108875   0.236061
 Sum of Mulliken charges =  -1.00000   1.00000

 Dipole moment (field-independent basis, Debye):
    X=             -0.4432    Y=             -3.8829    Z=             -0.1299  Tot=              3.9103
 Quadrupole moment (field-independent basis, Debye-Ang):
   XX=           -213.0455   YY=           -173.5873   ZZ=           -144.9419
   XY=             -8.4228   XZ=              0.2286   YZ=              3.1594

 Summary of Natural Population Analysis:

                                       Natural Population
                Natural  -----------------------------------------------
    Atom  No    Charge         Core      Valence    Rydberg      Total
 -----------------------------------------------------------------------
      C    1   -0.17990      0.99964     2.17136    0.00890     3.17990
      N    2   -0.27050      0.99973     2.75913    0.01164     3.77050
      C    3   -0.17555      0.99965     2.16760    0.00830     3.17555
      C    4   -0.12317      0.99957     2.11131    0.01229     3.12317
      C    5    0.34597      0.99964     1.63161    0.02278     2.65403
      O    6   -0.32333      0.99988     3.31800    0.00545     4.32333
      N    7   -0.25706      0.99964     2.74748    0.00994     3.75706
      C    8   -0.09357      0.99960     2.08538    0.00858     3.09357
      C    9   -0.09273      0.99961     2.08424    0.00888     3.09273
      N   10   -0.25346      0.99964     2.74406    0.00976     3.75346
      C   11   -0.09234      0.99960     2.08041    0.01233     3.09234
      C   12   -0.09184      0.99959     2.08069    0.01155     3.09184
      C   13    0.34497      0.99964     1.63264    0.02275     2.65503
      O   14   -0.32456      0.99988     3.31945    0.00523     4.32456
      C   15   -0.13181      0.99959     2.12101    0.01121     3.13181
      N   16   -0.32797      0.99976     2.81668    0.01153     3.82797
      C   17   -0.12837      0.99956     2.11642    0.01239     3.12837
      C   18   -0.00653      0.99936     1.99998    0.00719     3.00653
      C   19   -0.12536      0.99927     2.12211    0.00398     3.12536
      H   20    0.09534      0.00000     0.40375    0.00091     0.40466
      H   21    0.08414      0.00000     0.41419    0.00167     0.41586
      H   22    0.09662      0.00000     0.40182    0.00156     0.40338
      H   23    0.08219      0.00000     0.41642    0.00139     0.41781
      H   24    0.09464      0.00000     0.40443    0.00093     0.40536
      H   25    0.09452      0.00000     0.40458    0.00090     0.40548
      H   26    0.10803      0.00000     0.39074    0.00123     0.39197
      H   27    0.08623      0.00000     0.41198    0.00179     0.41377
      H   28    0.09474      0.00000     0.40418    0.00108     0.40526
      H   29    0.11959      0.00000     0.37921    0.00120     0.38041
      H   30    0.09443      0.00000     0.40443    0.00114     0.40557
      H   31    0.11811      0.00000     0.38069    0.00120     0.38189
      H   32    0.09491      0.00000     0.40348    0.00161     0.40509
      H   33    0.12265      0.00000     0.37443    0.00292     0.37735
      H   34    0.11199      0.00000     0.38529    0.00272     0.38801
      H   35    0.09466      0.00000     0.40349    0.00186     0.40534
      H   36    0.10315      0.00000     0.39487    0.00198     0.39685
      H   37    0.10202      0.00000     0.39650    0.00148     0.39798
      H   38    0.17417      0.00000     0.32326    0.00258     0.32583
      H   39    0.11214      0.00000     0.38632    0.00154     0.38786
      H   40    0.11265      0.00000     0.38467    0.00268     0.38735
      H   41    0.11019      0.00000     0.38877    0.00104     0.38981
 =======================================================================
   * Total *    0.00000     18.99285    52.76707    0.24008    72.00000

 Normal termination of Gaussian 16 at Mon Dec 14 15:15:35 2020.
