 Gaussian 16, Revision A.03,

 -----------------------------------------------------------
 # opt freq B3LYP/6-31G(d) empiricaldispersion=gd3bj scf=xqc
 -----------------------------------------------------------

 ------------------------------
 CID_87313630_JID_4175_neutraal
 ------------------------------
 Symbolic Z-matrix:
 Charge =  0 Multiplicity = 1

 SCF Done:  E(RB3LYP) =  -598.625368248     A.U. after   14 cycles
 SCF Done:  E(RB3LYP) =  -598.627897813     A.U. after   12 cycles
 SCF Done:  E(RB3LYP) =  -598.626316085     A.U. after   13 cycles
 SCF Done:  E(RB3LYP) =  -598.628342652     A.U. after   12 cycles
 SCF Done:  E(RB3LYP) =  -598.629573185     A.U. after   12 cycles
 SCF Done:  E(RB3LYP) =  -598.629944606     A.U. after   11 cycles
 SCF Done:  E(RB3LYP) =  -598.629951254     A.U. after   12 cycles
 SCF Done:  E(RB3LYP) =  -598.630317068     A.U. after   11 cycles
 SCF Done:  E(RB3LYP) =  -598.630319018     A.U. after   11 cycles
 SCF Done:  E(RB3LYP) =  -598.630364921     A.U. after   10 cycles
 SCF Done:  E(RB3LYP) =  -598.630371111     A.U. after    9 cycles
 SCF Done:  E(RB3LYP) =  -598.630376123     A.U. after   10 cycles
 SCF Done:  E(RB3LYP) =  -598.630376801     A.U. after    9 cycles
 SCF Done:  E(RB3LYP) =  -598.630377004     A.U. after    8 cycles
 SCF Done:  E(RB3LYP) =  -598.630377051     A.U. after    6 cycles
 Optimization completed.
    -- Stationary point found.
 Normal termination of Gaussian 16 at Thu Dec 10 09:21:20 2020.

 --------------------------------------------------------------------
 #N Geom=AllCheck Guess=TCheck SCRF=Check GenChk RB3LYP/6-31G(d) Freq
 --------------------------------------------------------------------

 Structure from the checkpoint file:  "JID_4175.chk"
 ------------------------------
 CID_87313630_JID_4175_neutraal
 ------------------------------
 Charge =  0 Multiplicity = 1

 SCF Done:  E(RB3LYP) =  -598.630377051     A.U. after    1 cycles

  Exact polarizability: 126.366   4.276 180.449  -0.592   5.963  92.519
 Approx polarizability: 161.629   5.242 272.245   1.876  12.345 142.862

                      1                      2                      3
                      A                      A                      A
 Frequencies --     26.9243                44.7345                49.8586
 Red. masses --      3.9902                 3.9111                 3.1064
 Frc consts  --      0.0017                 0.0046                 0.0045
 IR Inten    --      0.0152                 0.8810                 0.0771

                      4                      5                      6
                      A                      A                      A
 Frequencies --     63.1300                83.5599                86.7166
 Red. masses --      3.1466                 3.0871                 3.0424
 Frc consts  --      0.0074                 0.0127                 0.0135
 IR Inten    --      0.5504                 0.1443                 0.4742

                      7                      8                      9
                      A                      A                      A
 Frequencies --    102.5115               140.5929               161.8852
 Red. masses --      2.7883                 2.7240                 3.4988
 Frc consts  --      0.0173                 0.0317                 0.0540
 IR Inten    --      0.3023                 0.9109                 0.0783

                     10                     11                     12
                      A                      A                      A
 Frequencies --    220.9515               254.4216               263.2530
 Red. masses --      2.5061                 2.2737                 3.0283
 Frc consts  --      0.0721                 0.0867                 0.1237
 IR Inten    --      0.2405                 0.8097                 2.5534

                     13                     14                     15
                      A                      A                      A
 Frequencies --    298.1224               312.0927               344.4464
 Red. masses --      3.7636                 2.8738                 2.8006
 Frc consts  --      0.1971                 0.1649                 0.1958
 IR Inten    --      2.7834                 0.2033                 0.3182

                     16                     17                     18
                      A                      A                      A
 Frequencies --    397.0244               414.7546               440.1391
 Red. masses --      2.4491                 2.2809                 2.0937
 Frc consts  --      0.2275                 0.2312                 0.2390
 IR Inten    --      2.6149                 2.0278                 7.3506

                     19                     20                     21
                      A                      A                      A
 Frequencies --    462.0063               474.5484               488.0820
 Red. masses --      2.1568                 2.0237                 1.8828
 Frc consts  --      0.2712                 0.2685                 0.2643
 IR Inten    --      3.8468                 0.8672                13.1197

                     22                     23                     24
                      A                      A                      A
 Frequencies --    576.3424               627.8245               681.0539
 Red. masses --      2.2166                 2.1146                 1.9312
 Frc consts  --      0.4338                 0.4911                 0.5278
 IR Inten    --      9.5227                 3.2424                 4.8447

                     25                     26                     27
                      A                      A                      A
 Frequencies --    686.8890               720.1168               746.5966
 Red. masses --      2.2513                 2.9036                 1.1843
 Frc consts  --      0.6258                 0.8871                 0.3890
 IR Inten    --      9.1293                 3.0991                 0.8161

                     28                     29                     30
                      A                      A                      A
 Frequencies --    792.7870               869.7845               876.7831
 Red. masses --      1.0873                 3.0176                 2.8238
 Frc consts  --      0.4026                 1.3450                 1.2790
 IR Inten    --    148.7978                28.3748                 0.0807

                     31                     32                     33
                      A                      A                      A
 Frequencies --    928.4981               938.6706               943.7487
 Red. masses --      1.6393                 1.6445                 1.3973
 Frc consts  --      0.8327                 0.8537                 0.7333
 IR Inten    --      3.8177                 8.5829                48.5075

                     34                     35                     36
                      A                      A                      A
 Frequencies --    948.7524               953.8726               955.6268
 Red. masses --      1.5143                 1.6701                 1.4127
 Frc consts  --      0.8031                 0.8953                 0.7601
 IR Inten    --     28.1093                 9.1801                22.1450

                     37                     38                     39
                      A                      A                      A
 Frequencies --    959.1465               964.8486               981.5192
 Red. masses --      1.3621                 2.1661                 1.9899
 Frc consts  --      0.7383                 1.1881                 1.1295
 IR Inten    --     31.0638                 7.3521                 0.3482

                     40                     41                     42
                      A                      A                      A
 Frequencies --   1004.9413              1018.9963              1025.0277
 Red. masses --      1.7250                 1.8579                 1.9644
 Frc consts  --      1.0264                 1.1366                 1.2161
 IR Inten    --      7.9170                28.3314                24.9905

                     43                     44                     45
                      A                      A                      A
 Frequencies --   1035.3967              1038.9125              1043.8244
 Red. masses --      1.0965                 1.1112                 1.1169
 Frc consts  --      0.6926                 0.7066                 0.7170
 IR Inten    --     15.9239                13.0336                11.0281

                     46                     47                     48
                      A                      A                      A
 Frequencies --   1082.2966              1138.3016              1145.7417
 Red. masses --      2.3333                 2.6125                 2.5115
 Frc consts  --      1.6103                 1.9945                 1.9424
 IR Inten    --     38.5278                15.5286                59.4109

                     49                     50                     51
                      A                      A                      A
 Frequencies --   1182.4558              1210.6485              1264.1722
 Red. masses --      2.2192                 2.2002                 1.4745
 Frc consts  --      1.8282                 1.9000                 1.3884
 IR Inten    --     19.8335                 2.9425                 1.2139

                     52                     53                     54
                      A                      A                      A
 Frequencies --   1288.6785              1315.0729              1327.6439
 Red. masses --      1.3654                 1.5080                 1.3192
 Frc consts  --      1.3359                 1.5366                 1.3700
 IR Inten    --      4.1126                 1.9258                 1.9960

                     55                     56                     57
                      A                      A                      A
 Frequencies --   1330.0752              1335.0146              1340.9585
 Red. masses --      1.3376                 1.3150                 1.2427
 Frc consts  --      1.3942                 1.3808                 1.3166
 IR Inten    --      7.7249                 1.4360                 7.1002

                     58                     59                     60
                      A                      A                      A
 Frequencies --   1344.7207              1349.3428              1387.3830
 Red. masses --      1.2937                 1.2572                 1.2871
 Frc consts  --      1.3783                 1.3487                 1.4596
 IR Inten    --     18.6290                 5.7281                22.7750

                     61                     62                     63
                      A                      A                      A
 Frequencies --   1391.5850              1429.4305              1450.3393
 Red. masses --      1.3406                 1.3470                 1.1947
 Frc consts  --      1.5296                 1.6216                 1.4806
 IR Inten    --     12.6139                 0.4748                 4.5355

                     64                     65                     66
                      A                      A                      A
 Frequencies --   1474.5993              1476.6534              1482.2518
 Red. masses --      1.1751                 1.1787                 1.2336
 Frc consts  --      1.5055                 1.5143                 1.5969
 IR Inten    --      5.1661                 8.9747                 3.4130

                     67                     68                     69
                      A                      A                      A
 Frequencies --   1512.2508              1515.5202              1523.1169
 Red. masses --      1.1186                 1.0942                 1.1452
 Frc consts  --      1.5072                 1.4807                 1.5652
 IR Inten    --     14.9754                11.5561                57.2280

                     70                     71                     72
                      A                      A                      A
 Frequencies --   1538.8247              1725.2253              1729.1327
 Red. masses --      1.0950                 4.7453                 4.4050
 Frc consts  --      1.5278                 8.3216                 7.7598
 IR Inten    --     10.0092                 5.0476                 1.0444

                     73                     74                     75
                      A                      A                      A
 Frequencies --   1735.1424              1738.8963              2961.0579
 Red. masses --      4.4581                 5.3510                 1.0719
 Frc consts  --      7.9080                 9.5330                 5.5375
 IR Inten    --      1.1808                 2.4355                59.8776

                     76                     77                     78
                      A                      A                      A
 Frequencies --   3008.7907              3035.0011              3069.3082
 Red. masses --      1.0666                 1.0846                 1.0641
 Frc consts  --      5.6892                 5.8861                 5.9062
 IR Inten    --     44.8125                45.0507                21.3107

                     79                     80                     81
                      A                      A                      A
 Frequencies --   3075.1451              3082.3385              3122.2697
 Red. masses --      1.0948                 1.0887                 1.0982
 Frc consts  --      6.0996                 6.0944                 6.3076
 IR Inten    --      6.7431                25.4288                 2.5148

                     82                     83                     84
                      A                      A                      A
 Frequencies --   3145.3187              3147.4287              3154.6488
 Red. masses --      1.0817                 1.0765                 1.0601
 Frc consts  --      6.3053                 6.2830                 6.2157
 IR Inten    --     17.4773                25.1470                10.8361

                     85                     86                     87
                      A                      A                      A
 Frequencies --   3154.7364              3158.6373              3163.3647
 Red. masses --      1.0668                 1.0737                 1.0834
 Frc consts  --      6.2557                 6.3113                 6.3877
 IR Inten    --     18.0873                 7.7834                 6.8259

                     88                     89                     90
                      A                      A                      A
 Frequencies --   3172.0212              3232.1539              3236.3345
 Red. masses --      1.0668                 1.1161                 1.1163
 Frc consts  --      6.3242                 6.8696                 6.8886
 IR Inten    --     10.6955                22.0336                13.5964

                     91                     92                     93
                      A                      A                      A
 Frequencies --   3240.6470              3253.0965              3420.6850
 Red. masses --      1.1160                 1.1163                 1.0668
 Frc consts  --      6.9054                 6.9603                 7.3546
 IR Inten    --     18.8670                11.7992               463.9078

 - Thermochemistry -
 -------------------
 Temperature   298.150 Kelvin.  Pressure   1.00000 Atm.
 Atom     1 has atomic number  6 and mass  12.00000

 Molecular mass:   193.14666 amu.
 Principal axes and moments of inertia in atomic units:
                           1         2         3
     Eigenvalues --  2435.229743062.571434783.47138
           X            0.99992   0.01067  -0.00641
           Y           -0.01067   0.99994   0.00049
           Z            0.00642  -0.00042   0.99998
 This molecule is an asymmetric top.
 Rotational symmetry number  1.
 Warning -- assumption of classical behavior for rotation
           may cause significant error
 Rotational temperatures (Kelvin)      0.03557     0.02828     0.01811
 Rotational constants (GHZ):           0.74110     0.58929     0.37729
 Zero-point vibrational energy     759916.8 (Joules/Mol)
                                  181.62448 (Kcal/Mol)
 Warning -- explicit consideration of  22 degrees of freedom as
           vibrations may cause significant error
 Vibrational temperatures:     38.74    64.36    71.74    90.83   120.22
          (Kelvin)            124.77   147.49   202.28   232.92   317.90
                              366.06   378.76   428.93   449.03   495.58
                              571.23   596.74   633.26   664.72   682.77
                              702.24   829.23   903.30   979.88   988.28
                             1036.09  1074.19  1140.64  1251.43  1261.50
                             1335.90  1350.54  1357.84  1365.04  1372.41
                             1374.93  1380.00  1388.20  1412.19  1445.89
                             1466.11  1474.79  1489.70  1494.76  1501.83
                             1557.18  1637.76  1648.47  1701.29  1741.85
                             1818.86  1854.12  1892.10  1910.18  1913.68
                             1920.79  1929.34  1934.75  1941.40  1996.13
                             2002.18  2056.63  2086.71  2121.62  2124.57
                             2132.63  2175.79  2180.50  2191.43  2214.03
                             2482.21  2487.84  2496.48  2501.88  4260.30
                             4328.98  4366.69  4416.05  4424.45  4434.80
                             4492.25  4525.41  4528.45  4538.84  4538.96
                             4544.57  4551.38  4563.83  4650.35  4656.36
                             4662.57  4680.48  4921.60

 Zero-point correction=                           0.289437 (Hartree/Particle)
 Thermal correction to Energy=                    0.305284
 Thermal correction to Enthalpy=                  0.306229
 Thermal correction to Gibbs Free Energy=         0.244898
 Sum of electronic and zero-point Energies=           -598.340940
 Sum of electronic and thermal Energies=              -598.325093
 Sum of electronic and thermal Enthalpies=            -598.324149
 Sum of electronic and thermal Free Energies=         -598.385479

                     E (Thermal)             CV                S
                      KCal/Mol        Cal/Mol-Kelvin    Cal/Mol-Kelvin
 Total                  191.569             58.505            129.080
 Electronic               0.000              0.000              0.000
 Translational            0.889              2.981             41.680
 Rotational               0.889              2.981             31.945
 Vibrational            189.791             52.543             55.455
 Vibration     1          0.593              1.984              6.044
 Vibration     2          0.595              1.980              5.038
 Vibration     3          0.595              1.978              4.823
 Vibration     4          0.597              1.972              4.357
 Vibration     5          0.600              1.960              3.805
 Vibration     6          0.601              1.958              3.733
 Vibration     7          0.605              1.947              3.406
 Vibration     8          0.615              1.913              2.796
 Vibration     9          0.622              1.889              2.528
 Vibration    10          0.648              1.809              1.951
 Vibration    11          0.665              1.755              1.700
 Vibration    12          0.670              1.740              1.640
 Vibration    13          0.691              1.677              1.427
 Vibration    14          0.700              1.651              1.351
 Vibration    15          0.723              1.587              1.191
 Vibration    16          0.764              1.477              0.974
 Vibration    17          0.778              1.438              0.910
 Vibration    18          0.800              1.383              0.826
 Vibration    19          0.820              1.334              0.760
 Vibration    20          0.831              1.307              0.725
 Vibration    21          0.844              1.276              0.689
 Vibration    22          0.933              1.082              0.492

                           ! Non-Optimized Parameters !
 Normal termination of Gaussian 16 at Thu Dec 10 09:31:23 2020.

 ----------------------------------------------------------------------
 # B3LYP/6-311++G(d,p) empiricaldispersion=gd3bj scf=xqc pop=npa geom=c
 heck
 ----------------------------------------------------------------------

 --------------------------------------
 CID_87313630_JID_4175_Energie_neutraal
 --------------------------------------
 Structure from the checkpoint file:  "JID_4175.chk"
 Charge =  0 Multiplicity = 1

 SCF Done:  E(RB3LYP) =  -598.810103764     A.U. after   14 cycles
 Normal termination of Gaussian 16 at Thu Dec 10 09:35:06 2020.

 ----------------------------------------------------------------------
 # B3LYP/6-311++G(d,p) empiricaldispersion=gd3bj scf=xqc pop=npa geom=c
 heck
 ----------------------------------------------------------------------

 ------------------------------------
 CID_87313630_JID_4175_Energie_kation
 ------------------------------------
 Structure from the checkpoint file:  "JID_4175.chk"
 Charge =  1 Multiplicity = 2

 SCF Done:  E(UB3LYP) =  -598.509706184     A.U. after   25 cycles
 Normal termination of Gaussian 16 at Thu Dec 10 09:44:14 2020.
 Gaussian 16:  ES64L-G16RevA.03 25-Dec-2016

 ----------------------------------------------------------------------
 # B3LYP/6-311++G(d,p) empiricaldispersion=gd3bj scf=xqc pop=npa geom=c
 heck
 ----------------------------------------------------------------------

 -----------------------------------
 CID_87313630_JID_4175_Energie_anion
 -----------------------------------
 Structure from the checkpoint file:  "JID_4175.chk"
 Charge = -1 Multiplicity = 2

                         Standard orientation:
 ---------------------------------------------------------------------
 Center     Atomic      Atomic             Coordinates (Angstroms)
 Number     Number       Type             X           Y           Z
 ---------------------------------------------------------------------
      1          6           0       -2.563942   -2.708023    0.053021
      2          6           0       -2.563251   -1.375505    0.101235
      3          6           0       -1.490816   -0.559041    0.775802
      4          7           0       -0.626454    0.218764   -0.138168
      5          6           0       -1.329844    1.244490   -0.928723
      6          6           0       -2.153438    2.176513   -0.080730
      7          6           0       -1.735377    3.381662    0.304048
      8          6           0        0.198027   -0.650111   -1.000440
      9          6           0        1.281054   -1.343729   -0.206545
     10          6           0        1.411520   -2.671238   -0.199920
     11          6           0        2.231992   -0.427509    0.560317
     12          6           0        2.998253    0.447953   -0.413298
     13          6           0        2.989372    1.779256   -0.388800
     14          8           0        1.543593    0.323780    1.547374
     15          1           0       -1.773637   -3.289217    0.523781
     16          1           0       -3.351465   -3.267813   -0.444741
     17          1           0       -3.370680   -0.825399   -0.383056
     18          1           0       -1.937497    0.153565    1.478094
     19          1           0       -0.832038   -1.211540    1.355038
     20          1           0       -0.556945    1.818567   -1.451224
     21          1           0       -1.969803    0.784578   -1.703150
     22          1           0       -3.140349    1.829840    0.223769
     23          1           0       -2.349383    4.034429    0.918325
     24          1           0       -0.756248    3.760036    0.017552
     25          1           0       -0.412126   -1.384706   -1.548280
     26          1           0        0.672438    0.006123   -1.739592
     27          1           0        2.209595   -3.163973    0.349897
     28          1           0        0.728125   -3.313287   -0.750812
     29          1           0        2.953837   -1.058020    1.097193
     30          1           0        3.566960   -0.090167   -1.172740
     31          1           0        3.549080    2.368455   -1.109670
     32          1           0        2.436152    2.312323    0.378511
     33          1           0        0.729121    0.646312    1.093494
 ---------------------------------------------------------------------

 SCF Done:  E(UB3LYP) =  -598.795103932     A.U. after   33 cycles
 SCF Done:  E(UB3LYP) =  -598.795103932     a.u. after    1 cycles

 The electronic state is 2-A.
 Alpha  occ. eigenvalues --  -19.00116 -14.22021 -10.12384 -10.09918 -10.09791
 Alpha  occ. eigenvalues --  -10.09481 -10.07988 -10.07893 -10.07715 -10.07298
 Alpha  occ. eigenvalues --  -10.07040 -10.06920 -10.06403 -10.06006  -0.91178
 Alpha  occ. eigenvalues --   -0.83312  -0.71051  -0.69508  -0.67947  -0.66337
 Alpha  occ. eigenvalues --   -0.60313  -0.59416  -0.57103  -0.52055  -0.47790
 Alpha  occ. eigenvalues --   -0.45950  -0.45325  -0.44739  -0.39972  -0.39256
 Alpha  occ. eigenvalues --   -0.38560  -0.37685  -0.36681  -0.35828  -0.34626
 Alpha  occ. eigenvalues --   -0.33836  -0.32934  -0.31282  -0.29616  -0.29127
 Alpha  occ. eigenvalues --   -0.28110  -0.27496  -0.26963  -0.26231  -0.25811
 Alpha  occ. eigenvalues --   -0.24504  -0.23180  -0.18260  -0.17107  -0.16998
 Alpha  occ. eigenvalues --   -0.16497  -0.16207  -0.13087   0.04677
 Alpha virt. eigenvalues --    0.06493   0.06987   0.07548   0.08132   0.08219
 Alpha virt. eigenvalues --    0.08657   0.08883   0.09460   0.09865   0.10033
 Alpha virt. eigenvalues --    0.10474   0.10874   0.11919   0.12034   0.12407

  Beta  occ. eigenvalues --  -19.00107 -14.22012 -10.12386 -10.09911 -10.09765
  Beta  occ. eigenvalues --  -10.09469 -10.07969 -10.07831 -10.07670 -10.07274
  Beta  occ. eigenvalues --  -10.07011 -10.06871 -10.06350 -10.05984  -0.91152
  Beta  occ. eigenvalues --   -0.83289  -0.70943  -0.69444  -0.67876  -0.66254
  Beta  occ. eigenvalues --   -0.60270  -0.59342  -0.57034  -0.51960  -0.47694
  Beta  occ. eigenvalues --   -0.45856  -0.45234  -0.44675  -0.39910  -0.39194
  Beta  occ. eigenvalues --   -0.38511  -0.37629  -0.36616  -0.35775  -0.34568
  Beta  occ. eigenvalues --   -0.33792  -0.32882  -0.31231  -0.29573  -0.29087
  Beta  occ. eigenvalues --   -0.28070  -0.27460  -0.26896  -0.26191  -0.25760
  Beta  occ. eigenvalues --   -0.24456  -0.23138  -0.18103  -0.16937  -0.16909
  Beta  occ. eigenvalues --   -0.16351  -0.15970  -0.13054
  Beta virt. eigenvalues --    0.06915   0.07284   0.07427   0.07945   0.08228
  Beta virt. eigenvalues --    0.08681   0.09065   0.09231   0.09980   0.10233
  Beta virt. eigenvalues --    0.10283   0.10685   0.11106   0.12139   0.12447

 Mulliken charges and spin densities:
               1          2
     1  C    0.553261  -1.132713
     2  C   -0.387583   0.739661
     3  C   -0.165397  -0.570424
     4  N    0.136713   0.127870
     5  C    1.100627  -1.762899
     6  C   -0.868861   1.235272
     7  C    0.569340  -0.972748
     8  C    0.261019  -1.193343
     9  C    0.212951   0.815829
    10  C   -0.021256  -0.550206
    11  C   -0.791470   0.312010
    12  C    0.017322  -0.019624
    13  C    0.115925  -0.550693
    14  O   -0.234654  -0.026199
    15  H    0.171464  -0.046119
    16  H   -0.470742   0.606294
    17  H   -0.271023   0.437244
    18  H    0.269000  -0.082896
    19  H    0.004296   0.147531
    20  H   -0.223656   0.359079
    21  H   -0.151212   0.323616
    22  H   -0.486645   0.630391
    23  H   -0.065473   0.191025
    24  H   -0.168599   0.289631
    25  H   -0.018324   0.182076
    26  H   -0.230433   0.424547
    27  H    0.117293  -0.012369
    28  H   -0.089812   0.220878
    29  H    0.077172   0.114337
    30  H   -0.242664   0.410678
    31  H   -0.245847   0.368776
    32  H    0.145171  -0.013894
    33  H    0.382097  -0.002618
 Sum of Mulliken charges =  -1.00000   1.00000

 Dipole moment (field-independent basis, Debye):
    X=              1.7492    Y=             -1.4270    Z=              3.5932  Tot=              4.2434
 Quadrupole moment (field-independent basis, Debye-Ang):
   XX=           -150.9290   YY=           -136.7582   ZZ=           -124.8745
   XY=             -4.8421   XZ=             -1.8407   YZ=             -1.0101

 Summary of Natural Population Analysis:

                                       Natural Population
                Natural  -----------------------------------------------
    Atom  No    Charge         Core      Valence    Rydberg      Total
 -----------------------------------------------------------------------
      C    1   -0.18373      0.99956     2.17628    0.00789     3.18373
      C    2   -0.09520      0.99955     2.08553    0.01012     3.09520
      C    3   -0.10923      0.99958     2.09745    0.01220     3.10923
      N    4   -0.29136      0.99973     2.77665    0.01498     3.79136
      C    5   -0.10205      0.99958     2.08883    0.01365     3.10205
      C    6   -0.08914      0.99956     2.07889    0.01070     3.08914
      C    7   -0.17469      0.99955     2.16807    0.00707     3.17469
      C    8   -0.10676      0.99954     2.09328    0.01393     3.10676
      C    9   -0.00304      0.99949     1.99186    0.01170     3.00304
      C   10   -0.18060      0.99947     2.17391    0.00722     3.18060
      C   11    0.03553      0.99947     1.94886    0.01614     2.96447
      C   12   -0.09433      0.99954     2.08379    0.01100     3.09433
      C   13   -0.19368      0.99955     2.18589    0.00824     3.19368
      O   14   -0.38318      0.99990     3.37732    0.00596     4.38318
      H   15    0.08989      0.00000     0.40889    0.00122     0.41011
      H   16    0.09522      0.00000     0.40357    0.00120     0.40478
      H   17    0.09479      0.00000     0.40345    0.00176     0.40521
      H   18    0.10395      0.00000     0.39492    0.00113     0.39605
      H   19    0.10535      0.00000     0.39311    0.00155     0.39465
      H   20    0.10312      0.00000     0.39495    0.00192     0.39688
      H   21    0.09177      0.00000     0.40589    0.00234     0.40823
      H   22    0.09187      0.00000     0.40682    0.00131     0.40813
      H   23    0.09228      0.00000     0.40685    0.00087     0.40772
      H   24    0.09201      0.00000     0.40678    0.00121     0.40799
      H   25    0.09566      0.00000     0.40225    0.00210     0.40434
      H   26    0.10968      0.00000     0.38779    0.00253     0.39032
      H   27    0.09124      0.00000     0.40777    0.00099     0.40876
      H   28    0.09408      0.00000     0.40481    0.00112     0.40592
      H   29    0.09008      0.00000     0.40808    0.00185     0.40992
      H   30    0.09573      0.00000     0.40300    0.00127     0.40427
      H   31    0.09380      0.00000     0.40516    0.00104     0.40620
      H   32    0.09754      0.00000     0.40097    0.00149     0.40246
      H   33    0.24342      0.00000     0.25256    0.00401     0.25658
 =======================================================================
   * Total *   -0.00000     13.99408    38.82423    0.18170    53.00000

 Normal termination of Gaussian 16 at Thu Dec 10 09:56:35 2020.
