 Gaussian 16, Revision A.03,

 -----------------------------------------------------------
 # opt freq B3LYP/6-31G(d) empiricaldispersion=gd3bj scf=xqc
 -----------------------------------------------------------

 -------------------------------
 CID_116929286_JID_6562_neutraal
 -------------------------------
 Symbolic Z-matrix:
 Charge =  0 Multiplicity = 1

 SCF Done:  E(RB3LYP) =  -676.131164706     A.U. after   13 cycles
 SCF Done:  E(RB3LYP) =  -676.137857229     A.U. after   12 cycles
 SCF Done:  E(RB3LYP) =  -676.138607093     A.U. after   11 cycles
 SCF Done:  E(RB3LYP) =  -676.139045899     A.U. after   11 cycles
 SCF Done:  E(RB3LYP) =  -676.139273398     A.U. after   11 cycles
 SCF Done:  E(RB3LYP) =  -676.139531250     A.U. after   11 cycles
 SCF Done:  E(RB3LYP) =  -676.139759547     A.U. after   12 cycles
 SCF Done:  E(RB3LYP) =  -676.139936100     A.U. after   11 cycles
 SCF Done:  E(RB3LYP) =  -676.140518660     A.U. after   12 cycles
 SCF Done:  E(RB3LYP) =  -676.139489586     A.U. after   13 cycles
 SCF Done:  E(RB3LYP) =  -676.141716406     A.U. after   10 cycles
 SCF Done:  E(RB3LYP) =  -676.141723042     A.U. after   10 cycles
 SCF Done:  E(RB3LYP) =  -676.141723739     A.U. after    8 cycles
 SCF Done:  E(RB3LYP) =  -676.141723868     A.U. after    7 cycles
 SCF Done:  E(RB3LYP) =  -676.141723874     A.U. after    7 cycles
 Optimization completed.
    -- Stationary point found.
 Normal termination of Gaussian 16 at Thu Dec 10 23:44:23 2020.

 --------------------------------------------------------------------
 #N Geom=AllCheck Guess=TCheck SCRF=Check GenChk RB3LYP/6-31G(d) Freq
 --------------------------------------------------------------------

 Structure from the checkpoint file:  "JID_6562.chk"
 -------------------------------
 CID_116929286_JID_6562_neutraal
 -------------------------------
 Charge =  0 Multiplicity = 1

 SCF Done:  E(RB3LYP) =  -676.141723874     A.U. after    1 cycles

  Exact polarizability: 207.304  -8.222 130.331 -12.598 -14.807 126.079
 Approx polarizability: 263.077 -21.064 204.474 -22.314 -38.916 200.783

                      1                      2                      3
                      A                      A                      A
 Frequencies --     31.4623                40.3514                55.7005
 Red. masses --      3.6933                 3.5577                 4.0159
 Frc consts  --      0.0022                 0.0034                 0.0073
 IR Inten    --      0.8528                 0.4133                 0.4132

                      4                      5                      6
                      A                      A                      A
 Frequencies --     74.5531               115.6336               122.7015
 Red. masses --      3.7141                 2.8116                 2.8024
 Frc consts  --      0.0122                 0.0221                 0.0249
 IR Inten    --      0.2777                 0.6270                 1.8699

                      7                      8                      9
                      A                      A                      A
 Frequencies --    144.4622               194.2903               204.2194
 Red. masses --      2.6965                 1.5416                 1.8004
 Frc consts  --      0.0332                 0.0343                 0.0442
 IR Inten    --      1.2957                 4.7901                 9.8486

                     10                     11                     12
                      A                      A                      A
 Frequencies --    209.5444               221.9841               247.7096
 Red. masses --      3.5843                 1.2851                 2.1406
 Frc consts  --      0.0927                 0.0373                 0.0774
 IR Inten    --      0.9296                37.4668                 0.7394

                     13                     14                     15
                      A                      A                      A
 Frequencies --    290.0875               328.4469               342.6092
 Red. masses --      2.0039                 3.2433                 2.4658
 Frc consts  --      0.0994                 0.2061                 0.1705
 IR Inten    --      1.8254                 1.9173                14.8706

                     16                     17                     18
                      A                      A                      A
 Frequencies --    361.1778               383.7317               411.2309
 Red. masses --      2.3688                 2.6051                 3.3270
 Frc consts  --      0.1821                 0.2260                 0.3315
 IR Inten    --      2.1005                 1.2867                 4.0319

                     19                     20                     21
                      A                      A                      A
 Frequencies --    430.2889               466.6152               506.2907
 Red. masses --      3.2049                 3.4916                 3.1316
 Frc consts  --      0.3496                 0.4479                 0.4730
 IR Inten    --      0.0610                 3.3453                 9.7758

                     22                     23                     24
                      A                      A                      A
 Frequencies --    549.4179               581.1394               638.0400
 Red. masses --      2.9795                 3.5246                 2.6499
 Frc consts  --      0.5299                 0.7013                 0.6356
 IR Inten    --      3.5984                 5.3925                 7.6811

                     25                     26                     27
                      A                      A                      A
 Frequencies --    656.5316               709.4670               742.3014
 Red. masses --      6.4078                 1.8772                 2.8549
 Frc consts  --      1.6273                 0.5567                 0.9268
 IR Inten    --      0.8149                 1.6130                 8.8621

                     28                     29                     30
                      A                      A                      A
 Frequencies --    765.6178               793.6682               827.1178
 Red. masses --      3.5620                 1.3084                 1.3038
 Frc consts  --      1.2302                 0.4856                 0.5255
 IR Inten    --      8.6077                 0.6026                 7.1328

                     31                     32                     33
                      A                      A                      A
 Frequencies --    828.5635               844.7713               858.7930
 Red. masses --      1.2221                 1.9031                 1.3854
 Frc consts  --      0.4943                 0.8002                 0.6020
 IR Inten    --      2.8836                24.8840                58.5284

                     34                     35                     36
                      A                      A                      A
 Frequencies --    861.1809               872.0883               896.6616
 Red. masses --      2.3532                 2.0424                 1.8574
 Frc consts  --      1.0282                 0.9152                 0.8798
 IR Inten    --      7.9823                27.9622                10.8201

                     37                     38                     39
                      A                      A                      A
 Frequencies --    913.3277               921.1423               946.3176
 Red. masses --      1.9290                 2.4010                 1.3820
 Frc consts  --      0.9481                 1.2003                 0.7292
 IR Inten    --     11.7056                 6.9237                 1.2209

                     40                     41                     42
                      A                      A                      A
 Frequencies --    954.9299               958.6741               964.6003
 Red. masses --      2.3574                 1.6351                 1.4606
 Frc consts  --      1.2666                 0.8854                 0.8007
 IR Inten    --      3.0160                10.3556                 6.1198

                     43                     44                     45
                      A                      A                      A
 Frequencies --   1002.1497              1036.2567              1052.2905
 Red. masses --      2.3853                 2.6970                 1.9867
 Frc consts  --      1.4115                 1.7063                 1.2961
 IR Inten    --     10.7648                 0.1532                 2.1786

                     46                     47                     48
                      A                      A                      A
 Frequencies --   1073.6424              1077.1185              1086.7098
 Red. masses --      1.3182                 3.8321                 1.7930
 Frc consts  --      0.8952                 2.6195                 1.2476
 IR Inten    --      7.5156                44.5012                 5.9100

                     49                     50                     51
                      A                      A                      A
 Frequencies --   1131.9640              1145.2308              1159.3220
 Red. masses --      2.0532                 1.3850                 1.9692
 Frc consts  --      1.5500                 1.0702                 1.5593
 IR Inten    --     38.0116                11.0948                 1.3245

                     52                     53                     54
                      A                      A                      A
 Frequencies --   1204.6255              1205.6681              1214.3011
 Red. masses --      1.5066                 1.6293                 1.1845
 Frc consts  --      1.2881                 1.3955                 1.0291
 IR Inten    --      0.5651                 6.0808                31.1158

                     55                     56                     57
                      A                      A                      A
 Frequencies --   1215.0030              1232.1798              1245.5500
 Red. masses --      1.5048                 1.6807                 2.4442
 Frc consts  --      1.3088                 1.5034                 2.2342
 IR Inten    --      1.5011                 0.6121                 1.6609

                     58                     59                     60
                      A                      A                      A
 Frequencies --   1270.7748              1279.0116              1280.7539
 Red. masses --      1.4815                 1.3368                 1.4206
 Frc consts  --      1.4096                 1.2885                 1.3730
 IR Inten    --      3.3059                 6.5722                 0.6111

                     61                     62                     63
                      A                      A                      A
 Frequencies --   1283.8935              1302.2325              1315.0285
 Red. masses --      3.0403                 1.6318                 1.4513
 Frc consts  --      2.9528                 1.6304                 1.4787
 IR Inten    --    291.9593                11.7519                 6.1863

                     64                     65                     66
                      A                      A                      A
 Frequencies --   1332.5050              1351.6524              1366.6972
 Red. masses --      1.3687                 1.3745                 1.4228
 Frc consts  --      1.4318                 1.4796                 1.5658
 IR Inten    --     26.0763                36.3090                24.5956

                     67                     68                     69
                      A                      A                      A
 Frequencies --   1375.1117              1380.0662              1421.0803
 Red. masses --      2.2646                 1.7297                 1.2711
 Frc consts  --      2.5230                 1.9410                 1.5124
 IR Inten    --     16.0910                 6.5737                 0.2289

                     70                     71                     72
                      A                      A                      A
 Frequencies --   1441.0363              1443.4845              1470.9388
 Red. masses --      1.4390                 1.2984                 2.8656
 Frc consts  --      1.7606                 1.5940                 3.6531
 IR Inten    --     17.5984                26.2029                 1.3556

                     73                     74                     75
                      A                      A                      A
 Frequencies --   1506.0141              1513.1495              1516.4811
 Red. masses --      1.0894                 1.0827                 1.0448
 Frc consts  --      1.4558                 1.4606                 1.4156
 IR Inten    --      1.6667                 0.1236                 4.7263

                     76                     77                     78
                      A                      A                      A
 Frequencies --   1516.6977              1532.3020              1532.6807
 Red. masses --      1.0985                 1.0520                 1.0969
 Frc consts  --      1.4888                 1.4553                 1.5181
 IR Inten    --      3.4210                 2.4305                 4.9461

                     79                     80                     81
                      A                      A                      A
 Frequencies --   1541.8088              1547.6274              1565.9385
 Red. masses --      1.1177                 1.1077                 2.4665
 Frc consts  --      1.5654                 1.5632                 3.5636
 IR Inten    --      2.0475                 6.4876               140.9728

                     82                     83                     84
                      A                      A                      A
 Frequencies --   1634.0298              1677.3133              1692.4990
 Red. masses --      6.4360                 5.9156                 1.0884
 Frc consts  --     10.1248                 9.8057                 1.8369
 IR Inten    --      9.9587                56.5026                37.2294

                     85                     86                     87
                      A                      A                      A
 Frequencies --   2954.1704              3030.3848              3044.6467
 Red. masses --      1.0725                 1.0685                 1.0675
 Frc consts  --      5.5148                 5.7811                 5.8303
 IR Inten    --     82.2441                24.9122                41.3026

                     88                     89                     90
                      A                      A                      A
 Frequencies --   3054.5172              3056.4404              3060.8447
 Red. masses --      1.0870                 1.0655                 1.0365
 Frc consts  --      5.9753                 5.8643                 5.7215
 IR Inten    --     33.7598                49.5511                18.7608

                     91                     92                     93
                      A                      A                      A
 Frequencies --   3062.4918              3076.5238              3100.3629
 Red. masses --      1.0641                 1.0607                 1.0941
 Frc consts  --      5.8798                 5.9149                 6.1963
 IR Inten    --     52.2820                56.1260                 7.4585

                     94                     95                     96
                      A                      A                      A
 Frequencies --   3109.4267              3110.8392              3127.0927
 Red. masses --      1.0981                 1.1056                 1.1009
 Frc consts  --      6.2551                 6.3039                 6.3428
 IR Inten    --     21.0268                 4.2112                 0.9667

                     97                     98                     99
                      A                      A                      A
 Frequencies --   3129.7211              3137.1361              3145.7100
 Red. masses --      1.1010                 1.1029                 1.1032
 Frc consts  --      6.3542                 6.3952                 6.4318
 IR Inten    --     31.2231                69.3826                41.1668

                    100                    101                    102
                      A                      A                      A
 Frequencies --   3179.1288              3180.1187              3213.3816
 Red. masses --      1.0891                 1.0885                 1.0930
 Frc consts  --      6.4851                 6.4856                 6.6493
 IR Inten    --     12.9807                17.9423                 9.3915

                    103                    104                    105
                      A                      A                      A
 Frequencies --   3225.5998              3468.6720              3552.6169
 Red. masses --      1.0910                 1.0497                 1.0920
 Frc consts  --      6.6879                 7.4415                 8.1202
 IR Inten    --     15.5828                 2.0959                 0.4792

 - Thermochemistry -
 -------------------
 Temperature   298.150 Kelvin.  Pressure   1.00000 Atm.
 Atom     1 has atomic number  6 and mass  12.00000

 Molecular mass:   219.16231 amu.
 Principal axes and moments of inertia in atomic units:
                           1         2         3
     Eigenvalues --  1427.077697983.670498255.23202
           X            0.99996   0.00823  -0.00335
           Y           -0.00835   0.99923  -0.03826
           Z            0.00303   0.03829   0.99926
 This molecule is an asymmetric top.
 Rotational symmetry number  1.
 Warning -- assumption of classical behavior for rotation
           may cause significant error
 Rotational temperatures (Kelvin)      0.06069     0.01085     0.01049
 Rotational constants (GHZ):           1.26464     0.22605     0.21862
 Zero-point vibrational energy     864063.2 (Joules/Mol)
                                  206.51607 (Kcal/Mol)
 Warning -- explicit consideration of  23 degrees of freedom as
           vibrations may cause significant error
 Vibrational temperatures:     45.27    58.06    80.14   107.27   166.37
          (Kelvin)            176.54   207.85   279.54   293.83   301.49
                              319.39   356.40   417.37   472.56   492.94
                              519.65   552.10   591.67   619.09   671.36
                              728.44   790.49   836.13   918.00   944.60
                             1020.76  1068.01  1101.55  1141.91  1190.04
                             1192.12  1215.44  1235.61  1239.05  1254.74
                             1290.10  1314.07  1325.32  1361.54  1373.93
                             1379.32  1387.84  1441.87  1490.94  1514.01
                             1544.73  1549.73  1563.53  1628.64  1647.73
                             1668.01  1733.19  1734.69  1747.11  1748.12
                             1772.83  1792.07  1828.36  1840.21  1842.72
                             1847.24  1873.62  1892.03  1917.18  1944.73
                             1966.37  1978.48  1985.61  2044.62  2073.33
                             2076.85  2116.35  2166.82  2177.08  2181.88
                             2182.19  2204.64  2205.19  2218.32  2226.69
                             2253.04  2351.00  2413.28  2435.13  4250.39
                             4360.05  4380.57  4394.77  4397.54  4403.87
                             4406.24  4426.43  4460.73  4473.77  4475.80
                             4499.19  4502.97  4513.64  4525.98  4574.06
                             4575.48  4623.34  4640.92  4990.65  5111.42

 Zero-point correction=                           0.329104 (Hartree/Particle)
 Thermal correction to Energy=                    0.345174
 Thermal correction to Enthalpy=                  0.346118
 Thermal correction to Gibbs Free Energy=         0.284937
 Sum of electronic and zero-point Energies=           -675.812620
 Sum of electronic and thermal Energies=              -675.796550
 Sum of electronic and thermal Enthalpies=            -675.795605
 Sum of electronic and thermal Free Energies=         -675.856787

                     E (Thermal)             CV                S
                      KCal/Mol        Cal/Mol-Kelvin    Cal/Mol-Kelvin
 Total                  216.600             62.164            128.767
 Electronic               0.000              0.000              0.000
 Translational            0.889              2.981             42.057
 Rotational               0.889              2.981             32.908
 Vibrational            214.823             56.202             53.802
 Vibration     1          0.594              1.983              5.735
 Vibration     2          0.594              1.981              5.242
 Vibration     3          0.596              1.975              4.604
 Vibration     4          0.599              1.966              4.029
 Vibration     5          0.608              1.936              3.172
 Vibration     6          0.610              1.930              3.057
 Vibration     7          0.616              1.909              2.744
 Vibration     8          0.635              1.848              2.187
 Vibration     9          0.640              1.834              2.095
 Vibration    10          0.642              1.826              2.048
 Vibration    11          0.648              1.808              1.943
 Vibration    12          0.661              1.767              1.747
 Vibration    13          0.686              1.692              1.473
 Vibration    14          0.712              1.619              1.268
 Vibration    15          0.722              1.590              1.200
 Vibration    16          0.735              1.552              1.117
 Vibration    17          0.753              1.505              1.024
 Vibration    18          0.775              1.446              0.922
 Vibration    19          0.791              1.404              0.858
 Vibration    20          0.824              1.324              0.747
 Vibration    21          0.862              1.236              0.643
 Vibration    22          0.905              1.141              0.545
 Vibration    23          0.938              1.072              0.483

 Optimization completed.
    -- Stationary point found.
 Normal termination of Gaussian 16 at Thu Dec 10 23:55:51 2020.

 ----------------------------------------------------------------------
 # B3LYP/6-311++G(d,p) empiricaldispersion=gd3bj scf=xqc pop=npa geom=c
 heck
 ----------------------------------------------------------------------

 ---------------------------------------
 CID_116929286_JID_6562_Energie_neutraal
 ---------------------------------------
 Structure from the checkpoint file:  "JID_6562.chk"
 Charge =  0 Multiplicity = 1

 SCF Done:  E(RB3LYP) =  -676.330719394     A.U. after   15 cycles
 Normal termination of Gaussian 16 at Fri Dec 11 00:01:12 2020.

 ----------------------------------------------------------------------
 # B3LYP/6-311++G(d,p) empiricaldispersion=gd3bj scf=xqc pop=npa geom=c
 heck
 ----------------------------------------------------------------------

 -------------------------------------
 CID_116929286_JID_6562_Energie_kation
 -------------------------------------
 Structure from the checkpoint file:  "JID_6562.chk"
 Charge =  1 Multiplicity = 2

 SCF Done:  E(UB3LYP) =  -676.054744597     A.U. after   24 cycles
 Normal termination of Gaussian 16 at Fri Dec 11 00:12:51 2020.
 Gaussian 16:  ES64L-G16RevA.03 25-Dec-2016

 ----------------------------------------------------------------------
 # B3LYP/6-311++G(d,p) empiricaldispersion=gd3bj scf=xqc pop=npa geom=c
 heck
 ----------------------------------------------------------------------

 ------------------------------------
 CID_116929286_JID_6562_Energie_anion
 ------------------------------------
 Structure from the checkpoint file:  "JID_6562.chk"
 Charge = -1 Multiplicity = 2

                         Standard orientation:
 ---------------------------------------------------------------------
 Center     Atomic      Atomic             Coordinates (Angstroms)
 Number     Number       Type             X           Y           Z
 ---------------------------------------------------------------------
      1          6           0       -5.218821   -1.168457    0.214522
      2          6           0       -4.682474    0.123804    0.819900
      3          8           0       -3.811742    0.821742   -0.069278
      4          6           0       -2.527713    0.379649   -0.232105
      5          6           0       -1.932672   -0.661099    0.489278
      6          6           0       -0.600618   -0.999999    0.239886
      7          6           0        0.171103   -0.328725   -0.712779
      8          6           0       -0.452202    0.702058   -1.433139
      9          6           0       -1.775791    1.055315   -1.202115
     10          6           0        1.616516   -0.689954   -0.943018
     11          6           0        2.642445    0.071482   -0.076820
     12          6           0        2.618188    1.628740   -0.124499
     13          6           0        2.788634    1.663684    1.415969
     14          6           0        2.385582    0.168005    1.461840
     15          6           0        4.055261   -0.447061   -0.380032
     16          7           0        4.184346   -1.877743   -0.080702
     17          1           0       -5.739484   -0.955357   -0.724268
     18          1           0       -5.925655   -1.644000    0.904069
     19          1           0       -4.413651   -1.878039    0.003460
     20          1           0       -5.500563    0.825595    1.004775
     21          1           0       -4.180961   -0.056657    1.779730
     22          1           0       -2.488219   -1.217070    1.235051
     23          1           0       -0.155167   -1.818414    0.800494
     24          1           0        0.110816    1.231477   -2.198047
     25          1           0       -2.253749    1.851936   -1.763337
     26          1           0        1.771381   -1.760106   -0.771736
     27          1           0        1.874543   -0.506089   -1.995453
     28          1           0        3.391674    2.111909   -0.732974
     29          1           0        1.641057    2.010937   -0.430417
     30          1           0        2.151769    2.362040    1.966751
     31          1           0        3.826451    1.830157    1.720684
     32          1           0        1.328121    0.040470    1.705390
     33          1           0        2.971311   -0.491886    2.113138
     34          1           0        4.253025   -0.312205   -1.451748
     35          1           0        4.787602    0.183136    0.156450
     36          1           0        5.110573   -2.203232   -0.350472
     37          1           0        4.118022   -2.018999    0.926269
 ---------------------------------------------------------------------

 SCF Done:  E(UB3LYP) =  -676.317543370     A.U. after   33 cycles
 SCF Done:  E(UB3LYP) =  -676.317543370     a.u. after    1 cycles

 The electronic state is 2-A.
 Alpha  occ. eigenvalues --  -19.06120 -14.19430 -10.14423 -10.13726 -10.09491
 Alpha  occ. eigenvalues --  -10.08718 -10.08549 -10.08401 -10.08329 -10.08300
 Alpha  occ. eigenvalues --  -10.08215 -10.07557 -10.07467 -10.07220 -10.07054
 Alpha  occ. eigenvalues --  -10.06883  -0.97688  -0.79364  -0.76895  -0.74797
 Alpha  occ. eigenvalues --   -0.69315  -0.66681  -0.65734  -0.62045  -0.57808
 Alpha  occ. eigenvalues --   -0.56759  -0.54770  -0.52304  -0.51344  -0.48700
 Alpha  occ. eigenvalues --   -0.44548  -0.42886  -0.40584  -0.40108  -0.39481
 Alpha  occ. eigenvalues --   -0.37524  -0.36812  -0.36284  -0.35272  -0.34792
 Alpha  occ. eigenvalues --   -0.33671  -0.33479  -0.31856  -0.30868  -0.30350
 Alpha  occ. eigenvalues --   -0.29585  -0.28950  -0.28370  -0.27540  -0.26219
 Alpha  occ. eigenvalues --   -0.25742  -0.24341  -0.23473  -0.22971  -0.22105
 Alpha  occ. eigenvalues --   -0.20576  -0.20246  -0.16775  -0.14866  -0.12806
 Alpha  occ. eigenvalues --    0.04015
 Alpha virt. eigenvalues --    0.05141   0.06985   0.07143   0.07341   0.07422
 Alpha virt. eigenvalues --    0.07863   0.08125   0.08842   0.09445   0.09603
 Alpha virt. eigenvalues --    0.09719   0.10195   0.10833   0.11475   0.11756

  Beta  occ. eigenvalues --  -19.06118 -14.19385 -10.14420 -10.13703 -10.09468
  Beta  occ. eigenvalues --  -10.08719 -10.08544 -10.08396 -10.08324 -10.08286
  Beta  occ. eigenvalues --  -10.08214 -10.07521 -10.07458 -10.07217 -10.07049
  Beta  occ. eigenvalues --  -10.06862  -0.97679  -0.79308  -0.76877  -0.74766
  Beta  occ. eigenvalues --   -0.69290  -0.66656  -0.65715  -0.62010  -0.57758
  Beta  occ. eigenvalues --   -0.56725  -0.54714  -0.52279  -0.51306  -0.48673
  Beta  occ. eigenvalues --   -0.44520  -0.42853  -0.40565  -0.40069  -0.39454
  Beta  occ. eigenvalues --   -0.37482  -0.36791  -0.36237  -0.35243  -0.34750
  Beta  occ. eigenvalues --   -0.33631  -0.33461  -0.31830  -0.30843  -0.30316
  Beta  occ. eigenvalues --   -0.29564  -0.28922  -0.28336  -0.27507  -0.26200
  Beta  occ. eigenvalues --   -0.25722  -0.24322  -0.23454  -0.22948  -0.22083
  Beta  occ. eigenvalues --   -0.20560  -0.20229  -0.16758  -0.14822  -0.12788
  Beta virt. eigenvalues --    0.06117   0.06488   0.07185   0.07236   0.07490
  Beta virt. eigenvalues --    0.07992   0.08198   0.08496   0.08980   0.09760
  Beta virt. eigenvalues --    0.10023   0.10212   0.10299   0.10856   0.11716

 Mulliken charges and spin densities:
               1          2
     1  C    0.893928  -1.264782
     2  C   -0.244623  -0.010929
     3  O   -0.110837   0.009296
     4  C   -0.735949   0.173884
     5  C    0.390288  -0.498988
     6  C    0.058522  -0.196878
     7  C    1.934303  -0.334149
     8  C   -0.804379   0.396457
     9  C   -0.944775   0.565676
    10  C   -0.610144  -0.414582
    11  C   -0.093539   1.088731
    12  C   -0.169580  -0.461063
    13  C    0.235899  -0.527809
    14  C   -0.379661  -0.141217
    15  C    1.372593  -2.229877
    16  N   -0.517349   0.216385
    17  H    0.015126   0.130018
    18  H   -0.465577   0.603567
    19  H   -0.051220   0.183365
    20  H   -0.475642   0.664235
    21  H   -0.072012   0.202394
    22  H   -0.162065   0.375944
    23  H   -0.169424   0.353707
    24  H    0.023523   0.136619
    25  H    0.096953   0.081043
    26  H    0.267574  -0.063518
    27  H    0.101855   0.055021
    28  H    0.055766   0.085946
    29  H    0.201802  -0.115193
    30  H    0.078932   0.059289
    31  H   -0.002987   0.135067
    32  H    0.191833  -0.082523
    33  H   -0.284273   0.423326
    34  H   -0.097183   0.276034
    35  H   -0.312951   0.453076
    36  H   -0.200128   0.453331
    37  H   -0.014599   0.219097
 Sum of Mulliken charges =  -1.00000   1.00000

 Dipole moment (field-independent basis, Debye):
    X=             -0.1165    Y=              4.1531    Z=             -2.8134  Tot=              5.0177
 Quadrupole moment (field-independent basis, Debye-Ang):
   XX=           -239.3894   YY=           -136.2432   ZZ=           -131.4172
   XY=              6.4809   XZ=              7.2823   YZ=              1.7057

 Summary of Natural Population Analysis:

                                       Natural Population
                Natural  -----------------------------------------------
    Atom  No    Charge         Core      Valence    Rydberg      Total
 -----------------------------------------------------------------------
      C    1   -0.30060      0.99966     2.29597    0.00497     3.30060
      C    2   -0.01226      0.99958     2.00018    0.01249     3.01226
      O    3   -0.27849      0.99986     3.26908    0.00955     4.27849
      C    4    0.15778      0.99938     1.82897    0.01388     2.84222
      C    5   -0.14159      0.99952     2.13388    0.00820     3.14159
      C    6   -0.10747      0.99956     2.09372    0.01419     3.10747
      C    7    0.02182      0.99950     1.97300    0.00568     2.97818
      C    8   -0.11162      0.99956     2.09919    0.01287     3.11162
      C    9   -0.12067      0.99953     2.11242    0.00873     3.12067
      C   10   -0.21441      0.99958     2.19946    0.01537     3.21441
      C   11   -0.03466      0.99956     2.02042    0.01468     3.03466
      C   12   -0.18934      0.99960     2.18141    0.00833     3.18934
      C   13   -0.19183      0.99965     2.18397    0.00821     3.19183
      C   14   -0.18966      0.99959     2.18149    0.00858     3.18966
      C   15   -0.08407      0.99956     2.07143    0.01309     3.08407
      N   16   -0.42515      0.99977     2.91453    0.01085     3.92515
      H   17    0.10028      0.00000     0.39875    0.00097     0.39972
      H   18    0.10516      0.00000     0.39273    0.00211     0.39484
      H   19    0.10144      0.00000     0.39728    0.00127     0.39856
      H   20    0.09245      0.00000     0.40605    0.00149     0.40755
      H   21    0.08380      0.00000     0.41448    0.00171     0.41620
      H   22    0.10587      0.00000     0.39258    0.00155     0.39413
      H   23    0.10237      0.00000     0.39656    0.00107     0.39763
      H   24    0.09905      0.00000     0.40001    0.00094     0.40095
      H   25    0.10375      0.00000     0.39499    0.00126     0.39625
      H   26    0.11650      0.00000     0.38177    0.00173     0.38350
      H   27    0.09978      0.00000     0.39899    0.00124     0.40022
      H   28    0.09478      0.00000     0.40435    0.00087     0.40522
      H   29    0.10185      0.00000     0.39680    0.00135     0.39815
      H   30    0.09425      0.00000     0.40493    0.00082     0.40575
      H   31    0.09599      0.00000     0.40264    0.00138     0.40401
      H   32    0.10366      0.00000     0.39478    0.00156     0.39634
      H   33    0.09594      0.00000     0.40274    0.00131     0.40406
      H   34    0.08986      0.00000     0.40889    0.00125     0.41014
      H   35    0.08242      0.00000     0.41528    0.00231     0.41758
      H   36    0.17889      0.00000     0.31824    0.00287     0.32111
      H   37    0.17420      0.00000     0.32305    0.00275     0.32580
 =======================================================================
   * Total *    0.00009     15.99344    43.80501    0.20146    59.99991

 Normal termination of Gaussian 16 at Fri Dec 11 00:28:46 2020.
