 Gaussian 16, Revision A.03,

 -----------------------------------------------------------
 # opt freq B3LYP/6-31G(d) empiricaldispersion=gd3bj scf=xqc
 -----------------------------------------------------------

 ------------------------------
 CID_68099506_JID_8413_neutraal
 ------------------------------
 Symbolic Z-matrix:
 Charge =  0 Multiplicity = 1

 SCF Done:  E(RB3LYP) =  -860.145531133     A.U. after   15 cycles
 SCF Done:  E(RB3LYP) =  -860.150169388     A.U. after   13 cycles
 SCF Done:  E(RB3LYP) =  -860.150091674     A.U. after   13 cycles
 SCF Done:  E(RB3LYP) =  -860.151323997     A.U. after   13 cycles
 SCF Done:  E(RB3LYP) =  -860.151713389     A.U. after   12 cycles
 SCF Done:  E(RB3LYP) =  -860.151868713     A.U. after   12 cycles
 SCF Done:  E(RB3LYP) =  -860.151868399     A.U. after   11 cycles
 SCF Done:  E(RB3LYP) =  -860.151906961     A.U. after   10 cycles
 SCF Done:  E(RB3LYP) =  -860.151919647     A.U. after   10 cycles
 SCF Done:  E(RB3LYP) =  -860.151923891     A.U. after    9 cycles
 SCF Done:  E(RB3LYP) =  -860.151927720     A.U. after    9 cycles
 SCF Done:  E(RB3LYP) =  -860.151929582     A.U. after    9 cycles
 SCF Done:  E(RB3LYP) =  -860.151930108     A.U. after    8 cycles
 SCF Done:  E(RB3LYP) =  -860.151930170     A.U. after    7 cycles
 Optimization completed.
    -- Stationary point found.
 Normal termination of Gaussian 16 at Fri Dec 11 20:36:28 2020.

 --------------------------------------------------------------------
 #N Geom=AllCheck Guess=TCheck SCRF=Check GenChk RB3LYP/6-31G(d) Freq
 --------------------------------------------------------------------

 Structure from the checkpoint file:  "JID_8413.chk"
 ------------------------------
 CID_68099506_JID_8413_neutraal
 ------------------------------
 Charge =  0 Multiplicity = 1

 SCF Done:  E(RB3LYP) =  -860.151930170     A.U. after    1 cycles

  Exact polarizability: 189.116   3.204 197.236  -3.819  -0.369  84.529
 Approx polarizability: 281.592   3.682 290.587 -15.752   2.234 131.723

                      1                      2                      3
                      A                      A                      A
 Frequencies --     40.7533                58.9756                65.3704
 Red. masses --      5.7337                 4.3943                 3.7833
 Frc consts  --      0.0056                 0.0090                 0.0095
 IR Inten    --      2.2520                 2.1798                 4.8722

                      4                      5                      6
                      A                      A                      A
 Frequencies --     86.0286               113.7905               122.7562
 Red. masses --      3.5387                 3.1764                 1.2274
 Frc consts  --      0.0154                 0.0242                 0.0109
 IR Inten    --      0.2080                 0.2438                 0.3992

                      7                      8                      9
                      A                      A                      A
 Frequencies --    138.2552               148.0241               166.2958
 Red. masses --      2.3500                 1.3749                 3.6227
 Frc consts  --      0.0265                 0.0177                 0.0590
 IR Inten    --      0.3108                 0.7557                 3.4849

                     10                     11                     12
                      A                      A                      A
 Frequencies --    173.3965               187.7019               223.7481
 Red. masses --      2.7223                 3.0991                 3.4590
 Frc consts  --      0.0482                 0.0643                 0.1020
 IR Inten    --      1.4290                 4.0460                 2.8771

                     13                     14                     15
                      A                      A                      A
 Frequencies --    236.3004               271.1498               284.3963
 Red. masses --      1.9137                 1.8453                 3.2721
 Frc consts  --      0.0630                 0.0799                 0.1559
 IR Inten    --      2.8226                 4.3540                 2.1606

                     16                     17                     18
                      A                      A                      A
 Frequencies --    311.8956               320.9033               361.8856
 Red. masses --      5.4071                 3.8461                 3.1748
 Frc consts  --      0.3099                 0.2334                 0.2450
 IR Inten    --      0.2345                 9.8358                 9.6548

                     19                     20                     21
                      A                      A                      A
 Frequencies --    375.8483               382.4601               411.7105
 Red. masses --      3.9023                 4.8625                 6.1950
 Frc consts  --      0.3248                 0.4191                 0.6187
 IR Inten    --      9.8922                10.5277                 2.3901

                     22                     23                     24
                      A                      A                      A
 Frequencies --    464.6569               496.3478               512.4600
 Red. masses --      5.8044                 4.7134                 6.1494
 Frc consts  --      0.7384                 0.6842                 0.9515
 IR Inten    --      2.5147                 1.5007                 2.5014

                     25                     26                     27
                      A                      A                      A
 Frequencies --    556.5522               586.8637               636.5219
 Red. masses --      3.7734                 4.5026                 4.3846
 Frc consts  --      0.6887                 0.9137                 1.0467
 IR Inten    --      7.3518                 6.9464                 0.5474

                     28                     29                     30
                      A                      A                      A
 Frequencies --    667.4027               706.4544               751.6266
 Red. masses --      3.9358                 5.1774                 3.5028
 Frc consts  --      1.0329                 1.5224                 1.1659
 IR Inten    --      2.0652                 5.8970                19.6264

                     31                     32                     33
                      A                      A                      A
 Frequencies --    763.7745               781.6045               790.7837
 Red. masses --      6.1902                 7.0302                 5.8852
 Frc consts  --      2.1276                 2.5304                 2.1683
 IR Inten    --     11.4919                 3.0211                18.0778

                     34                     35                     36
                      A                      A                      A
 Frequencies --    837.3122               917.4807               923.3491
 Red. masses --      3.6694                 1.7231                 4.0281
 Frc consts  --      1.5157                 0.8546                 2.0234
 IR Inten    --      4.3298                25.7437                19.7590

                     37                     38                     39
                      A                      A                      A
 Frequencies --    940.1579               953.6910               986.3708
 Red. masses --      1.3958                 3.0217                 2.0999
 Frc consts  --      0.7269                 1.6193                 1.2037
 IR Inten    --      1.3860                 7.7658                 6.3519

                     40                     41                     42
                      A                      A                      A
 Frequencies --   1030.1189              1036.2036              1086.5649
 Red. masses --      5.7117                 3.0099                 2.1452
 Frc consts  --      3.5710                 1.9041                 1.4922
 IR Inten    --      4.9626                 9.4580                 5.5003

                     43                     44                     45
                      A                      A                      A
 Frequencies --   1090.2304              1118.6284              1153.9235
 Red. masses --      3.2534                 1.9153                 3.0710
 Frc consts  --      2.2783                 1.4121                 2.4093
 IR Inten    --    108.4249                81.2953               112.6196

                     46                     47                     48
                      A                      A                      A
 Frequencies --   1162.1704              1185.3971              1186.2837
 Red. masses --      1.3068                 1.2749                 1.2714
 Frc consts  --      1.0399                 1.0555                 1.0542
 IR Inten    --     11.7979                 0.8259                 0.8715

                     49                     50                     51
                      A                      A                      A
 Frequencies --   1213.3240              1217.9479              1225.9094
 Red. masses --      1.7997                 1.4489                 1.5018
 Frc consts  --      1.5610                 1.2663                 1.3298
 IR Inten    --      7.4344                 1.4084                40.6262

                     52                     53                     54
                      A                      A                      A
 Frequencies --   1233.9561              1258.6915              1267.4427
 Red. masses --      1.6731                 1.5405                 2.0403
 Frc consts  --      1.5010                 1.4380                 1.9311
 IR Inten    --     15.6223                24.8893               169.7810

                     55                     56                     57
                      A                      A                      A
 Frequencies --   1283.2746              1305.9369              1347.7426
 Red. masses --      2.5734                 3.1356                 3.6350
 Frc consts  --      2.4969                 3.1508                 3.8902
 IR Inten    --     81.0233                21.8334               268.8677

                     58                     59                     60
                      A                      A                      A
 Frequencies --   1366.6713              1384.7630              1398.7136
 Red. masses --      4.2770                 1.8408                 2.0204
 Frc consts  --      4.7067                 2.0798                 2.3288
 IR Inten    --    100.1904               201.4403                14.0002

                     61                     62                     63
                      A                      A                      A
 Frequencies --   1449.9547              1466.0825              1484.7362
 Red. masses --      1.4059                 2.1699                 1.7524
 Frc consts  --      1.7414                 2.7479                 2.2760
 IR Inten    --     54.5131                44.0250               138.5927

                     64                     65                     66
                      A                      A                      A
 Frequencies --   1491.1267              1493.0627              1498.6674
 Red. masses --      1.6099                 1.4016                 1.1415
 Frc consts  --      2.1090                 1.8409                 1.5106
 IR Inten    --     25.0585                41.1106                19.7200

                     67                     68                     69
                      A                      A                      A
 Frequencies --   1511.4630              1521.2796              1523.2559
 Red. masses --      1.0488                 1.0480                 1.8368
 Frc consts  --      1.4117                 1.4290                 2.5110
 IR Inten    --      5.6570                 6.4396                53.3835

                     70                     71                     72
                      A                      A                      A
 Frequencies --   1525.0173              1525.7740              1531.6455
 Red. masses --      1.0579                 1.1853                 1.0647
 Frc consts  --      1.4496                 1.6258                 1.4716
 IR Inten    --     11.8837                22.3942                 7.3251

                     73                     74                     75
                      A                      A                      A
 Frequencies --   1535.2476              1557.2040              1629.1602
 Red. masses --      1.0730                 1.2294                 7.6735
 Frc consts  --      1.4901                 1.7564                11.9997
 IR Inten    --     13.4124                43.9576                20.2012

                     76                     77                     78
                      A                      A                      A
 Frequencies --   1662.4068              1752.0405              1797.9990
 Red. masses --      6.3920                10.3663                11.6410
 Frc consts  --     10.4078                18.7483                22.1728
 IR Inten    --    119.2933               246.0866               230.4052

                     79                     80                     81
                      A                      A                      A
 Frequencies --   2994.9572              3026.3488              3032.3556
 Red. masses --      1.0725                 1.0486                 1.0343
 Frc consts  --      5.6679                 5.6583                 5.6037
 IR Inten    --     48.8028                73.3403                48.7191

                     82                     83                     84
                      A                      A                      A
 Frequencies --   3045.5392              3077.9657              3093.1139
 Red. masses --      1.0722                 1.0291                 1.0947
 Frc consts  --      5.8592                 5.7443                 6.1708
 IR Inten    --     19.1321                37.2623                 4.9777

                     85                     86                     87
                      A                      A                      A
 Frequencies --   3093.2607              3094.6765              3149.9781
 Red. masses --      1.1067                 1.0909                 1.0900
 Frc consts  --      6.2392                 6.1554                 6.3720
 IR Inten    --     38.7803                67.1225                10.3428

                     88                     89                     90
                      A                      A                      A
 Frequencies --   3153.9071              3164.4282              3183.2603
 Red. masses --      1.1075                 1.1006                 1.1076
 Frc consts  --      6.4910                 6.4933                 6.6124
 IR Inten    --     18.7317                27.3445                15.6055

                     91                     92                     93
                      A                      A                      A
 Frequencies --   3191.1919              3240.7308              3252.1620
 Red. masses --      1.0970                 1.0907                 1.0894
 Frc consts  --      6.5818                 6.7489                 6.7889
 IR Inten    --      1.4320                 2.2355                 6.2756

 - Thermochemistry -
 -------------------
 Temperature   298.150 Kelvin.  Pressure   1.00000 Atm.
 Atom     1 has atomic number  6 and mass  12.00000

 Molecular mass:   249.10011 amu.
 Principal axes and moments of inertia in atomic units:
                           1         2         3
     Eigenvalues --  3952.469354962.313068721.66591
           X            0.99918   0.04000   0.00583
           Y           -0.03998   0.99920  -0.00293
           Z           -0.00594   0.00269   0.99998
 This molecule is an asymmetric top.
 Rotational symmetry number  1.
 Warning -- assumption of classical behavior for rotation
           may cause significant error
 Rotational temperatures (Kelvin)      0.02191     0.01745     0.00993
 Rotational constants (GHZ):           0.45661     0.36369     0.20693
 Zero-point vibrational energy     706149.3 (Joules/Mol)
                                  168.77374 (Kcal/Mol)
 Warning -- explicit consideration of  26 degrees of freedom as
           vibrations may cause significant error
 Vibrational temperatures:     58.63    84.85    94.05   123.78   163.72
          (Kelvin)            176.62   198.92   212.97   239.26   249.48
                              270.06   321.92   339.98   390.12   409.18
                              448.75   461.71   520.67   540.76   550.27
                              592.36   668.54   714.13   737.32   800.75
                              844.37   915.81   960.24  1016.43  1081.42
                             1098.90  1124.55  1137.76  1204.71  1320.05
                             1328.49  1352.68  1372.15  1419.17  1482.11
                             1490.87  1563.32  1568.60  1609.46  1660.24
                             1672.10  1705.52  1706.80  1745.70  1752.36
                             1763.81  1775.39  1810.98  1823.57  1846.35
                             1878.95  1939.10  1966.34  1992.37  2012.44
                             2086.16  2109.37  2136.20  2145.40  2148.18
                             2156.25  2174.66  2188.78  2191.63  2194.16
                             2195.25  2203.70  2208.88  2240.47  2344.00
                             2391.83  2520.80  2586.92  4309.08  4354.24
                             4362.88  4381.85  4428.51  4450.30  4450.51
                             4452.55  4532.12  4537.77  4552.91  4580.00
                             4591.41  4662.69  4679.14

 Zero-point correction=                           0.268958 (Hartree/Particle)
 Thermal correction to Energy=                    0.286075
 Thermal correction to Enthalpy=                  0.287019
 Thermal correction to Gibbs Free Energy=         0.223786
 Sum of electronic and zero-point Energies=           -859.882972
 Sum of electronic and thermal Energies=              -859.865855
 Sum of electronic and thermal Enthalpies=            -859.864911
 Sum of electronic and thermal Free Energies=         -859.928144

                     E (Thermal)             CV                S
                      KCal/Mol        Cal/Mol-Kelvin    Cal/Mol-Kelvin
 Total                  179.515             63.195            133.085
 Electronic               0.000              0.000              0.000
 Translational            0.889              2.981             42.439
 Rotational               0.889              2.981             33.503
 Vibrational            177.737             57.234             57.144
 Vibration     1          0.594              1.981              5.222
 Vibration     2          0.596              1.974              4.491
 Vibration     3          0.597              1.971              4.288
 Vibration     4          0.601              1.959              3.748
 Vibration     5          0.607              1.938              3.203
 Vibration     6          0.610              1.930              3.057
 Vibration     7          0.614              1.915              2.828
 Vibration     8          0.617              1.905              2.697
 Vibration     9          0.624              1.884              2.477
 Vibration    10          0.627              1.875              2.398
 Vibration    11          0.632              1.857              2.250
 Vibration    12          0.649              1.805              1.929
 Vibration    13          0.655              1.785              1.831
 Vibration    14          0.675              1.726              1.589
 Vibration    15          0.683              1.703              1.507
 Vibration    16          0.700              1.651              1.352
 Vibration    17          0.706              1.634              1.305
 Vibration    18          0.736              1.551              1.114
 Vibration    19          0.747              1.522              1.056
 Vibration    20          0.752              1.508              1.029
 Vibration    21          0.776              1.445              0.921
 Vibration    22          0.822              1.328              0.753
 Vibration    23          0.852              1.258              0.667
 Vibration    24          0.868              1.222              0.628
 Vibration    25          0.912              1.125              0.531
 Vibration    26          0.944              1.060              0.473

 Optimization completed.
    -- Stationary point found.
 Normal termination of Gaussian 16 at Fri Dec 11 20:48:01 2020.

 ----------------------------------------------------------------------
 # B3LYP/6-311++G(d,p) empiricaldispersion=gd3bj scf=xqc pop=npa geom=c
 heck
 ----------------------------------------------------------------------

 --------------------------------------
 CID_68099506_JID_8413_Energie_neutraal
 --------------------------------------
 Structure from the checkpoint file:  "JID_8413.chk"
 Charge =  0 Multiplicity = 1

 SCF Done:  E(RB3LYP) =  -860.389629630     A.U. after   16 cycles
 Normal termination of Gaussian 16 at Fri Dec 11 20:53:06 2020.

 ----------------------------------------------------------------------
 # B3LYP/6-311++G(d,p) empiricaldispersion=gd3bj scf=xqc pop=npa geom=c
 heck
 ----------------------------------------------------------------------

 ------------------------------------
 CID_68099506_JID_8413_Energie_kation
 ------------------------------------
 Structure from the checkpoint file:  "JID_8413.chk"
 Charge =  1 Multiplicity = 2

 SCF Done:  E(UB3LYP) =  -860.094413050     A.U. after   24 cycles
 Normal termination of Gaussian 16 at Fri Dec 11 21:03:28 2020.
 Gaussian 16:  ES64L-G16RevA.03 25-Dec-2016

 ----------------------------------------------------------------------
 # B3LYP/6-311++G(d,p) empiricaldispersion=gd3bj scf=xqc pop=npa geom=c
 heck
 ----------------------------------------------------------------------

 -----------------------------------
 CID_68099506_JID_8413_Energie_anion
 -----------------------------------
 Structure from the checkpoint file:  "JID_8413.chk"
 Charge = -1 Multiplicity = 2

                         Standard orientation:
 ---------------------------------------------------------------------
 Center     Atomic      Atomic             Coordinates (Angstroms)
 Number     Number       Type             X           Y           Z
 ---------------------------------------------------------------------
      1          6           0        3.511073   -2.751028    0.062483
      2          7           0        2.283316   -1.975227    0.020198
      3          6           0        1.095537   -2.555420    0.636688
      4          6           0       -0.183578   -2.002138    0.019855
      5          6           0       -0.170938   -0.490885    0.013522
      6          6           0        1.077286    0.145039   -0.061912
      7          6           0        2.362767   -0.622491   -0.187701
      8          8           0        3.416288   -0.055594   -0.476569
      9          6           0        1.200571    1.538725   -0.060616
     10          6           0        0.062361    2.334733    0.038117
     11          6           0       -1.191393    1.722127    0.106351
     12          6           0       -1.318897    0.331938    0.071534
     13          6           0       -2.732388   -0.154375    0.092856
     14          8           0       -3.678173    0.516654    0.455170
     15          8           0       -2.876740   -1.413934   -0.381182
     16          6           0       -4.228269   -1.899209   -0.408521
     17          8           0        0.065631    3.695829    0.066283
     18          6           0        1.323381    4.351166   -0.011031
     19          1           0        4.289356   -2.189563   -0.452292
     20          1           0        3.832084   -2.935488    1.097955
     21          1           0        3.356307   -3.716243   -0.431745
     22          1           0        1.137125   -3.639170    0.489316
     23          1           0        1.101968   -2.374347    1.724013
     24          1           0       -0.288303   -2.376551   -1.007437
     25          1           0       -1.039490   -2.386361    0.574901
     26          1           0        2.199123    1.947524   -0.144050
     27          1           0       -2.082275    2.334450    0.179562
     28          1           0       -4.657655   -1.897739    0.596444
     29          1           0       -4.844673   -1.272134   -1.057365
     30          1           0       -4.164084   -2.914370   -0.800750
     31          1           0        1.970749    4.076203    0.831458
     32          1           0        1.839589    4.118245   -0.951001
     33          1           0        1.105846    5.419402    0.030247
 ---------------------------------------------------------------------

 SCF Done:  E(UB3LYP) =  -860.396840668     A.U. after   33 cycles
 SCF Done:  E(UB3LYP) =  -860.396840668     a.u. after    1 cycles

 The electronic state is 2-A.
 Alpha  occ. eigenvalues --  -19.03208 -19.02330 -18.95477 -18.94395 -14.21112
 Alpha  occ. eigenvalues --  -10.14025 -10.12399 -10.11481 -10.10976 -10.09339
 Alpha  occ. eigenvalues --  -10.08847 -10.08218 -10.05282 -10.04718 -10.02684
 Alpha  occ. eigenvalues --  -10.02665 -10.00618 -10.00162  -0.96991  -0.93889
 Alpha  occ. eigenvalues --   -0.89957  -0.87376  -0.81311  -0.71764  -0.66213
 Alpha  occ. eigenvalues --   -0.63354  -0.62059  -0.59967  -0.58361  -0.57388
 Alpha  occ. eigenvalues --   -0.51516  -0.48824  -0.46948  -0.44011  -0.41408
 Alpha  occ. eigenvalues --   -0.40577  -0.37722  -0.36711  -0.36216  -0.35661
 Alpha  occ. eigenvalues --   -0.35069  -0.34983  -0.33578  -0.33094  -0.32412
 Alpha  occ. eigenvalues --   -0.30546  -0.29871  -0.28578  -0.28146  -0.27673
 Alpha  occ. eigenvalues --   -0.27309  -0.26359  -0.25887  -0.25199  -0.24013
 Alpha  occ. eigenvalues --   -0.23506  -0.22213  -0.21162  -0.19313  -0.18297
 Alpha  occ. eigenvalues --   -0.17499  -0.14092  -0.12576  -0.11736  -0.11285
 Alpha  occ. eigenvalues --   -0.08613   0.04824
 Alpha virt. eigenvalues --    0.07092   0.07870   0.08375   0.09437   0.09741
 Alpha virt. eigenvalues --    0.10838   0.11259   0.11478   0.11619   0.12012
 Alpha virt. eigenvalues --    0.12597   0.13123   0.13251   0.13545   0.14152

  Beta  occ. eigenvalues --  -19.03128 -19.02348 -18.95291 -18.94310 -14.21063
  Beta  occ. eigenvalues --  -10.13821 -10.12288 -10.11484 -10.10972 -10.09334
  Beta  occ. eigenvalues --  -10.08845 -10.08355 -10.05279 -10.04770 -10.02599
  Beta  occ. eigenvalues --  -10.02571 -10.00218  -9.99704  -0.96757  -0.93926
  Beta  occ. eigenvalues --   -0.89781  -0.87067  -0.81200  -0.71478  -0.66046
  Beta  occ. eigenvalues --   -0.62983  -0.61907  -0.59853  -0.58043  -0.57203
  Beta  occ. eigenvalues --   -0.51394  -0.48162  -0.46707  -0.43867  -0.41278
  Beta  occ. eigenvalues --   -0.40495  -0.37630  -0.36563  -0.35954  -0.35551
  Beta  occ. eigenvalues --   -0.34992  -0.34870  -0.33423  -0.32863  -0.32338
  Beta  occ. eigenvalues --   -0.30420  -0.29698  -0.28487  -0.27956  -0.27221
  Beta  occ. eigenvalues --   -0.27155  -0.25939  -0.25336  -0.25056  -0.23875
  Beta  occ. eigenvalues --   -0.23161  -0.22136  -0.21037  -0.19120  -0.17777
  Beta  occ. eigenvalues --   -0.16788  -0.13849  -0.12285  -0.11488  -0.09327
  Beta  occ. eigenvalues --   -0.07643
  Beta virt. eigenvalues --    0.07031   0.07801   0.08342   0.09489   0.09669
  Beta virt. eigenvalues --    0.10720   0.11224   0.11384   0.11464   0.11745
  Beta virt. eigenvalues --    0.12005   0.12564   0.13088   0.13210   0.13505

 Mulliken charges and spin densities:
               1          2
     1  C   -0.136770  -0.112772
     2  N    0.056733   0.055710
     3  C   -0.621296  -0.222971
     4  C   -0.653498   0.181272
     5  C    0.456321  -0.083972
     6  C    0.475795   0.074842
     7  C    0.045778   0.056286
     8  O   -0.390925   0.035480
     9  C    0.224124   0.347286
    10  C   -1.015275  -0.132421
    11  C   -0.586536   0.376638
    12  C    0.421632   0.050352
    13  C   -0.155347   0.117593
    14  O   -0.329737   0.065668
    15  O   -0.094451   0.014797
    16  C   -0.231695  -0.001856
    17  O   -0.170772   0.001681
    18  C   -0.333217  -0.001799
    19  H    0.176944   0.004376
    20  H    0.035670   0.086986
    21  H    0.099820   0.022609
    22  H    0.076315   0.058029
    23  H    0.106570   0.050449
    24  H    0.188238   0.003521
    25  H    0.135850  -0.002009
    26  H    0.172722  -0.026514
    27  H    0.178841  -0.027995
    28  H    0.169346   0.005347
    29  H    0.161342   0.001721
    30  H    0.115333  -0.000049
    31  H    0.138480   0.000357
    32  H    0.140159   0.001462
    33  H    0.143508  -0.000106
 Sum of Mulliken charges =  -1.00000   1.00000

 Dipole moment (field-independent basis, Debye):
    X=              0.1039    Y=             -3.9887    Z=             -0.1125  Tot=              3.9917
 Quadrupole moment (field-independent basis, Debye-Ang):
   XX=           -153.0148   YY=           -118.1878   ZZ=           -115.3982
   XY=             11.5747   XZ=              6.4184   YZ=             -0.6724

 Summary of Natural Population Analysis:

                                       Natural Population
                Natural  -----------------------------------------------
    Atom  No    Charge         Core      Valence    Rydberg      Total
 -----------------------------------------------------------------------
      C    1   -0.17751      0.99966     2.17129    0.00657     3.17751
      N    2   -0.25659      0.99964     2.74596    0.01099     3.75659
      C    3   -0.08028      0.99964     2.06892    0.01172     3.08028
      C    4   -0.17572      0.99960     2.17063    0.00549     3.17572
      C    5   -0.01232      0.99949     2.00334    0.00949     3.01232
      C    6   -0.06447      0.99944     2.05546    0.00957     3.06447
      C    7    0.35768      0.99959     1.61966    0.02307     2.64232
      O    8   -0.33530      0.99988     3.32985    0.00557     4.33530
      C    9   -0.04565      0.99949     2.03779    0.00836     3.04565
      C   10    0.12723      0.99937     1.86141    0.01199     2.87277
      C   11    0.00271      0.99951     1.98924    0.00855     2.99729
      C   12   -0.06449      0.99943     2.05525    0.00982     3.06449
      C   13    0.42840      0.99964     1.54834    0.02361     2.57160
      O   14   -0.31029      0.99987     3.30447    0.00594     4.31029
      O   15   -0.28195      0.99986     3.27268    0.00941     4.28195
      C   16   -0.10578      0.99961     2.09765    0.00852     3.10578
      O   17   -0.28045      0.99985     3.26995    0.01065     4.28045
      C   18   -0.10376      0.99963     2.09498    0.00915     3.10376
      H   19    0.11362      0.00000     0.38486    0.00152     0.38638
      H   20    0.08357      0.00000     0.41431    0.00212     0.41643
      H   21    0.08556      0.00000     0.41310    0.00134     0.41444
      H   22    0.08819      0.00000     0.40918    0.00263     0.41181
      H   23    0.08401      0.00000     0.41308    0.00291     0.41599
      H   24    0.09665      0.00000     0.40135    0.00200     0.40335
      H   25    0.10564      0.00000     0.39257    0.00179     0.39436
      H   26    0.10731      0.00000     0.39195    0.00074     0.39269
      H   27    0.10397      0.00000     0.39489    0.00114     0.39603
      H   28    0.08739      0.00000     0.41138    0.00123     0.41261
      H   29    0.08819      0.00000     0.41062    0.00119     0.41181
      H   30    0.08225      0.00000     0.41692    0.00083     0.41775
      H   31    0.08341      0.00000     0.41559    0.00100     0.41659
      H   32    0.08388      0.00000     0.41512    0.00101     0.41612
      H   33    0.08517      0.00000     0.41398    0.00085     0.41483
 =======================================================================
   * Total *    0.00027     17.99322    47.79576    0.21076    65.99973

 Normal termination of Gaussian 16 at Fri Dec 11 21:17:32 2020.
