 Gaussian 16, Revision A.03,

 -----------------------------------------------------------
 # opt freq B3LYP/6-31G(d) empiricaldispersion=gd3bj scf=xqc
 -----------------------------------------------------------

 -------------------------------
 CID_104603975_JID_7209_neutraal
 -------------------------------
 Symbolic Z-matrix:
 Charge =  0 Multiplicity = 1

 SCF Done:  E(RB3LYP) =  -1158.34097956     A.U. after   14 cycles
 SCF Done:  E(RB3LYP) =  -1158.34782604     A.U. after   13 cycles
 SCF Done:  E(RB3LYP) =  -1158.34023484     A.U. after   13 cycles
 SCF Done:  E(RB3LYP) =  -1158.34796440     A.U. after   13 cycles
 SCF Done:  E(RB3LYP) =  -1158.34944766     A.U. after   13 cycles
 SCF Done:  E(RB3LYP) =  -1158.34904590     A.U. after   13 cycles
 SCF Done:  E(RB3LYP) =  -1158.35082961     A.U. after   12 cycles
 SCF Done:  E(RB3LYP) =  -1158.35205814     A.U. after   14 cycles
 SCF Done:  E(RB3LYP) =  -1158.35173525     A.U. after   15 cycles
 SCF Done:  E(RB3LYP) =  -1158.35274712     A.U. after   12 cycles
 SCF Done:  E(RB3LYP) =  -1158.35363035     A.U. after   11 cycles
 SCF Done:  E(RB3LYP) =  -1158.35363251     A.U. after    9 cycles
 SCF Done:  E(RB3LYP) =  -1158.35363306     A.U. after    9 cycles
 SCF Done:  E(RB3LYP) =  -1158.35363320     A.U. after    9 cycles
 SCF Done:  E(RB3LYP) =  -1158.35363321     A.U. after    6 cycles
 Optimization completed.
    -- Stationary point found.
 Normal termination of Gaussian 16 at Sun Dec 13 20:37:54 2020.

 --------------------------------------------------------------------
 #N Geom=AllCheck Guess=TCheck SCRF=Check GenChk RB3LYP/6-31G(d) Freq
 --------------------------------------------------------------------

 Structure from the checkpoint file:  "JID_7209.chk"
 -------------------------------
 CID_104603975_JID_7209_neutraal
 -------------------------------
 Charge =  0 Multiplicity = 1

 SCF Done:  E(RB3LYP) =  -1158.35363321     A.U. after    1 cycles

  Exact polarizability: 181.933  -5.057 144.533  10.661   1.573 115.749
 Approx polarizability: 242.112  -0.756 226.025  18.980   4.603 190.246

                      1                      2                      3
                      A                      A                      A
 Frequencies --     15.2422                29.9117                40.1982
 Red. masses --      5.3261                 4.4679                 3.9118
 Frc consts  --      0.0007                 0.0024                 0.0037
 IR Inten    --      0.6159                 0.7967                 0.8078

                      4                      5                      6
                      A                      A                      A
 Frequencies --     58.1813                68.8318                88.8115
 Red. masses --      6.1168                 4.3214                 1.0797
 Frc consts  --      0.0122                 0.0121                 0.0050
 IR Inten    --      1.0426                 1.5890                 0.0256

                      7                      8                      9
                      A                      A                      A
 Frequencies --    142.9786               153.2388               158.4267
 Red. masses --      4.2974                 3.0349                 2.4444
 Frc consts  --      0.0518                 0.0420                 0.0361
 IR Inten    --      1.6781                 0.7742                 2.5115

                     10                     11                     12
                      A                      A                      A
 Frequencies --    173.6016               196.9768               204.5208
 Red. masses --      3.8015                 4.3492                 3.9956
 Frc consts  --      0.0675                 0.0994                 0.0985
 IR Inten    --      1.6914                 0.9504                 0.6792

                     13                     14                     15
                      A                      A                      A
 Frequencies --    212.5112               228.1698               248.1920
 Red. masses --      2.5520                 1.9009                 5.5208
 Frc consts  --      0.0679                 0.0583                 0.2004
 IR Inten    --      1.4114                 1.0306                 0.9507

                     16                     17                     18
                      A                      A                      A
 Frequencies --    289.7639               306.4836               345.2403
 Red. masses --      3.3048                 3.0466                 2.9817
 Frc consts  --      0.1635                 0.1686                 0.2094
 IR Inten    --      2.2116                 1.7201                 0.4861

                     19                     20                     21
                      A                      A                      A
 Frequencies --    373.9750               405.6326               455.9208
 Red. masses --      5.3395                 3.0680                 4.2404
 Frc consts  --      0.4400                 0.2974                 0.5193
 IR Inten    --      4.9074                 1.6831                 3.8371

                     22                     23                     24
                      A                      A                      A
 Frequencies --    468.9066               493.0932               507.0627
 Red. masses --      3.1369                 8.1695                 3.9706
 Frc consts  --      0.4064                 1.1703                 0.6015
 IR Inten    --      3.4422                 2.4275                 1.2065

                     25                     26                     27
                      A                      A                      A
 Frequencies --    605.1466               643.6221               658.6772
 Red. masses --      2.3228                 1.5560                 5.9140
 Frc consts  --      0.5012                 0.3798                 1.5117
 IR Inten    --     58.1642                61.2189                 2.6036

                     28                     29                     30
                      A                      A                      A
 Frequencies --    676.7150               707.7092               724.3796
 Red. masses --      2.5553                 6.0879                 4.0135
 Frc consts  --      0.6895                 1.7965                 1.2408
 IR Inten    --     69.7790                 5.2918                33.1678

                     31                     32                     33
                      A                      A                      A
 Frequencies --    730.6180               750.8205               782.1903
 Red. masses --      3.0756                 2.5793                 2.3362
 Frc consts  --      0.9673                 0.8567                 0.8422
 IR Inten    --      4.1128               100.0526                15.5003

                     34                     35                     36
                      A                      A                      A
 Frequencies --    802.5593               839.8609               851.3866
 Red. masses --      1.3577                 1.7621                 1.4344
 Frc consts  --      0.5152                 0.7323                 0.6126
 IR Inten    --     13.9772                20.9295                10.1092

                     37                     38                     39
                      A                      A                      A
 Frequencies --    886.0270               929.7856               958.0255
 Red. masses --      1.3663                 2.5512                 4.3576
 Frc consts  --      0.6320                 1.2995                 2.3564
 IR Inten    --      6.9054                 8.6273                 8.8023

                     40                     41                     42
                      A                      A                      A
 Frequencies --    988.0830               990.9246              1022.9862
 Red. masses --      2.0888                 7.1679                 2.6380
 Frc consts  --      1.2015                 4.1469                 1.6265
 IR Inten    --      0.8505                 3.0297                26.1683

                     43                     44                     45
                      A                      A                      A
 Frequencies --   1052.0193              1068.4122              1075.2707
 Red. masses --      2.4994                 2.0606                 1.9190
 Frc consts  --      1.6298                 1.3858                 1.3072
 IR Inten    --     14.5309                12.3495                32.1946

                     46                     47                     48
                      A                      A                      A
 Frequencies --   1088.3396              1144.3222              1149.5038
 Red. masses --      1.3729                 2.0242                 1.6375
 Frc consts  --      0.9581                 1.5617                 1.2748
 IR Inten    --      0.6311               115.3205                30.9650

                     49                     50                     51
                      A                      A                      A
 Frequencies --   1150.7334              1154.1464              1160.3642
 Red. masses --      1.4414                 1.6857                 1.4682
 Frc consts  --      1.1246                 1.3230                 1.1647
 IR Inten    --     43.3128                22.0119                11.0374

                     52                     53                     54
                      A                      A                      A
 Frequencies --   1180.3025              1192.5773              1213.0934
 Red. masses --      1.4619                 2.2140                 1.4109
 Frc consts  --      1.1999                 1.8552                 1.2233
 IR Inten    --     29.1637                89.5232                 1.3858

                     55                     56                     57
                      A                      A                      A
 Frequencies --   1215.1153              1248.7564              1264.4008
 Red. masses --      2.0334                 1.9214                 1.8976
 Frc consts  --      1.7689                 1.7653                 1.7874
 IR Inten    --     17.1990                 4.3124                 6.0861

                     58                     59                     60
                      A                      A                      A
 Frequencies --   1277.5788              1305.5594              1315.4990
 Red. masses --      1.4539                 4.1915                 3.2509
 Frc consts  --      1.3981                 4.2093                 3.3146
 IR Inten    --      6.5931                24.2136                26.3273

                     61                     62                     63
                      A                      A                      A
 Frequencies --   1323.4828              1355.8710              1405.8674
 Red. masses --      1.4744                 2.1683                 7.4212
 Frc consts  --      1.5216                 2.3486                 8.6419
 IR Inten    --      7.7164                20.1189                68.6402

                     64                     65                     66
                      A                      A                      A
 Frequencies --   1414.7163              1448.6331              1480.7764
 Red. masses --      1.7504                 2.5673                 1.1346
 Frc consts  --      2.0640                 3.1742                 1.4658
 IR Inten    --      9.4209                37.1007                 4.1615

                     67                     68                     69
                      A                      A                      A
 Frequencies --   1484.8831              1492.4175              1505.2697
 Red. masses --      1.5144                 1.1358                 1.0875
 Frc consts  --      1.9674                 1.4905                 1.4518
 IR Inten    --     14.7218                 9.4625                 4.7076

                     70                     71                     72
                      A                      A                      A
 Frequencies --   1513.4115              1518.3857              1530.5417
 Red. masses --      1.0920                 1.2158                 2.3434
 Frc consts  --      1.4737                 1.6515                 3.2344
 IR Inten    --      7.1926                19.0145                31.5561

                     73                     74                     75
                      A                      A                      A
 Frequencies --   1537.9312              1540.3948              1544.5888
 Red. masses --      1.0963                 1.3605                 1.3264
 Frc consts  --      1.5278                 1.9020                 1.8645
 IR Inten    --     13.6271                14.6940                 1.2037

                     76                     77                     78
                      A                      A                      A
 Frequencies --   1559.5170              1846.1284              3030.1741
 Red. masses --      1.0623                 9.8766                 1.0456
 Frc consts  --      1.5223                19.8327                 5.6563
 IR Inten    --      7.9260               219.7611                33.3055

                     79                     80                     81
                      A                      A                      A
 Frequencies --   3070.1051              3106.3503              3124.3392
 Red. masses --      1.0360                 1.0902                 1.0588
 Frc consts  --      5.7534                 6.1980                 6.0894
 IR Inten    --     27.8928                26.7912                 7.1753

                     82                     83                     84
                      A                      A                      A
 Frequencies --   3139.8942              3140.1212              3145.1880
 Red. masses --      1.1026                 1.1024                 1.0850
 Frc consts  --      6.4047                 6.4046                 6.3235
 IR Inten    --     14.0708                12.9281                15.6637

                     85                     86                     87
                      A                      A                      A
 Frequencies --   3155.2878              3162.2794              3183.5829
 Red. masses --      1.0541                 1.0599                 1.1040
 Frc consts  --      6.1830                 6.2447                 6.5926
 IR Inten    --     13.5903                13.2645                 3.4438

                     88                     89                     90
                      A                      A                      A
 Frequencies --   3184.3467              3231.6212              3247.8368
 Red. masses --      1.1080                 1.1181                 1.1154
 Frc consts  --      6.6194                 6.8795                 6.9321
 IR Inten    --      1.0126                 3.3442                 9.5628

                     91                     92                     93
                      A                      A                      A
 Frequencies --   3278.3761              3520.3287              3677.3689
 Red. masses --      1.0971                 1.0739                 1.0640
 Frc consts  --      6.9473                 7.8409                 8.4772
 IR Inten    --      8.0825                 0.3211                64.2977

 - Thermochemistry -
 -------------------
 Temperature   298.150 Kelvin.  Pressure   1.00000 Atm.
 Atom     1 has atomic number  6 and mass  12.00000

 Molecular mass:   256.09940 amu.
 Principal axes and moments of inertia in atomic units:
                           1         2         3
     Eigenvalues --  2160.443317017.846657768.04285
           X            0.99997  -0.00504   0.00631
           Y            0.00496   0.99991   0.01235
           Z           -0.00637  -0.01232   0.99990
 This molecule is an asymmetric top.
 Rotational symmetry number  1.
 Warning -- assumption of classical behavior for rotation
           may cause significant error
 Rotational temperatures (Kelvin)      0.04009     0.01234     0.01115
 Rotational constants (GHZ):           0.83536     0.25716     0.23233
 Zero-point vibrational energy     708018.2 (Joules/Mol)
                                  169.22041 (Kcal/Mol)
 Warning -- explicit consideration of  25 degrees of freedom as
           vibrations may cause significant error
 Vibrational temperatures:     21.93    43.04    57.84    83.71    99.03
          (Kelvin)            127.78   205.71   220.48   227.94   249.77
                              283.41   294.26   305.76   328.29   357.09
                              416.91   440.96   496.72   538.07   583.61
                              655.97   674.65   709.45   729.55   870.67
                              926.03   947.69   973.64  1018.24  1042.22
                             1051.20  1080.26  1125.40  1154.70  1208.37
                             1224.96  1274.80  1337.75  1378.39  1421.63
                             1425.72  1471.85  1513.62  1537.21  1547.07
                             1565.88  1646.42  1653.88  1655.65  1660.56
                             1669.51  1698.19  1715.85  1745.37  1748.28
                             1796.68  1819.19  1838.15  1878.41  1892.71
                             1904.20  1950.80  2022.73  2035.46  2084.26
                             2130.51  2136.42  2147.26  2165.75  2177.46
                             2184.62  2202.11  2212.74  2216.28  2222.32
                             2243.80  2656.17  4359.74  4417.20  4469.35
                             4495.23  4517.61  4517.93  4525.22  4539.76
                             4549.81  4580.47  4581.56  4649.58  4672.91
                             4716.85  5064.97  5290.91

 Zero-point correction=                           0.269670 (Hartree/Particle)
 Thermal correction to Energy=                    0.287455
 Thermal correction to Enthalpy=                  0.288399
 Thermal correction to Gibbs Free Energy=         0.221607
 Sum of electronic and zero-point Energies=          -1158.083963
 Sum of electronic and thermal Energies=             -1158.066179
 Sum of electronic and thermal Enthalpies=           -1158.065234
 Sum of electronic and thermal Free Energies=        -1158.132026

                     E (Thermal)             CV                S
                      KCal/Mol        Cal/Mol-Kelvin    Cal/Mol-Kelvin
 Total                  180.380             64.787            140.574
 Electronic               0.000              0.000              0.000
 Translational            0.889              2.981             42.521
 Rotational               0.889              2.981             33.132
 Vibrational            178.603             58.826             64.921
 Vibration     1          0.593              1.986              7.174
 Vibration     2          0.594              1.984              5.835
 Vibration     3          0.594              1.981              5.249
 Vibration     4          0.596              1.974              4.518
 Vibration     5          0.598              1.969              4.186
 Vibration     6          0.602              1.957              3.686
 Vibration     7          0.616              1.910              2.764
 Vibration     8          0.619              1.899              2.632
 Vibration     9          0.621              1.893              2.568
 Vibration    10          0.627              1.875              2.396
 Vibration    11          0.636              1.844              2.161
 Vibration    12          0.640              1.833              2.092
 Vibration    13          0.644              1.822              2.022
 Vibration    14          0.651              1.798              1.893
 Vibration    15          0.662              1.766              1.743
 Vibration    16          0.686              1.693              1.475
 Vibration    17          0.697              1.661              1.381
 Vibration    18          0.724              1.585              1.188
 Vibration    19          0.745              1.526              1.063
 Vibration    20          0.771              1.458              0.942
 Vibration    21          0.814              1.348              0.778
 Vibration    22          0.826              1.319              0.741
 Vibration    23          0.849              1.265              0.676
 Vibration    24          0.862              1.234              0.641
 Vibration    25          0.964              1.021              0.441

 Optimization completed.
    -- Stationary point found.
 Normal termination of Gaussian 16 at Sun Dec 13 20:51:06 2020.

 ----------------------------------------------------------------------
 # B3LYP/6-311++G(d,p) empiricaldispersion=gd3bj scf=xqc pop=npa geom=c
 heck
 ----------------------------------------------------------------------

 ---------------------------------------
 CID_104603975_JID_7209_Energie_neutraal
 ---------------------------------------
 Structure from the checkpoint file:  "JID_7209.chk"
 Charge =  0 Multiplicity = 1

 SCF Done:  E(RB3LYP) =  -1158.60214354     A.U. after   17 cycles
 Normal termination of Gaussian 16 at Sun Dec 13 20:58:21 2020.

 ----------------------------------------------------------------------
 # B3LYP/6-311++G(d,p) empiricaldispersion=gd3bj scf=xqc pop=npa geom=c
 heck
 ----------------------------------------------------------------------

 -------------------------------------
 CID_104603975_JID_7209_Energie_kation
 -------------------------------------
 Structure from the checkpoint file:  "JID_7209.chk"
 Charge =  1 Multiplicity = 2

 SCF Done:  E(UB3LYP) =  -1158.30222807     A.U. after   27 cycles
 Normal termination of Gaussian 16 at Sun Dec 13 21:15:01 2020.
 Gaussian 16:  ES64L-G16RevA.03 25-Dec-2016

 ----------------------------------------------------------------------
 # B3LYP/6-311++G(d,p) empiricaldispersion=gd3bj scf=xqc pop=npa geom=c
 heck
 ----------------------------------------------------------------------

 ------------------------------------
 CID_104603975_JID_7209_Energie_anion
 ------------------------------------
 Structure from the checkpoint file:  "JID_7209.chk"
 Charge = -1 Multiplicity = 2

                         Standard orientation:
 ---------------------------------------------------------------------
 Center     Atomic      Atomic             Coordinates (Angstroms)
 Number     Number       Type             X           Y           Z
 ---------------------------------------------------------------------
      1          6           0        0.254907    1.739360   -1.516422
      2          7           0        0.909870    0.432975   -1.428304
      3          6           0        1.478342    0.056752   -0.142641
      4          6           0        0.459455   -0.013081    1.038381
      5         16           0       -0.914400   -1.196802    0.722922
      6          6           0       -2.241302   -0.075884    0.433873
      7          7           0       -2.322298    1.197305    0.801665
      8          6           0       -3.560663    1.558653    0.359386
      9          7           0       -4.250150    0.603366   -0.241828
     10          7           0       -3.380277   -0.450414   -0.200518
     11          6           0       -3.756744   -1.744561   -0.732781
     12          6           0        2.125161   -1.325150   -0.319964
     13          6           0        3.465689   -1.514322   -0.968243
     14          6           0        3.290444   -1.812938    0.503671
     15          6           0        2.572392    1.080031    0.213806
     16          8           0        3.242160    1.700361   -0.577218
     17          8           0        2.752456    1.203523    1.555168
     18          1           0        1.010845    2.524512   -1.431311
     19          1           0       -0.531553    1.918378   -0.769252
     20          1           0       -0.194051    1.824102   -2.510685
     21          1           0        0.268431   -0.303074   -1.711502
     22          1           0        0.953835   -0.359310    1.945271
     23          1           0       -0.009663    0.949660    1.246234
     24          1           0       -3.959862    2.555544    0.485725
     25          1           0       -4.478009   -1.579370   -1.533386
     26          1           0       -2.868032   -2.242478   -1.128652
     27          1           0       -4.208643   -2.372639    0.041937
     28          1           0        1.372075   -2.072837   -0.563656
     29          1           0        3.581357   -2.346547   -1.656276
     30          1           0        4.015524   -0.622241   -1.249083
     31          1           0        3.736790   -1.130816    1.220479
     32          1           0        3.280990   -2.849432    0.828766
     33          1           0        3.477345    1.848533    1.663550
 ---------------------------------------------------------------------

 SCF Done:  E(UB3LYP) =  -1158.59052065     A.U. after   33 cycles
 SCF Done:  E(UB3LYP) =  -1158.59153225     a.u. after    8 cycles

 The electronic state is 2-A.
 Alpha  occ. eigenvalues --  -88.78237 -19.08718 -19.03409 -14.31731 -14.25555
 Alpha  occ. eigenvalues --  -14.22436 -14.21273 -10.22375 -10.18228 -10.14870
 Alpha  occ. eigenvalues --  -10.13942 -10.12563 -10.11916 -10.09850 -10.09277
 Alpha  occ. eigenvalues --  -10.08615 -10.08292  -7.86864  -5.83268  -5.82837
 Alpha  occ. eigenvalues --   -5.82258  -1.02974  -0.99820  -0.93983  -0.83530
 Alpha  occ. eigenvalues --   -0.82610  -0.77530  -0.77281  -0.71264  -0.66306
 Alpha  occ. eigenvalues --   -0.63599  -0.58873  -0.56878  -0.54096  -0.52710
 Alpha  occ. eigenvalues --   -0.51546  -0.49601  -0.48447  -0.43712  -0.42915
 Alpha  occ. eigenvalues --   -0.41540  -0.40879  -0.40624  -0.38670  -0.37288
 Alpha  occ. eigenvalues --   -0.36639  -0.35878  -0.35171  -0.34358  -0.33320
 Alpha  occ. eigenvalues --   -0.32781  -0.32699  -0.32086  -0.30894  -0.28737
 Alpha  occ. eigenvalues --   -0.28238  -0.27342  -0.25577  -0.25240  -0.24058
 Alpha  occ. eigenvalues --   -0.22610  -0.21383  -0.21081  -0.20274  -0.20076
 Alpha  occ. eigenvalues --   -0.19714  -0.14837  -0.14310   0.03964
 Alpha virt. eigenvalues --    0.05135   0.06633   0.06845   0.07510   0.07777
 Alpha virt. eigenvalues --    0.08115   0.08753   0.09211   0.09586   0.09939
 Alpha virt. eigenvalues --    0.10316   0.10962   0.11225   0.11854   0.12093

  Beta  occ. eigenvalues --  -88.78230 -19.08665 -19.03392 -14.31726 -14.25547
  Beta  occ. eigenvalues --  -14.22434 -14.21266 -10.22364 -10.18225 -10.14866
  Beta  occ. eigenvalues --  -10.13941 -10.12499 -10.11905 -10.09841 -10.09271
  Beta  occ. eigenvalues --  -10.08596 -10.08284  -7.86855  -5.83262  -5.82831
  Beta  occ. eigenvalues --   -5.82252  -1.02905  -0.99809  -0.93923  -0.83514
  Beta  occ. eigenvalues --   -0.82598  -0.77514  -0.77266  -0.71240  -0.66269
  Beta  occ. eigenvalues --   -0.63540  -0.58845  -0.56828  -0.54075  -0.52673
  Beta  occ. eigenvalues --   -0.51506  -0.49545  -0.48384  -0.43673  -0.42884
  Beta  occ. eigenvalues --   -0.41507  -0.40843  -0.40589  -0.38636  -0.37256
  Beta  occ. eigenvalues --   -0.36609  -0.35857  -0.35120  -0.34329  -0.33287
  Beta  occ. eigenvalues --   -0.32736  -0.32653  -0.32066  -0.30869  -0.28711
  Beta  occ. eigenvalues --   -0.28221  -0.27320  -0.25554  -0.25216  -0.24007
  Beta  occ. eigenvalues --   -0.22587  -0.21363  -0.21063  -0.20252  -0.20060
  Beta  occ. eigenvalues --   -0.19667  -0.14821  -0.14299
  Beta virt. eigenvalues --    0.06391   0.06566   0.07012   0.07217   0.07761
  Beta virt. eigenvalues --    0.07934   0.08399   0.08780   0.09564   0.10005
  Beta virt. eigenvalues --    0.10238   0.10515   0.11269   0.11632   0.11972

 Mulliken charges and spin densities:
               1          2
     1  C   -0.150672  -0.202928
     2  N    0.058766  -0.003778
     3  C    1.900197  -1.379348
     4  C   -0.259585  -0.066884
     5  S    0.714436  -0.975920
     6  C   -1.338215   0.639737
     7  N   -0.049118  -0.023168
     8  C   -0.049779   0.103456
     9  N   -0.138859  -0.027305
    10  N    0.020749   0.244232
    11  C    1.569493  -1.852683
    12  C   -1.631972   1.216845
    13  C    0.252235  -0.533832
    14  C    0.373447  -0.852997
    15  C   -0.518297   0.036193
    16  O   -0.252437   0.042418
    17  O   -0.182168   0.074680
    18  H    0.158894   0.016115
    19  H    0.158298  -0.030392
    20  H    0.037677   0.110259
    21  H    0.185386   0.064043
    22  H    0.190399   0.144262
    23  H    0.280935   0.004795
    24  H    0.096367   0.069724
    25  H   -0.291709   0.458575
    26  H   -0.561091   0.736549
    27  H   -0.553475   0.758606
    28  H   -0.474404   0.729277
    29  H   -0.026734   0.170637
    30  H    0.164224   0.027426
    31  H   -0.038487   0.203950
    32  H   -0.188867   0.348719
    33  H   -0.455632   0.748739
 Sum of Mulliken charges =  -1.00000   1.00000

 Dipole moment (field-independent basis, Debye):
    X=              0.2399    Y=              3.6082    Z=              0.2647  Tot=              3.6259
 Quadrupole moment (field-independent basis, Debye-Ang):
   XX=           -197.0066   YY=           -160.7440   ZZ=           -146.2369
   XY=            -22.5108   XZ=            -10.2793   YZ=             -7.3781

 Summary of Natural Population Analysis:

                                       Natural Population
                Natural  -----------------------------------------------
    Atom  No    Charge         Core      Valence    Rydberg      Total
 -----------------------------------------------------------------------
      C    1   -0.18928      0.99965     2.18290    0.00673     3.18928
      N    2   -0.33479      0.99972     2.82373    0.01135     3.83479
      C    3    0.01715      0.99947     1.96613    0.01725     2.98285
      C    4   -0.25303      0.99953     2.24284    0.01066     3.25303
      S    5    0.13306      4.99952     2.84840    0.01902     7.86694
      C    6    0.11875      0.99953     1.86105    0.02067     2.88125
      N    7   -0.28489      0.99967     2.77534    0.00988     3.78489
      C    8    0.09157      0.99969     1.89030    0.01844     2.90843
      N    9   -0.15886      0.99973     2.64787    0.01125     3.65886
      N   10   -0.12418      0.99960     2.61057    0.01401     3.62418
      C   11   -0.17713      0.99964     2.16902    0.00848     3.17713
      C   12   -0.12065      0.99955     2.10672    0.01438     3.12065
      C   13   -0.19334      0.99961     2.18488    0.00885     3.19334
      C   14   -0.20018      0.99961     2.19220    0.00836     3.20018
      C   15    0.41369      0.99965     1.55887    0.02779     2.58631
      O   16   -0.29662      0.99987     3.29072    0.00604     4.29662
      O   17   -0.34583      0.99988     3.33851    0.00744     4.34583
      H   18    0.09713      0.00000     0.40189    0.00098     0.40287
      H   19    0.09007      0.00000     0.40810    0.00184     0.40993
      H   20    0.09532      0.00000     0.40390    0.00077     0.40468
      H   21    0.17818      0.00000     0.31890    0.00292     0.32182
      H   22    0.11808      0.00000     0.38048    0.00144     0.38192
      H   23    0.12615      0.00000     0.37154    0.00230     0.37385
      H   24    0.09237      0.00000     0.40685    0.00079     0.40763
      H   25    0.11031      0.00000     0.38801    0.00169     0.38969
      H   26    0.10974      0.00000     0.38720    0.00307     0.39026
      H   27    0.10411      0.00000     0.39323    0.00266     0.39589
      H   28    0.11310      0.00000     0.38501    0.00188     0.38690
      H   29    0.10281      0.00000     0.39639    0.00080     0.39719
      H   30    0.11083      0.00000     0.38810    0.00107     0.38917
      H   31    0.10662      0.00000     0.39200    0.00138     0.39338
      H   32    0.10447      0.00000     0.39451    0.00102     0.39553
      H   33    0.24527      0.00000     0.24104    0.01370     0.25473
 =======================================================================
   * Total *   -0.00000     20.99391    46.74718    0.25891    68.00000

 Normal termination of Gaussian 16 at Sun Dec 13 23:27:25 2020.
