 Gaussian 16, Revision A.03,

 -----------------------------------------------------------
 # opt freq B3LYP/6-31G(d) empiricaldispersion=gd3bj scf=xqc
 -----------------------------------------------------------

 ------------------------------
 CID_79246545_JID_5523_neutraal
 ------------------------------
 Symbolic Z-matrix:
 Charge =  0 Multiplicity = 1

 SCF Done:  E(RB3LYP) =  -670.149506518     A.U. after   14 cycles
 SCF Done:  E(RB3LYP) =  -670.154604891     A.U. after   12 cycles
 SCF Done:  E(RB3LYP) =  -670.154454973     A.U. after   12 cycles
 SCF Done:  E(RB3LYP) =  -670.154190622     A.U. after   12 cycles
 SCF Done:  E(RB3LYP) =  -670.154150543     A.U. after   12 cycles
 SCF Done:  E(RB3LYP) =  -670.154847288     A.U. after    8 cycles
 SCF Done:  E(RB3LYP) =  -670.155123972     A.U. after   11 cycles
 SCF Done:  E(RB3LYP) =  -670.155201339     A.U. after   11 cycles
 SCF Done:  E(RB3LYP) =  -670.155217011     A.U. after   10 cycles
 SCF Done:  E(RB3LYP) =  -670.155221180     A.U. after    9 cycles
 SCF Done:  E(RB3LYP) =  -670.155892826     A.U. after    9 cycles
 SCF Done:  E(RB3LYP) =  -670.155895108     A.U. after    9 cycles
 SCF Done:  E(RB3LYP) =  -670.155894974     A.U. after    9 cycles
 SCF Done:  E(RB3LYP) =  -670.155895342     A.U. after    7 cycles
 SCF Done:  E(RB3LYP) =  -670.155895368     A.U. after    6 cycles
 Optimization completed.
    -- Stationary point found.
 Normal termination of Gaussian 16 at Thu Dec 10 16:52:48 2020.

 --------------------------------------------------------------------
 #N Geom=AllCheck Guess=TCheck SCRF=Check GenChk RB3LYP/6-31G(d) Freq
 --------------------------------------------------------------------

 Structure from the checkpoint file:  "JID_5523.chk"
 ------------------------------
 CID_79246545_JID_5523_neutraal
 ------------------------------
 Charge =  0 Multiplicity = 1

 SCF Done:  E(RB3LYP) =  -670.155895368     A.U. after    1 cycles

  Exact polarizability: 184.957  -9.842 136.655  -3.671  -9.241  98.915
 Approx polarizability: 249.888 -12.772 213.578 -12.708 -26.175 155.685

                      1                      2                      3
                      A                      A                      A
 Frequencies --     33.8948                42.9848                65.4679
 Red. masses --      3.9710                 2.5993                 3.7571
 Frc consts  --      0.0027                 0.0028                 0.0095
 IR Inten    --      0.9570                 0.1080                 0.4516

                      4                      5                      6
                      A                      A                      A
 Frequencies --     75.8573                96.3886               125.0860
 Red. masses --      1.5528                 1.9842                 2.6493
 Frc consts  --      0.0053                 0.0109                 0.0244
 IR Inten    --      0.4373                 0.3198                 0.4767

                      7                      8                      9
                      A                      A                      A
 Frequencies --    143.5274               163.8261               189.9799
 Red. masses --      4.1955                 1.0465                 2.5639
 Frc consts  --      0.0509                 0.0165                 0.0545
 IR Inten    --      2.5971                 0.1849                 0.4563

                     10                     11                     12
                      A                      A                      A
 Frequencies --    213.8188               226.6808               240.2113
 Red. masses --      1.4468                 1.2515                 3.7559
 Frc consts  --      0.0390                 0.0379                 0.1277
 IR Inten    --      0.7006                 0.6794                 1.1813

                     13                     14                     15
                      A                      A                      A
 Frequencies --    260.3058               304.5110               329.5836
 Red. masses --      2.4209                 2.6733                 2.9510
 Frc consts  --      0.0967                 0.1461                 0.1889
 IR Inten    --      4.8460                 5.1181                10.3356

                     16                     17                     18
                      A                      A                      A
 Frequencies --    346.3452               362.8297               396.1657
 Red. masses --      3.0963                 2.3679                 2.4744
 Frc consts  --      0.2188                 0.1837                 0.2288
 IR Inten    --      1.2546                 0.7672                 0.3772

                     19                     20                     21
                      A                      A                      A
 Frequencies --    426.5954               438.8631               491.3859
 Red. masses --      2.3094                 2.9938                 4.9428
 Frc consts  --      0.2476                 0.3397                 0.7032
 IR Inten    --      1.5513                 4.2880                 3.4375

                     22                     23                     24
                      A                      A                      A
 Frequencies --    503.7666               510.6911               606.3269
 Red. masses --      4.5139                 2.6870                 1.8304
 Frc consts  --      0.6749                 0.4129                 0.3965
 IR Inten    --      0.4474                13.5340                37.5289

                     25                     26                     27
                      A                      A                      A
 Frequencies --    613.8632               655.2756               695.2518
 Red. masses --      2.0106                 4.9440                 3.6354
 Frc consts  --      0.4464                 1.2508                 1.0353
 IR Inten    --     59.0101                 1.6381                20.3842

                     28                     29                     30
                      A                      A                      A
 Frequencies --    741.8697               775.4192               786.9313
 Red. masses --      5.7890                 4.3525                 2.5711
 Frc consts  --      1.8772                 1.5419                 0.9381
 IR Inten    --      3.4485                 5.2236                 4.0317

                     31                     32                     33
                      A                      A                      A
 Frequencies --    816.1811               882.0046               903.7181
 Red. masses --      3.5641                 2.5327                 1.3044
 Frc consts  --      1.3988                 1.1609                 0.6276
 IR Inten    --      9.6314                22.4614                 6.2114

                     34                     35                     36
                      A                      A                      A
 Frequencies --    927.5003               941.6135               957.0772
 Red. masses --      1.6701                 1.6028                 1.3459
 Frc consts  --      0.8465                 0.8373                 0.7264
 IR Inten    --     20.2995                 7.2036                11.0050

                     37                     38                     39
                      A                      A                      A
 Frequencies --    979.2883               984.5583              1002.7301
 Red. masses --      1.4593                 1.7846                 1.6297
 Frc consts  --      0.8245                 1.0192                 0.9655
 IR Inten    --      1.7155                 3.1443                13.4086

                     40                     41                     42
                      A                      A                      A
 Frequencies --   1036.0478              1044.2613              1071.0212
 Red. masses --      2.8185                 1.5033                 1.5508
 Frc consts  --      1.7825                 0.9659                 1.0481
 IR Inten    --      9.7497                 9.3422                11.8027

                     43                     44                     45
                      A                      A                      A
 Frequencies --   1074.4117              1093.2713              1110.2879
 Red. masses --      1.5594                 3.5220                 2.7933
 Frc consts  --      1.0606                 2.4802                 2.0288
 IR Inten    --      1.8944                69.5072                33.1970

                     46                     47                     48
                      A                      A                      A
 Frequencies --   1165.2205              1175.0677              1204.8823
 Red. masses --      2.1329                 2.3811                 1.7070
 Frc consts  --      1.7062                 1.9371                 1.4600
 IR Inten    --      9.2809                69.6714                16.4732

                     49                     50                     51
                      A                      A                      A
 Frequencies --   1222.5067              1252.4199              1260.5861
 Red. masses --      2.9008                 6.1681                 1.2622
 Frc consts  --      2.5543                 5.7003                 1.1817
 IR Inten    --     25.9596                25.4500                 8.1761

                     52                     53                     54
                      A                      A                      A
 Frequencies --   1305.5388              1310.1360              1321.9289
 Red. masses --      2.2810                 1.5210                 2.0741
 Frc consts  --      2.2906                 1.5382                 2.1354
 IR Inten    --     13.9873                 7.3113                17.6621

                     55                     56                     57
                      A                      A                      A
 Frequencies --   1331.9926              1375.0228              1398.3262
 Red. masses --      1.5180                 1.3958                 1.6048
 Frc consts  --      1.5868                 1.5549                 1.8488
 IR Inten    --     14.8176                 0.5455                29.0569

                     58                     59                     60
                      A                      A                      A
 Frequencies --   1419.7735              1423.4010              1429.8565
 Red. masses --      1.7509                 1.4621                 1.2675
 Frc consts  --      2.0794                 1.7453                 1.5268
 IR Inten    --     32.4511                34.4178                 1.5030

                     61                     62                     63
                      A                      A                      A
 Frequencies --   1436.4596              1443.0307              1450.0195
 Red. masses --      1.4026                 1.4289                 1.2466
 Frc consts  --      1.7052                 1.7531                 1.5442
 IR Inten    --     12.8986                24.1248                 2.7537

                     64                     65                     66
                      A                      A                      A
 Frequencies --   1458.7155              1472.9369              1504.1841
 Red. masses --      1.2269                 2.1561                 1.0688
 Frc consts  --      1.5382                 2.7560                 1.4248
 IR Inten    --     64.4483               194.6226                10.1072

                     67                     68                     69
                      A                      A                      A
 Frequencies --   1506.9415              1510.9906              1518.7486
 Red. masses --      1.0448                 1.1044                 1.0546
 Frc consts  --      1.3979                 1.4856                 1.4332
 IR Inten    --      7.6137                 0.9915                 1.3885

                     70                     71                     72
                      A                      A                      A
 Frequencies --   1520.7520              1522.9320              1528.8389
 Red. masses --      1.0460                 1.0793                 1.0685
 Frc consts  --      1.4253                 1.4749                 1.4714
 IR Inten    --      1.5135                29.7776                 7.3990

                     73                     74                     75
                      A                      A                      A
 Frequencies --   1540.3444              1545.3963              1550.2099
 Red. masses --      1.0762                 1.9230                 1.0596
 Frc consts  --      1.5045                 2.7059                 1.5003
 IR Inten    --      8.8294                17.0666                 8.2607

                     76                     77                     78
                      A                      A                      A
 Frequencies --   1596.8784              1635.3691              3013.4782
 Red. masses --      6.3428                 4.4066                 1.0724
 Frc consts  --      9.5296                 6.9435                 5.7380
 IR Inten    --     58.4627                 7.0316                47.7316

                     79                     80                     81
                      A                      A                      A
 Frequencies --   3026.1677              3041.0144              3045.6531
 Red. masses --      1.0818                 1.0405                 1.0457
 Frc consts  --      5.8367                 5.6691                 5.7152
 IR Inten    --      2.2718                17.1677                34.7771

                     82                     83                     84
                      A                      A                      A
 Frequencies --   3047.0117              3056.0916              3063.8485
 Red. masses --      1.0436                 1.0365                 1.0805
 Frc consts  --      5.7088                 5.7035                 5.9762
 IR Inten    --      0.4841                17.8638                47.4675

                     85                     86                     87
                      A                      A                      A
 Frequencies --   3102.1015              3110.4771              3111.9706
 Red. masses --      1.0993                 1.0981                 1.0900
 Frc consts  --      6.2328                 6.2596                 6.2193
 IR Inten    --     10.2533                61.7737                11.1954

                     88                     89                     90
                      A                      A                      A
 Frequencies --   3114.2192              3118.4533              3134.6870
 Red. masses --      1.1011                 1.0957                 1.0967
 Frc consts  --      6.2915                 6.2780                 6.3494
 IR Inten    --     12.0953                50.5504                37.1892

                     91                     92                     93
                      A                      A                      A
 Frequencies --   3141.3776              3146.6335              3158.7375
 Red. masses --      1.1023                 1.0988                 1.1037
 Frc consts  --      6.4093                 6.4098                 6.4881
 IR Inten    --     13.1515                27.8476                 7.8850

                     94                     95                     96
                      A                      A                      A
 Frequencies --   3184.5609              3488.2398              3609.3322
 Red. masses --      1.0915                 1.0724                 1.0670
 Frc consts  --      6.5217                 7.6884                 8.1901
 IR Inten    --     28.2600                 6.3963               144.4492

 - Thermochemistry -
 -------------------
 Temperature   298.150 Kelvin.  Pressure   1.00000 Atm.
 Atom     1 has atomic number  6 and mass  12.00000

 Molecular mass:   209.15281 amu.
 Principal axes and moments of inertia in atomic units:
                           1         2         3
     Eigenvalues --  1754.997454716.978025770.45439
           X            0.99970  -0.02426   0.00160
           Y            0.02426   0.99971  -0.00038
           Z           -0.00159   0.00042   1.00000
 This molecule is an asymmetric top.
 Rotational symmetry number  1.
 Warning -- assumption of classical behavior for rotation
           may cause significant error
 Rotational temperatures (Kelvin)      0.04935     0.01836     0.01501
 Rotational constants (GHZ):           1.02834     0.38261     0.31276
 Zero-point vibrational energy     782005.7 (Joules/Mol)
                                  186.90384 (Kcal/Mol)
 Warning -- explicit consideration of  25 degrees of freedom as
           vibrations may cause significant error
 Vibrational temperatures:     48.77    61.85    94.19   109.14   138.68
          (Kelvin)            179.97   206.50   235.71   273.34   307.64
                              326.14   345.61   374.52   438.12   474.20
                              498.31   522.03   569.99   613.78   631.43
                              706.99   724.81   734.77   872.37   883.21
                              942.80  1000.31  1067.39  1115.66  1132.22
                             1174.30  1269.01  1300.25  1334.47  1354.77
                             1377.02  1408.98  1416.56  1442.71  1490.64
                             1502.46  1540.96  1545.84  1572.97  1597.46
                             1676.49  1690.66  1733.56  1758.91  1801.95
                             1813.70  1878.38  1884.99  1901.96  1916.44
                             1978.35  2011.88  2042.74  2047.96  2057.24
                             2066.74  2076.20  2086.25  2098.77  2119.23
                             2164.19  2168.15  2173.98  2185.14  2188.02
                             2191.16  2199.66  2216.21  2223.48  2230.41
                             2297.55  2352.93  4335.72  4353.98  4375.34
                             4382.02  4383.97  4397.03  4408.19  4463.23
                             4475.28  4477.43  4480.67  4486.76  4510.12
                             4519.74  4527.30  4544.72  4581.87  5018.80
                             5193.02

 Zero-point correction=                           0.297850 (Hartree/Particle)
 Thermal correction to Energy=                    0.314031
 Thermal correction to Enthalpy=                  0.314975
 Thermal correction to Gibbs Free Energy=         0.253895
 Sum of electronic and zero-point Energies=           -669.858045
 Sum of electronic and thermal Energies=              -669.841865
 Sum of electronic and thermal Enthalpies=            -669.840920
 Sum of electronic and thermal Free Energies=         -669.902000

                     E (Thermal)             CV                S
                      KCal/Mol        Cal/Mol-Kelvin    Cal/Mol-Kelvin
 Total                  197.057             60.328            128.553
 Electronic               0.000              0.000              0.000
 Translational            0.889              2.981             41.918
 Rotational               0.889              2.981             32.235
 Vibrational            195.280             54.366             54.400
 Vibration     1          0.594              1.983              5.587
 Vibration     2          0.595              1.980              5.117
 Vibration     3          0.597              1.971              4.285
 Vibration     4          0.599              1.965              3.995
 Vibration     5          0.603              1.952              3.526
 Vibration     6          0.610              1.928              3.020
 Vibration     7          0.616              1.910              2.756
 Vibration     8          0.623              1.887              2.505
 Vibration     9          0.633              1.854              2.228
 Vibration    10          0.644              1.820              2.011
 Vibration    11          0.650              1.800              1.905
 Vibration    12          0.657              1.779              1.801
 Vibration    13          0.668              1.745              1.660
 Vibration    14          0.695              1.665              1.392
 Vibration    15          0.712              1.616              1.262
 Vibration    16          0.724              1.583              1.183
 Vibration    17          0.737              1.549              1.110
 Vibration    18          0.763              1.478              0.977
 Vibration    19          0.788              1.412              0.870
 Vibration    20          0.799              1.385              0.830
 Vibration    21          0.847              1.269              0.680
 Vibration    22          0.859              1.242              0.649
 Vibration    23          0.866              1.226              0.632
 Vibration    24          0.965              1.018              0.439
 Vibration    25          0.973              1.003              0.426

 Optimization completed.
    -- Stationary point found.
 Normal termination of Gaussian 16 at Thu Dec 10 17:04:52 2020.

 ----------------------------------------------------------------------
 # B3LYP/6-311++G(d,p) empiricaldispersion=gd3bj scf=xqc pop=npa geom=c
 heck
 ----------------------------------------------------------------------

 --------------------------------------
 CID_79246545_JID_5523_Energie_neutraal
 --------------------------------------
 Structure from the checkpoint file:  "JID_5523.chk"
 Charge =  0 Multiplicity = 1

 SCF Done:  E(RB3LYP) =  -670.349146040     A.U. after   15 cycles
 Normal termination of Gaussian 16 at Thu Dec 10 17:12:17 2020.

 ----------------------------------------------------------------------
 # B3LYP/6-311++G(d,p) empiricaldispersion=gd3bj scf=xqc pop=npa geom=c
 heck
 ----------------------------------------------------------------------

 ------------------------------------
 CID_79246545_JID_5523_Energie_kation
 ------------------------------------
 Structure from the checkpoint file:  "JID_5523.chk"
 Charge =  1 Multiplicity = 2

 SCF Done:  E(UB3LYP) =  -670.047680148     A.U. after   24 cycles
 Normal termination of Gaussian 16 at Thu Dec 10 17:27:34 2020.
 Gaussian 16:  ES64L-G16RevA.03 25-Dec-2016

 ----------------------------------------------------------------------
 # B3LYP/6-311++G(d,p) empiricaldispersion=gd3bj scf=xqc pop=npa geom=c
 heck
 ----------------------------------------------------------------------

 -----------------------------------
 CID_79246545_JID_5523_Energie_anion
 -----------------------------------
 Structure from the checkpoint file:  "JID_5523.chk"
 Charge = -1 Multiplicity = 2

                         Standard orientation:
 ---------------------------------------------------------------------
 Center     Atomic      Atomic             Coordinates (Angstroms)
 Number     Number       Type             X           Y           Z
 ---------------------------------------------------------------------
      1          6           0        3.763418   -1.767788    0.488100
      2          6           0        2.865327   -0.589526    0.236208
      3          6           0        3.320121    0.596397   -0.338554
      4          7           0        2.514415    1.643736   -0.558708
      5          6           0        1.232274    1.537134   -0.208075
      6          6           0        0.758685    0.334605    0.372591
      7          7           0        1.569310   -0.712126    0.574360
      8          7           0       -0.575408    0.194044    0.783430
      9          6           0       -1.576913   -0.048298   -0.286885
     10          6           0       -1.113569   -1.250139   -1.140768
     11          8           0       -0.781932   -2.371156   -0.335439
     12          6           0       -2.958651   -0.234508    0.368841
     13          6           0       -3.312416    0.960895    1.263415
     14          6           0       -4.059843   -0.453550   -0.677685
     15          6           0        0.334362    2.722131   -0.422625
     16          1           0        3.376446   -2.660516   -0.015763
     17          1           0        4.779157   -1.577979    0.130126
     18          1           0        3.808625   -1.995142    1.559238
     19          1           0        4.362984    0.711956   -0.624702
     20          1           0       -0.616756   -0.608000    1.411330
     21          1           0       -1.614941    0.841281   -0.928375
     22          1           0       -1.897834   -1.569304   -1.831622
     23          1           0       -0.253139   -0.937952   -1.751568
     24          1           0        0.098051   -2.189664    0.048665
     25          1           0       -2.898274   -1.138650    0.992053
     26          1           0       -3.393153    1.877878    0.664738
     27          1           0       -4.277346    0.800623    1.757386
     28          1           0       -2.551733    1.130429    2.028844
     29          1           0       -3.924628   -1.380320   -1.242536
     30          1           0       -5.039076   -0.507764   -0.189870
     31          1           0       -4.093106    0.379449   -1.392133
     32          1           0        0.938786    3.629788   -0.485003
     33          1           0       -0.231206    2.632846   -1.359346
     34          1           0       -0.392387    2.806589    0.391093
 ---------------------------------------------------------------------

 SCF Done:  E(UB3LYP) =  -670.347861936     A.U. after   33 cycles
 SCF Done:  E(UB3LYP) =  -670.347861937     a.u. after    2 cycles

 The electronic state is 2-A.
 Alpha  occ. eigenvalues --  -18.98965 -14.17105 -14.12801 -14.11924 -10.09147
 Alpha  occ. eigenvalues --  -10.08203 -10.07074 -10.06589 -10.06380 -10.05455
 Alpha  occ. eigenvalues --  -10.04175 -10.03593 -10.03363 -10.02939 -10.02510
 Alpha  occ. eigenvalues --   -0.89445  -0.81893  -0.77318  -0.72678  -0.69388
 Alpha  occ. eigenvalues --   -0.62987  -0.59859  -0.59530  -0.58386  -0.52727
 Alpha  occ. eigenvalues --   -0.51268  -0.47648  -0.46100  -0.44141  -0.38421
 Alpha  occ. eigenvalues --   -0.37649  -0.36622  -0.34804  -0.34227  -0.32509
 Alpha  occ. eigenvalues --   -0.32177  -0.30813  -0.29687  -0.29134  -0.28429
 Alpha  occ. eigenvalues --   -0.28176  -0.27269  -0.26474  -0.26049  -0.24937
 Alpha  occ. eigenvalues --   -0.24059  -0.23608  -0.23336  -0.22705  -0.21973
 Alpha  occ. eigenvalues --   -0.20100  -0.16827  -0.15557  -0.13664  -0.12406
 Alpha  occ. eigenvalues --   -0.08298  -0.07666   0.06049
 Alpha virt. eigenvalues --    0.06993   0.08664   0.09209   0.09290   0.10452
 Alpha virt. eigenvalues --    0.11177   0.11427   0.11623   0.12149   0.12643
 Alpha virt. eigenvalues --    0.13093   0.13415   0.13869   0.14360   0.15067

  Beta  occ. eigenvalues --  -18.98945 -14.17111 -14.12197 -14.11203 -10.09146
  Beta  occ. eigenvalues --  -10.08192 -10.07071 -10.06587 -10.06260 -10.05451
  Beta  occ. eigenvalues --  -10.04040 -10.03512 -10.03380 -10.02953 -10.02522
  Beta  occ. eigenvalues --   -0.89399  -0.81367  -0.76855  -0.71724  -0.69267
  Beta  occ. eigenvalues --   -0.62687  -0.59777  -0.59377  -0.58347  -0.52583
  Beta  occ. eigenvalues --   -0.51118  -0.47025  -0.46055  -0.43847  -0.38362
  Beta  occ. eigenvalues --   -0.37406  -0.36527  -0.34739  -0.34134  -0.32388
  Beta  occ. eigenvalues --   -0.32021  -0.30690  -0.29244  -0.29008  -0.28327
  Beta  occ. eigenvalues --   -0.28001  -0.27192  -0.26355  -0.25952  -0.24804
  Beta  occ. eigenvalues --   -0.24017  -0.23521  -0.23225  -0.22298  -0.21009
  Beta  occ. eigenvalues --   -0.20051  -0.15893  -0.14472  -0.12329  -0.11232
  Beta  occ. eigenvalues --   -0.07486  -0.06644
  Beta virt. eigenvalues --    0.06918   0.08585   0.09128   0.09176   0.10349
  Beta virt. eigenvalues --    0.11077   0.11352   0.11502   0.12059   0.12429
  Beta virt. eigenvalues --    0.13006   0.13282   0.13449   0.13780   0.14482

 Mulliken charges and spin densities:
               1          2
     1  C   -0.492588  -0.036153
     2  C    0.095586   0.121167
     3  C   -0.242662   0.000467
     4  N   -0.091355   0.348054
     5  C   -0.123196   0.067237
     6  C   -0.215322   0.064058
     7  N   -0.182707   0.307815
     8  N    0.058188   0.008793
     9  C   -0.067569  -0.035249
    10  C   -0.707685  -0.033923
    11  O   -0.209311  -0.002504
    12  C    0.320059   0.049308
    13  C   -0.495323  -0.088614
    14  C   -0.624679  -0.042863
    15  C   -0.521687  -0.099525
    16  H    0.087988   0.043236
    17  H    0.115576   0.000877
    18  H    0.124049   0.012789
    19  H    0.116707   0.000360
    20  H    0.274869   0.023107
    21  H    0.137456  -0.002244
    22  H    0.061074   0.053661
    23  H    0.168919   0.013555
    24  H    0.258591   0.004206
    25  H    0.161489   0.005791
    26  H    0.126330   0.000168
    27  H    0.057273   0.071115
    28  H    0.147334   0.011288
    29  H    0.129225   0.006228
    30  H    0.107779   0.014795
    31  H    0.116438   0.025908
    32  H    0.151712  -0.010745
    33  H    0.020817   0.098581
    34  H    0.136624  -0.000745
 Sum of Mulliken charges =  -1.00000   1.00000

 Dipole moment (field-independent basis, Debye):
    X=             -5.2687    Y=             -0.8317    Z=             -0.0633  Tot=              5.3343
 Quadrupole moment (field-independent basis, Debye-Ang):
   XX=           -130.0813   YY=           -122.7071   ZZ=           -106.1184
   XY=             -7.4668   XZ=              2.2571   YZ=              2.2328

 Summary of Natural Population Analysis:

                                       Natural Population
                Natural  -----------------------------------------------
    Atom  No    Charge         Core      Valence    Rydberg      Total
 -----------------------------------------------------------------------
      C    1   -0.29289      0.99964     2.28859    0.00466     3.29289
      C    2    0.10220      0.99955     1.88598    0.01227     2.89780
      C    3   -0.01750      0.99953     2.00447    0.01350     3.01750
      N    4   -0.13567      0.99967     2.62128    0.01472     3.63567
      C    5    0.07593      0.99951     1.90785    0.01671     2.92407
      C    6    0.19247      0.99948     1.79176    0.01629     2.80753
      N    7   -0.20195      0.99962     2.68867    0.01367     3.70195
      N    8   -0.34081      0.99970     2.82899    0.01212     3.84081
      C    9   -0.01699      0.99957     2.00443    0.01299     3.01699
      C   10   -0.02130      0.99957     2.00719    0.01454     3.02130
      O   11   -0.39002      0.99990     3.38323    0.00690     4.39002
      C   12   -0.11818      0.99960     2.10958    0.00900     3.11818
      C   13   -0.28355      0.99966     2.27913    0.00477     3.28355
      C   14   -0.28421      0.99966     2.27928    0.00527     3.28421
      C   15   -0.29823      0.99964     2.29298    0.00561     3.29823
      H   16    0.09979      0.00000     0.39896    0.00125     0.40021
      H   17    0.09257      0.00000     0.40657    0.00087     0.40743
      H   18    0.09925      0.00000     0.39956    0.00119     0.40075
      H   19    0.07796      0.00000     0.42073    0.00132     0.42204
      H   20    0.17884      0.00000     0.31847    0.00269     0.32116
      H   21    0.09358      0.00000     0.40469    0.00173     0.40642
      H   22    0.08016      0.00000     0.41871    0.00113     0.41984
      H   23    0.08651      0.00000     0.41218    0.00131     0.41349
      H   24    0.24650      0.00000     0.24947    0.00403     0.25350
      H   25    0.09642      0.00000     0.40195    0.00162     0.40358
      H   26    0.09391      0.00000     0.40527    0.00082     0.40609
      H   27    0.08993      0.00000     0.40900    0.00108     0.41007
      H   28    0.11099      0.00000     0.38799    0.00102     0.38901
      H   29    0.09940      0.00000     0.39992    0.00069     0.40060
      H   30    0.09462      0.00000     0.40461    0.00077     0.40538
      H   31    0.09461      0.00000     0.40458    0.00081     0.40539
      H   32    0.10225      0.00000     0.39588    0.00187     0.39775
      H   33    0.09290      0.00000     0.40501    0.00209     0.40710
      H   34    0.10054      0.00000     0.39843    0.00103     0.39946
 =======================================================================
   * Total *    0.00000     14.99429    41.81538    0.19033    57.00000

 Normal termination of Gaussian 16 at Thu Dec 10 17:54:12 2020.
