 Gaussian 16, Revision A.03,

 -----------------------------------------------------------
 # opt freq B3LYP/6-31G(d) empiricaldispersion=gd3bj scf=xqc
 -----------------------------------------------------------

 -----------------------------
 CID_87847386_JID_418_neutraal
 -----------------------------
 Symbolic Z-matrix:
 Charge =  0 Multiplicity = 1

 SCF Done:  E(RB3LYP) =  -536.772791060     A.U. after   14 cycles
 SCF Done:  E(RB3LYP) =  -536.776734085     A.U. after   12 cycles
 SCF Done:  E(RB3LYP) =  -536.777036303     A.U. after   11 cycles
 SCF Done:  E(RB3LYP) =  -536.776738245     A.U. after   12 cycles
 SCF Done:  E(RB3LYP) =  -536.777607211     A.U. after   11 cycles
 SCF Done:  E(RB3LYP) =  -536.777633987     A.U. after   10 cycles
 SCF Done:  E(RB3LYP) =  -536.777643195     A.U. after   10 cycles
 SCF Done:  E(RB3LYP) =  -536.777648956     A.U. after    8 cycles
 SCF Done:  E(RB3LYP) =  -536.777654005     A.U. after    9 cycles
 SCF Done:  E(RB3LYP) =  -536.777655942     A.U. after    8 cycles
 SCF Done:  E(RB3LYP) =  -536.777657103     A.U. after    8 cycles
 SCF Done:  E(RB3LYP) =  -536.777657281     A.U. after    7 cycles
 Optimization completed.
    -- Stationary point found.

 1\1\GINC-NODE321\FOpt\RB3LYP\6-31G(d)\C6H12O4\VSC10255\08-Dec-2020\0\\
 # opt freq B3LYP/6-31G(d) empiricaldispersion=gd3bj scf=xqc\\CID_87847
 386_JID_418_neutraal\\0,1\C,0.8748446572,-0.0239623268,0.0383856265\C,
 0.9527548541,-0.219085095,1.5492728489\O,2.104785183,0.3739096553,2.16
 04811393\C,3.3478673712,-0.1933475629,1.9482842781\C,3.4368379484,-1.7
 07951657,2.028948692\O,3.8151083554,0.2269081848,0.6168700235\C,5.1421
 338637,0.4010677424,0.4515363407\O,5.9813247113,0.160014099,1.29123839
 23\C,5.4472666348,0.8743217917,-0.9636369892\O,4.3774058667,1.52501802

 Normal termination of Gaussian 16 at Tue Dec  8 10:33:59 2020.

 --------------------------------------------------------------------
 #N Geom=AllCheck Guess=TCheck SCRF=Check GenChk RB3LYP/6-31G(d) Freq
 --------------------------------------------------------------------

 Structure from the checkpoint file:  "JID_418.chk"
 -----------------------------
 CID_87847386_JID_418_neutraal
 -----------------------------
 Charge =  0 Multiplicity = 1

 SCF Done:  E(RB3LYP) =  -536.777657281     A.U. after    1 cycles

  Exact polarizability:  90.787   4.008  77.560   0.223   0.666  59.166
 Approx polarizability: 112.572   9.751 109.468   0.284   2.855  86.752

                      1                      2                      3
                      A                      A                      A
 Frequencies --     40.6929                69.0006                77.3581
 Red. masses --      4.3187                 2.8308                 4.6813
 Frc consts  --      0.0042                 0.0079                 0.0165
 IR Inten    --      0.1604                 0.2339                 1.3284

                      4                      5                      6
                      A                      A                      A
 Frequencies --     85.7246               112.4790               168.0327
 Red. masses --      3.4767                 2.6102                 3.2471
 Frc consts  --      0.0151                 0.0195                 0.0540
 IR Inten    --      2.6260                 5.0758                 7.9268

                      7                      8                      9
                      A                      A                      A
 Frequencies --    248.5646               257.9732               277.2241
 Red. masses --      1.6507                 1.7044                 1.4603
 Frc consts  --      0.0601                 0.0668                 0.0661
 IR Inten    --      1.4965                17.8690                10.0211

                     10                     11                     12
                      A                      A                      A
 Frequencies --    292.6969               326.5863               367.6589
 Red. masses --      1.1479                 1.8829                 3.3076
 Frc consts  --      0.0579                 0.1183                 0.2634
 IR Inten    --     97.4043                 1.9057                 0.2883

                     13                     14                     15
                      A                      A                      A
 Frequencies --    421.6817               458.6507               515.6575
 Red. masses --      3.1971                 3.7518                 5.5414
 Frc consts  --      0.3349                 0.4650                 0.8681
 IR Inten    --     10.1862                 1.9781                16.4151

                     16                     17                     18
                      A                      A                      A
 Frequencies --    573.8335               606.5514               658.9952
 Red. masses --      3.8607                 2.9760                 3.5794
 Frc consts  --      0.7490                 0.6451                 0.9158
 IR Inten    --      9.3871                 5.8187                 3.0449

                     19                     20                     21
                      A                      A                      A
 Frequencies --    814.4717               833.4510               860.8563
 Red. masses --      1.3247                 2.1880                 3.2806
 Frc consts  --      0.5177                 0.8955                 1.4324
 IR Inten    --     10.0957                 5.6956               107.3936

                     22                     23                     24
                      A                      A                      A
 Frequencies --    932.4709               938.8610              1028.9666
 Red. masses --      2.2386                 5.7659                 1.9621
 Frc consts  --      1.1468                 2.9944                 1.2240
 IR Inten    --     56.5738                94.7540                10.2860

                     25                     26                     27
                      A                      A                      A
 Frequencies --   1045.6567              1086.3821              1107.8709
 Red. masses --      2.9017                 1.9528                 3.9098
 Frc consts  --      1.8693                 1.3579                 2.8274
 IR Inten    --     67.0288               112.3019                54.2681

                     28                     29                     30
                      A                      A                      A
 Frequencies --   1123.5495              1151.2971              1215.8779
 Red. masses --      1.8491                 2.1370                 2.3971
 Frc consts  --      1.3753                 1.6689                 2.0879
 IR Inten    --      8.6945                37.0736               307.7850

                     31                     32                     33
                      A                      A                      A
 Frequencies --   1220.6086              1247.7380              1302.3939
 Red. masses --      1.8528                 1.4789                 3.9389
 Frc consts  --      1.6264                 1.3566                 3.9365
 IR Inten    --     85.1895               120.9233               140.9074

                     34                     35                     36
                      A                      A                      A
 Frequencies --   1345.7001              1348.6311              1397.9329
 Red. masses --      1.1678                 1.2142                 1.2627
 Frc consts  --      1.2460                 1.3011                 1.4539
 IR Inten    --      1.2272                12.4968                 3.0774

                     37                     38                     39
                      A                      A                      A
 Frequencies --   1409.0808              1429.3872              1440.7030
 Red. masses --      1.1844                 1.2387                 1.2876
 Frc consts  --      1.3856                 1.4912                 1.5747
 IR Inten    --      1.8731                 0.9760                 5.6446

                     40                     41                     42
                      A                      A                      A
 Frequencies --   1444.7646              1448.8128              1513.8359
 Red. masses --      1.3243                 1.3455                 1.0525
 Frc consts  --      1.6286                 1.6640                 1.4211
 IR Inten    --    120.3784                32.1617                 1.6390

                     43                     44                     45
                      A                      A                      A
 Frequencies --   1517.7415              1518.5322              1525.2793
 Red. masses --      1.0523                 1.0690                 1.0541
 Frc consts  --      1.4282                 1.4523                 1.4449
 IR Inten    --      2.0288                 6.0833                 3.1023

                     46                     47                     48
                      A                      A                      A
 Frequencies --   1535.9513              1551.1104              1828.7892
 Red. masses --      1.0450                 1.0840                11.7807
 Frc consts  --      1.4525                 1.5366                23.2140
 IR Inten    --      4.7448                 4.7303               213.7606

                     49                     50                     51
                      A                      A                      A
 Frequencies --   2977.0458              3052.6067              3058.7003
 Red. masses --      1.0733                 1.0654                 1.0365
 Frc consts  --      5.6046                 5.8495                 5.7134
 IR Inten    --     43.0355                37.8696                12.2515

                     52                     53                     54
                      A                      A                      A
 Frequencies --   3073.2442              3112.6398              3122.8971
 Red. masses --      1.0366                 1.0989                 1.0891
 Frc consts  --      5.7685                 6.2729                 6.2581
 IR Inten    --     14.4183                 9.8181                15.3825

                     55                     56                     57
                      A                      A                      A
 Frequencies --   3127.5845              3135.4738              3144.8109
 Red. masses --      1.1006                 1.0931                 1.1033
 Frc consts  --      6.3428                 6.3319                 6.4288
 IR Inten    --     39.1548                 0.7512                36.4172

                     58                     59                     60
                      A                      A                      A
 Frequencies --   3150.4065              3160.2760              3741.5761
 Red. masses --      1.0998                 1.1016                 1.0652
 Frc consts  --      6.4313                 6.4820                 8.7861
 IR Inten    --     24.5055                12.2167                56.7712

 - Thermochemistry -
 -------------------
 Temperature   298.150 Kelvin.  Pressure   1.00000 Atm.
 Atom     1 has atomic number  6 and mass  12.00000

 Molecular mass:   148.07356 amu.
 Principal axes and moments of inertia in atomic units:
                           1         2         3
     Eigenvalues --   983.841751970.317082651.15461
           X            0.99993   0.00831   0.00800
           Y           -0.00824   0.99993  -0.00888
           Z           -0.00807   0.00881   0.99993
 This molecule is an asymmetric top.
 Rotational symmetry number  1.
 Warning -- assumption of classical behavior for rotation
           may cause significant error
 Rotational temperatures (Kelvin)      0.08804     0.04396     0.03267
 Rotational constants (GHZ):           1.83438     0.91596     0.68074
 Zero-point vibrational energy     487976.7 (Joules/Mol)
                                  116.62922 (Kcal/Mol)
 Warning -- explicit consideration of  17 degrees of freedom as
           vibrations may cause significant error
 Vibrational temperatures:     58.55    99.28   111.30   123.34   161.83
          (Kelvin)            241.76   357.63   371.17   398.86   421.13
                              469.88   528.98   606.71   659.90   741.92
                              825.62   872.69   948.15  1171.84  1199.15
                             1238.58  1341.62  1350.81  1480.45  1504.47
                             1563.06  1593.98  1616.54  1656.46  1749.38
                             1756.18  1795.22  1873.85  1936.16  1940.38
                             2011.31  2027.35  2056.57  2072.85  2078.69
                             2084.52  2178.07  2183.69  2184.83  2194.54
                             2209.89  2231.70  2631.22  4283.30  4392.02
                             4400.79  4421.71  4478.39  4493.15  4499.90
                             4511.25  4524.68  4532.73  4546.93  5383.29

 Zero-point correction=                           0.185860 (Hartree/Particle)
 Thermal correction to Energy=                    0.197600
 Thermal correction to Enthalpy=                  0.198545
 Thermal correction to Gibbs Free Energy=         0.147423
 Sum of electronic and zero-point Energies=           -536.591797
 Sum of electronic and thermal Energies=              -536.580057
 Sum of electronic and thermal Enthalpies=            -536.579113
 Sum of electronic and thermal Free Energies=         -536.630234

                     E (Thermal)             CV                S
                      KCal/Mol        Cal/Mol-Kelvin    Cal/Mol-Kelvin
 Total                  123.996             41.130            107.594
 Electronic               0.000              0.000              0.000
 Translational            0.889              2.981             40.888
 Rotational               0.889              2.981             30.020
 Vibrational            122.219             35.168             36.686
 Vibration     1          0.594              1.981              5.225
 Vibration     2          0.598              1.969              4.182
 Vibration     3          0.599              1.964              3.957
 Vibration     4          0.601              1.959              3.755
 Vibration     5          0.607              1.939              3.226
 Vibration     6          0.625              1.882              2.457
 Vibration     7          0.662              1.765              1.741
 Vibration     8          0.667              1.749              1.675
 Vibration     9          0.678              1.716              1.551
 Vibration    10          0.688              1.687              1.458
 Vibration    11          0.710              1.622              1.277
 Vibration    12          0.740              1.539              1.090
 Vibration    13          0.784              1.423              0.886
 Vibration    14          0.817              1.342              0.770
 Vibration    15          0.871              1.215              0.620
 Vibration    16          0.930              1.088              0.497
 Vibration    17          0.965              1.018              0.439

 Optimization completed.
    -- Stationary point found.

 1\1\GINC-NODE321\Freq\RB3LYP\6-31G(d)\C6H12O4\VSC10255\08-Dec-2020\0\\
 #N Geom=AllCheck Guess=TCheck SCRF=Check GenChk RB3LYP/6-31G(d) Freq\\
 CID_87847386_JID_418_neutraal\\0,1\C,0.8748446572,-0.0239623268,0.0383
 856265\C,0.9527548541,-0.219085095,1.5492728489\O,2.104785183,0.373909
 6553,2.1604811393\C,3.3478673712,-0.1933475629,1.9482842781\C,3.436837
 9484,-1.707951657,2.028948692\O,3.8151083554,0.2269081848,0.6168700235
 \C,5.1421338637,0.4010677424,0.4515363407\O,5.9813247113,0.160014099,1
 .2912383923\C,5.4472666348,0.8743217917,-0.9636369892\O,4.3774058667,1

 Normal termination of Gaussian 16 at Tue Dec  8 10:39:22 2020.

 ----------------------------------------------------------------------
 # B3LYP/6-311++G(d,p) empiricaldispersion=gd3bj scf=xqc pop=npa geom=c
 heck
 ----------------------------------------------------------------------

 -------------------------------------
 CID_87847386_JID_418_Energie_neutraal
 -------------------------------------
 Structure from the checkpoint file:  "JID_418.chk"
 Charge =  0 Multiplicity = 1

 SCF Done:  E(RB3LYP) =  -536.951669630     A.U. after   13 cycles
 Normal termination of Gaussian 16 at Tue Dec  8 10:42:04 2020.

 ----------------------------------------------------------------------
 # B3LYP/6-311++G(d,p) empiricaldispersion=gd3bj scf=xqc pop=npa geom=c
 heck
 ----------------------------------------------------------------------

 -----------------------------------
 CID_87847386_JID_418_Energie_kation
 -----------------------------------
 Structure from the checkpoint file:  "JID_418.chk"
 Charge =  1 Multiplicity = 2

 SCF Done:  E(UB3LYP) =  -536.598765759     A.U. after   21 cycles
 Normal termination of Gaussian 16 at Tue Dec  8 10:47:34 2020.
 Gaussian 16:  ES64L-G16RevA.03 25-Dec-2016

 ----------------------------------
 CID_87847386_JID_418_Energie_anion
 ----------------------------------
 Structure from the checkpoint file:  "JID_418.chk"
 Charge = -1 Multiplicity = 2

                         Standard orientation:
 ---------------------------------------------------------------------
 Center     Atomic      Atomic             Coordinates (Angstroms)
 Number     Number       Type             X           Y           Z
 ---------------------------------------------------------------------
      1          6           0        2.005696    1.770429    0.400803
      2          6           0        2.633869    0.502610   -0.169248
      3          8           0        1.742540   -0.290263   -0.962518
      4          6           0        0.723248   -0.986377   -0.339196
      5          6           0        1.075244   -1.722857    0.942266
      6          8           0       -0.359097   -0.033488   -0.042334
      7          6           0       -1.624257   -0.498373   -0.086113
      8          8           0       -1.929841   -1.655847   -0.271366
      9          6           0       -2.615768    0.621199    0.202427
     10          8           0       -2.134278    1.917020   -0.069091
     11          1           0        2.785045    2.399845    0.845716
     12          1           0        1.266191    1.545699    1.174457
     13          1           0        1.513003    2.338362   -0.394801
     14          1           0        3.435708    0.762573   -0.865566
     15          1           0        3.077714   -0.106159    0.628558
     16          1           0        0.328224   -1.675912   -1.086153
     17          1           0        1.300506   -1.031939    1.759381
     18          1           0        0.222641   -2.340630    1.234274
     19          1           0        1.939227   -2.373244    0.773544
     20          1           0       -3.504449    0.444848   -0.409486
     21          1           0       -2.920337    0.503387    1.257801
     22          1           0       -1.186267    1.914007    0.139126
 ---------------------------------------------------------------------

 SCF Done:  E(UB3LYP) =  -536.938633942     A.U. after   28 cycles

 The electronic state is 2-A.
 Alpha  occ. eigenvalues --  -19.07017 -19.03736 -19.03052 -19.01588 -10.20388
 Alpha  occ. eigenvalues --  -10.18394 -10.13448 -10.11557 -10.06362 -10.05535
 Alpha  occ. eigenvalues --   -1.01769  -0.95754  -0.93545  -0.91521  -0.68351
 Alpha  occ. eigenvalues --   -0.64517  -0.62456  -0.56658  -0.51837  -0.46798
 Alpha  occ. eigenvalues --   -0.44458  -0.41061  -0.39534  -0.38775  -0.36565
 Alpha  occ. eigenvalues --   -0.34957  -0.34038  -0.32310  -0.32188  -0.31097
 Alpha  occ. eigenvalues --   -0.28826  -0.28136  -0.27265  -0.27096  -0.24660
 Alpha  occ. eigenvalues --   -0.23104  -0.20625  -0.20324  -0.18833  -0.16934
 Alpha  occ. eigenvalues --    0.04726
 Alpha virt. eigenvalues --    0.07256   0.08015   0.08870   0.09200   0.09948
 Alpha virt. eigenvalues --    0.10781   0.11023   0.11764   0.11866   0.13595
 Alpha virt. eigenvalues --    0.14024   0.14780   0.15698   0.16509   0.16803

  Beta  occ. eigenvalues --  -19.07011 -19.03736 -19.03042 -19.01554 -10.20317
  Beta  occ. eigenvalues --  -10.18390 -10.13431 -10.11522 -10.06304 -10.05487
  Beta  occ. eigenvalues --   -1.01720  -0.95724  -0.93519  -0.91488  -0.68295
  Beta  occ. eigenvalues --   -0.64447  -0.62368  -0.56579  -0.51754  -0.46736
  Beta  occ. eigenvalues --   -0.44408  -0.41019  -0.39400  -0.38705  -0.36500
  Beta  occ. eigenvalues --   -0.34899  -0.33990  -0.32243  -0.32134  -0.31011
  Beta  occ. eigenvalues --   -0.28768  -0.28070  -0.27209  -0.27051  -0.24602
  Beta  occ. eigenvalues --   -0.23039  -0.20580  -0.20284  -0.18803  -0.16899
  Beta virt. eigenvalues --    0.07394   0.08311   0.08879   0.09188   0.09913
  Beta virt. eigenvalues --    0.10401   0.11325   0.11620   0.12139   0.12735
  Beta virt. eigenvalues --    0.14167   0.14390   0.14921   0.15874   0.16560

 Mulliken charges and spin densities:
               1          2
     1  C    1.232944  -1.667227
     2  C   -0.140575  -0.067358
     3  O   -0.085860   0.034049
     4  C   -1.310801   0.950856
     5  C    1.989697  -2.286931
     6  O   -0.041444   0.012498
     7  C   -0.271557   0.444919
     8  O   -0.300997   0.016831
     9  C    0.773187  -1.197168
    10  O   -0.315740   0.040794
    11  H   -0.563008   0.715676
    12  H   -0.333903   0.495917
    13  H    0.105660   0.038901
    14  H   -0.493833   0.656419
    15  H   -0.307787   0.468066
    16  H    0.159034   0.047700
    17  H   -0.430256   0.621001
    18  H    0.016420   0.165706
    19  H   -0.499476   0.666336
    20  H    0.129738   0.048303
    21  H   -0.483574   0.684565
    22  H    0.172129   0.110148
 Sum of Mulliken charges =  -1.00000   1.00000

 Dipole moment (field-independent basis, Debye):
    X=             -3.8875    Y=             -0.7926    Z=             -4.1452  Tot=              5.7379
 Quadrupole moment (field-independent basis, Debye-Ang):
   XX=           -119.6917   YY=           -102.5819   ZZ=            -94.9339
   XY=             -2.9584   XZ=             -3.1310   YZ=              0.1342

 Summary of Natural Population Analysis:

                                       Natural Population
                Natural  -----------------------------------------------
    Atom  No    Charge         Core      Valence    Rydberg      Total
 -----------------------------------------------------------------------
      C    1   -0.30162      0.99966     2.29610    0.00585     3.30162
      C    2   -0.01354      0.99958     2.00084    0.01312     3.01354
      O    3   -0.29392      0.99987     3.28474    0.00931     4.29392
      C    4    0.22151      0.99955     1.76058    0.01836     2.77849
      C    5   -0.31503      0.99963     2.30989    0.00550     3.31503
      O    6   -0.30245      0.99985     3.29163    0.01097     4.30245
      C    7    0.40510      0.99971     1.56988    0.02531     2.59490
      O    8   -0.30882      0.99987     3.30332    0.00563     4.30882
      C    9   -0.05345      0.99958     2.04092    0.01295     3.05345
      O   10   -0.36702      0.99990     3.36007    0.00706     4.36702
      H   11    0.10447      0.00000     0.39338    0.00215     0.39553
      H   12    0.10149      0.00000     0.39613    0.00238     0.39851
      H   13    0.09809      0.00000     0.40063    0.00127     0.40191
      H   14    0.09036      0.00000     0.40812    0.00152     0.40964
      H   15    0.08622      0.00000     0.41111    0.00267     0.41378
      H   16    0.09119      0.00000     0.40731    0.00150     0.40881
      H   17    0.10890      0.00000     0.38869    0.00241     0.39110
      H   18    0.11307      0.00000     0.38584    0.00109     0.38693
      H   19    0.10815      0.00000     0.39029    0.00156     0.39185
      H   20    0.09479      0.00000     0.40402    0.00119     0.40521
      H   21    0.09413      0.00000     0.40296    0.00291     0.40587
      H   22    0.23837      0.00000     0.25785    0.00378     0.26163
 =======================================================================
   * Total *   -0.00000      9.99720    29.86430    0.13850    40.00000

 Normal termination of Gaussian 16 at Tue Dec  8 10:53:26 2020.
