 Gaussian 16, Revision A.03,

 -----------------------------------------------------------
 # opt freq B3LYP/6-31G(d) empiricaldispersion=gd3bj scf=xqc
 -----------------------------------------------------------

 -------------------------------
 CID_113347227_JID_7136_neutraal
 -------------------------------
 Symbolic Z-matrix:
 Charge =  0 Multiplicity = 1

 SCF Done:  E(RB3LYP) =  -751.373378532     A.U. after   14 cycles
 SCF Done:  E(RB3LYP) =  -751.376503244     A.U. after   11 cycles
 SCF Done:  E(RB3LYP) =  -751.376603253     A.U. after   12 cycles
 SCF Done:  E(RB3LYP) =  -751.376904935     A.U. after   11 cycles
 SCF Done:  E(RB3LYP) =  -751.376945353     A.U. after    9 cycles
 SCF Done:  E(RB3LYP) =  -751.376946138     A.U. after    9 cycles
 SCF Done:  E(RB3LYP) =  -751.376949449     A.U. after    9 cycles
 SCF Done:  E(RB3LYP) =  -751.376949673     A.U. after    7 cycles
 Optimization completed.
    -- Stationary point found.
 Normal termination of Gaussian 16 at Fri Dec 11 11:48:43 2020.

 --------------------------------------------------------------------
 #N Geom=AllCheck Guess=TCheck SCRF=Check GenChk RB3LYP/6-31G(d) Freq
 --------------------------------------------------------------------

 Structure from the checkpoint file:  "JID_7136.chk"
 -------------------------------
 CID_113347227_JID_7136_neutraal
 -------------------------------
 Charge =  0 Multiplicity = 1

 SCF Done:  E(RB3LYP) =  -751.376949673     A.U. after    1 cycles

  Exact polarizability: 179.868  -7.253 162.486  16.646  10.861 118.062
 Approx polarizability: 240.958 -18.856 250.115  34.699  23.825 191.225

                      1                      2                      3
                      A                      A                      A
 Frequencies --     27.2937                36.4002                54.3907
 Red. masses --      4.4794                 3.5462                 3.9282
 Frc consts  --      0.0020                 0.0028                 0.0068
 IR Inten    --      0.0188                 0.7808                 0.2343

                      4                      5                      6
                      A                      A                      A
 Frequencies --     72.7977                95.5474               136.8551
 Red. masses --      4.2094                 3.4844                 2.8832
 Frc consts  --      0.0131                 0.0187                 0.0318
 IR Inten    --      0.5080                 1.9121                 1.5809

                      7                      8                      9
                      A                      A                      A
 Frequencies --    151.0629               178.9231               213.3821
 Red. masses --      2.9294                 3.7264                 3.1592
 Frc consts  --      0.0394                 0.0703                 0.0848
 IR Inten    --      0.0595                 1.0552                 0.8734

                     10                     11                     12
                      A                      A                      A
 Frequencies --    249.0003               257.8139               286.3832
 Red. masses --      1.3283                 2.8882                 2.7862
 Frc consts  --      0.0485                 0.1131                 0.1346
 IR Inten    --      0.2434                 2.4030                 8.6962

                     13                     14                     15
                      A                      A                      A
 Frequencies --    320.9747               338.7118               348.4083
 Red. masses --      3.2049                 1.8630                 1.3553
 Frc consts  --      0.1945                 0.1259                 0.0969
 IR Inten    --      0.3920                33.3076                70.3750

                     16                     17                     18
                      A                      A                      A
 Frequencies --    360.4443               410.3935               428.2004
 Red. masses --      2.8854                 2.3624                 1.9831
 Frc consts  --      0.2209                 0.2344                 0.2142
 IR Inten    --      9.6655                 4.0539                 2.8090

                     19                     20                     21
                      A                      A                      A
 Frequencies --    443.9884               446.6657               487.5890
 Red. masses --      3.3937                 2.5472                 2.6156
 Frc consts  --      0.3942                 0.2994                 0.3664
 IR Inten    --      4.6012                 1.8296                 2.0960

                     22                     23                     24
                      A                      A                      A
 Frequencies --    496.8089               533.2904               538.6737
 Red. masses --      2.2428                 4.0408                 3.8083
 Frc consts  --      0.3261                 0.6771                 0.6511
 IR Inten    --      0.1684                 9.8278                 3.2436

                     25                     26                     27
                      A                      A                      A
 Frequencies --    581.9480               627.7246               680.9209
 Red. masses --      5.8161                 4.7174                 2.6353
 Frc consts  --      1.1605                 1.0952                 0.7199
 IR Inten    --      0.3229                 7.3385                 1.5936

                     28                     29                     30
                      A                      A                      A
 Frequencies --    738.8027               761.4987               786.5537
 Red. masses --      3.7455                 1.3997                 3.0631
 Frc consts  --      1.2045                 0.4782                 1.1165
 IR Inten    --      0.9775                51.4558                 2.7298

                     31                     32                     33
                      A                      A                      A
 Frequencies --    800.7197               848.4890               863.5336
 Red. masses --      3.3765                 1.7750                 2.7738
 Frc consts  --      1.2755                 0.7529                 1.2187
 IR Inten    --      3.7639                 3.1130                 6.5982

                     34                     35                     36
                      A                      A                      A
 Frequencies --    865.6483               880.0050               906.9561
 Red. masses --      2.8554                 2.5393                 1.5484
 Frc consts  --      1.2607                 1.1586                 0.7504
 IR Inten    --     13.3605                 0.2730                 4.1861

                     37                     38                     39
                      A                      A                      A
 Frequencies --    923.9920               938.8523               954.4704
 Red. masses --      2.2539                 1.3767                 2.1612
 Frc consts  --      1.1338                 0.7150                 1.1600
 IR Inten    --     10.5524                 2.0070                22.1798

                     40                     41                     42
                      A                      A                      A
 Frequencies --    968.8755               970.7263               991.8914
 Red. masses --      1.2584                 2.1800                 1.9886
 Frc consts  --      0.6960                 1.2103                 1.1527
 IR Inten    --      0.9430                 5.1187                10.8312

                     43                     44                     45
                      A                      A                      A
 Frequencies --   1016.6531              1039.3944              1071.4623
 Red. masses --      2.2919                 1.9623                 1.9610
 Frc consts  --      1.3957                 1.2491                 1.3264
 IR Inten    --     11.8400                15.1836                 2.1179

                     46                     47                     48
                      A                      A                      A
 Frequencies --   1078.6514              1104.3001              1125.2569
 Red. masses --      2.2280                 1.8627                 2.1464
 Frc consts  --      1.5273                 1.3383                 1.6013
 IR Inten    --      4.3284                11.5003                66.7211

                     49                     50                     51
                      A                      A                      A
 Frequencies --   1135.4015              1143.0304              1168.8407
 Red. masses --      2.5198                 2.2702                 2.2285
 Frc consts  --      1.9139                 1.7475                 1.7938
 IR Inten    --     55.9110                18.3923                56.0140

                     52                     53                     54
                      A                      A                      A
 Frequencies --   1186.8402              1190.3437              1193.3510
 Red. masses --      1.8227                 1.3174                 1.1097
 Frc consts  --      1.5127                 1.0998                 0.9311
 IR Inten    --     17.3107                 3.6503                 3.4310

                     55                     56                     57
                      A                      A                      A
 Frequencies --   1200.7370              1210.1831              1228.5164
 Red. masses --      1.4219                 1.2614                 1.5601
 Frc consts  --      1.2079                 1.0885                 1.3873
 IR Inten    --     27.5861                 3.6321                18.4102

                     58                     59                     60
                      A                      A                      A
 Frequencies --   1232.6739              1238.0663              1285.3371
 Red. masses --      1.6852                 1.7676                 1.3097
 Frc consts  --      1.5087                 1.5963                 1.2749
 IR Inten    --     15.2096                44.8260                 7.7523

                     61                     62                     63
                      A                      A                      A
 Frequencies --   1295.6803              1323.1130              1336.5018
 Red. masses --      3.0538                 1.3419                 1.5121
 Frc consts  --      3.0205                 1.3841                 1.5914
 IR Inten    --     35.1577                 8.5556                21.5727

                     64                     65                     66
                      A                      A                      A
 Frequencies --   1341.7275              1355.2759              1372.8341
 Red. masses --      1.6600                 1.3415                 1.3620
 Frc consts  --      1.7608                 1.4517                 1.5124
 IR Inten    --     51.2762                 6.4213                11.8031

                     67                     68                     69
                      A                      A                      A
 Frequencies --   1379.0906              1383.3723              1388.7033
 Red. masses --      1.6263                 1.7493                 1.5451
 Frc consts  --      1.8224                 1.9723                 1.7556
 IR Inten    --     15.1331                19.3441                 6.5819

                     70                     71                     72
                      A                      A                      A
 Frequencies --   1394.0543              1404.9725              1419.0186
 Red. masses --      1.3849                 1.4041                 1.4447
 Frc consts  --      1.5857                 1.6330                 1.7139
 IR Inten    --     29.1795                 2.9165                 0.5270

                     73                     74                     75
                      A                      A                      A
 Frequencies --   1434.4130              1446.6804              1499.2857
 Red. masses --      1.3301                 1.3807                 1.1156
 Frc consts  --      1.6124                 1.7025                 1.4775
 IR Inten    --      2.1046                 8.1391                 1.1493

                     76                     77                     78
                      A                      A                      A
 Frequencies --   1502.8730              1506.3622              1513.3734
 Red. masses --      1.3316                 1.7630                 1.0879
 Frc consts  --      1.7720                 2.3570                 1.4680
 IR Inten    --     24.0406                29.2051                 7.5418

                     79                     80                     81
                      A                      A                      A
 Frequencies --   1519.9329              1523.0265              1525.6074
 Red. masses --      1.0747                 1.1054                 1.0801
 Frc consts  --      1.4628                 1.5108                 1.4811
 IR Inten    --      9.2119                 9.5761                 4.1779

                     82                     83                     84
                      A                      A                      A
 Frequencies --   1533.9838              1542.8800              1545.0170
 Red. masses --      1.0927                 1.0977                 1.0637
 Frc consts  --      1.5150                 1.5395                 1.4960
 IR Inten    --      1.1326                 8.3615                 8.9795

                     85                     86                     87
                      A                      A                      A
 Frequencies --   1554.7148              1655.6182              1668.2240
 Red. masses --      2.4216                 5.8579                 6.0893
 Frc consts  --      3.4486                 9.4605                 9.9846
 IR Inten    --     18.4517                12.3628                22.7835

                     88                     89                     90
                      A                      A                      A
 Frequencies --   2930.1579              2936.8679              2989.9153
 Red. masses --      1.0732                 1.0726                 1.0378
 Frc consts  --      5.4291                 5.4508                 5.4664
 IR Inten    --     14.0015                94.2510                46.3950

                     91                     92                     93
                      A                      A                      A
 Frequencies --   3016.6351              3027.3742              3037.9647
 Red. masses --      1.0657                 1.0656                 1.1024
 Frc consts  --      5.7141                 5.7538                 5.9948
 IR Inten    --     31.9559                20.0385                45.8968

                     94                     95                     96
                      A                      A                      A
 Frequencies --   3045.6403              3048.7862              3054.1330
 Red. masses --      1.0640                 1.0829                 1.0655
 Frc consts  --      5.8151                 5.9303                 5.8557
 IR Inten    --     18.6227                60.3384                21.6701

                     97                     98                     99
                      A                      A                      A
 Frequencies --   3066.1322              3073.9832              3088.8060
 Red. masses --      1.0857                 1.0966                 1.1026
 Frc consts  --      6.0139                 6.1054                 6.1981
 IR Inten    --     64.7993                36.2959                56.6944

                    100                    101                    102
                      A                      A                      A
 Frequencies --   3090.8229              3114.6238              3120.2452
 Red. masses --      1.1013                 1.1006                 1.0966
 Frc consts  --      6.1985                 6.2905                 6.2901
 IR Inten    --     52.3384                10.6829                65.6211

                    103                    104                    105
                      A                      A                      A
 Frequencies --   3133.7956              3161.9732              3181.5409
 Red. masses --      1.0869                 1.0886                 1.0874
 Frc consts  --      6.2889                 6.4126                 6.4848
 IR Inten    --     13.2868                19.1516                 5.4561

                    106                    107                    108
                      A                      A                      A
 Frequencies --   3195.9155              3212.5605              3755.2737
 Red. masses --      1.0906                 1.0970                 1.0659
 Frc consts  --      6.5631                 6.6705                 8.8566
 IR Inten    --     19.9325                24.0346                40.1597

 - Thermochemistry -
 -------------------
 Temperature   298.150 Kelvin.  Pressure   1.00000 Atm.
 Atom     1 has atomic number  6 and mass  12.00000

 Molecular mass:   235.15723 amu.
 Principal axes and moments of inertia in atomic units:
                           1         2         3
     Eigenvalues --  2221.952266496.419307819.59118
           X            0.99999  -0.00361   0.00260
           Y            0.00360   0.99999   0.00235
           Z           -0.00260  -0.00234   0.99999
 This molecule is an asymmetric top.
 Rotational symmetry number  1.
 Warning -- assumption of classical behavior for rotation
           may cause significant error
 Rotational temperatures (Kelvin)      0.03898     0.01333     0.01108
 Rotational constants (GHZ):           0.81223     0.27781     0.23080
 Zero-point vibrational energy     882270.6 (Joules/Mol)
                                  210.86774 (Kcal/Mol)
 Warning -- explicit consideration of  25 degrees of freedom as
           vibrations may cause significant error
 Vibrational temperatures:     39.27    52.37    78.26   104.74   137.47
          (Kelvin)            196.90   217.35   257.43   307.01   358.26
                              370.94   412.04   461.81   487.33   501.28
                              518.60   590.46   616.08   638.80   642.65
                              701.53   714.80   767.29   775.03   837.29
                              903.16   979.69  1062.97  1095.63  1131.68
                             1152.06  1220.79  1242.43  1245.47  1266.13
                             1304.91  1329.42  1350.80  1373.27  1394.00
                             1396.66  1427.11  1462.74  1495.46  1541.60
                             1551.94  1588.84  1618.99  1633.59  1644.57
                             1681.70  1707.60  1712.64  1716.97  1727.59
                             1741.18  1767.56  1773.54  1781.30  1849.31
                             1864.19  1903.66  1922.93  1930.45  1949.94
                             1975.20  1984.20  1990.36  1998.03  2005.73
                             2021.44  2041.65  2063.80  2081.45  2157.14
                             2162.30  2167.32  2177.41  2186.84  2191.30
                             2195.01  2207.06  2219.86  2222.93  2236.89
                             2382.07  2400.20  4215.84  4225.50  4301.82
                             4340.27  4355.72  4370.95  4382.00  4386.52
                             4394.22  4411.48  4422.78  4444.10  4447.00
                             4481.25  4489.34  4508.83  4549.37  4577.53
                             4598.21  4622.16  5403.00

 Zero-point correction=                           0.336039 (Hartree/Particle)
 Thermal correction to Energy=                    0.352162
 Thermal correction to Enthalpy=                  0.353107
 Thermal correction to Gibbs Free Energy=         0.291569
 Sum of electronic and zero-point Energies=           -751.040911
 Sum of electronic and thermal Energies=              -751.024787
 Sum of electronic and thermal Enthalpies=            -751.023843
 Sum of electronic and thermal Free Energies=         -751.085380

                     E (Thermal)             CV                S
                      KCal/Mol        Cal/Mol-Kelvin    Cal/Mol-Kelvin
 Total                  220.985             63.101            129.516
 Electronic               0.000              0.000              0.000
 Translational            0.889              2.981             42.267
 Rotational               0.889              2.981             33.090
 Vibrational            219.208             57.139             54.159
 Vibration     1          0.593              1.984              6.017
 Vibration     2          0.594              1.982              5.446
 Vibration     3          0.596              1.976              4.651
 Vibration     4          0.599              1.967              4.076
 Vibration     5          0.603              1.952              3.543
 Vibration     6          0.614              1.917              2.847
 Vibration     7          0.618              1.901              2.659
 Vibration     8          0.629              1.868              2.340
 Vibration     9          0.644              1.821              2.015
 Vibration    10          0.662              1.764              1.738
 Vibration    11          0.667              1.750              1.677
 Vibration    12          0.684              1.699              1.495
 Vibration    13          0.706              1.633              1.305
 Vibration    14          0.719              1.598              1.218
 Vibration    15          0.726              1.579              1.173
 Vibration    16          0.735              1.554              1.120
 Vibration    17          0.775              1.448              0.925
 Vibration    18          0.790              1.409              0.865
 Vibration    19          0.803              1.374              0.814
 Vibration    20          0.806              1.368              0.806
 Vibration    21          0.844              1.278              0.690
 Vibration    22          0.852              1.257              0.666
 Vibration    23          0.888              1.176              0.580
 Vibration    24          0.894              1.165              0.568
 Vibration    25          0.939              1.070              0.482

                           ! Non-Optimized Parameters !
 Normal termination of Gaussian 16 at Fri Dec 11 12:04:17 2020.

 ----------------------------------------------------------------------
 # B3LYP/6-311++G(d,p) empiricaldispersion=gd3bj scf=xqc pop=npa geom=c
 heck
 ----------------------------------------------------------------------

 ---------------------------------------
 CID_113347227_JID_7136_Energie_neutraal
 ---------------------------------------
 Structure from the checkpoint file:  "JID_7136.chk"
 Charge =  0 Multiplicity = 1

 SCF Done:  E(RB3LYP) =  -751.590611264     A.U. after   15 cycles
 Normal termination of Gaussian 16 at Fri Dec 11 12:12:28 2020.

 ----------------------------------------------------------------------
 # B3LYP/6-311++G(d,p) empiricaldispersion=gd3bj scf=xqc pop=npa geom=c
 heck
 ----------------------------------------------------------------------

 -------------------------------------
 CID_113347227_JID_7136_Energie_kation
 -------------------------------------
 Structure from the checkpoint file:  "JID_7136.chk"
 Charge =  1 Multiplicity = 2

 SCF Done:  E(UB3LYP) =  -751.313740131     A.U. after   23 cycles
 Normal termination of Gaussian 16 at Fri Dec 11 12:30:44 2020.
 Gaussian 16:  ES64L-G16RevA.03 25-Dec-2016

 ----------------------------------------------------------------------
 # B3LYP/6-311++G(d,p) empiricaldispersion=gd3bj scf=xqc pop=npa geom=c
 heck
 ----------------------------------------------------------------------

 ------------------------------------
 CID_113347227_JID_7136_Energie_anion
 ------------------------------------
 Structure from the checkpoint file:  "JID_7136.chk"
 Charge = -1 Multiplicity = 2

                         Standard orientation:
 ---------------------------------------------------------------------
 Center     Atomic      Atomic             Coordinates (Angstroms)
 Number     Number       Type             X           Y           Z
 ---------------------------------------------------------------------
      1          6           0        3.426611   -2.373335    0.234884
      2          8           0        4.128774   -1.185565   -0.054216
      3          6           0        3.391241    0.008963    0.173487
      4          6           0        2.275672    0.271188   -0.861153
      5          6           0        2.178520    1.760894   -1.237304
      6          6           0        1.625608    2.589381   -0.071798
      7          6           0        0.295118    2.009100    0.412283
      8          7           0        0.457955    0.603077    0.770951
      9          6           0        0.895325   -0.199276   -0.370820
     10          6           0       -0.689539    0.035350    1.486386
     11          6           0       -1.982462   -0.065047    0.693260
     12          6           0       -2.867135    1.014675    0.617215
     13          6           0       -4.033028    0.965270   -0.147904
     14          6           0       -4.334427   -0.196666   -0.856084
     15          6           0       -3.478108   -1.294665   -0.789328
     16          6           0       -2.313212   -1.229331   -0.020599
     17          8           0       -1.459085   -2.299985    0.076518
     18          1           0        4.157484   -3.187436    0.223962
     19          1           0        2.647983   -2.597925   -0.509752
     20          1           0        2.951142   -2.333622    1.228555
     21          1           0        2.965794    0.008320    1.188462
     22          1           0        4.141529    0.805446    0.123351
     23          1           0        2.539828   -0.299024   -1.761607
     24          1           0        3.158068    2.139598   -1.554160
     25          1           0        1.502583    1.865059   -2.097938
     26          1           0        2.337885    2.589308    0.762667
     27          1           0        1.481981    3.633275   -0.376343
     28          1           0       -0.055353    2.552122    1.298622
     29          1           0       -0.470449    2.147072   -0.376275
     30          1           0        0.175405   -0.141321   -1.210182
     31          1           0        0.923680   -1.243713   -0.054491
     32          1           0       -0.397725   -0.956939    1.841674
     33          1           0       -0.863247    0.664356    2.367664
     34          1           0       -2.633206    1.913901    1.181657
     35          1           0       -4.699056    1.821769   -0.186243
     36          1           0       -5.237520   -0.257602   -1.456596
     37          1           0       -3.714381   -2.208530   -1.332069
     38          1           0       -1.816726   -3.030250   -0.451176
 ---------------------------------------------------------------------

 SCF Done:  E(UB3LYP) =  -751.580459750     A.U. after   33 cycles
 SCF Done:  E(UB3LYP) =  -751.580459751     a.u. after    1 cycles

 The electronic state is 2-A.
 Alpha  occ. eigenvalues --  -19.04990 -19.03423 -14.20930 -10.13719 -10.12132
 Alpha  occ. eigenvalues --  -10.11958 -10.09995 -10.09676 -10.09008 -10.08001
 Alpha  occ. eigenvalues --  -10.08000 -10.07890 -10.07813 -10.07809 -10.07653
 Alpha  occ. eigenvalues --  -10.07397 -10.07321  -0.96063  -0.94532  -0.83549
 Alpha  occ. eigenvalues --   -0.75756  -0.71822  -0.67314  -0.66509  -0.64289
 Alpha  occ. eigenvalues --   -0.62551  -0.59409  -0.55532  -0.53548  -0.52327
 Alpha  occ. eigenvalues --   -0.51737  -0.48811  -0.45083  -0.44133  -0.41381
 Alpha  occ. eigenvalues --   -0.39883  -0.39200  -0.38715  -0.38291  -0.36769
 Alpha  occ. eigenvalues --   -0.36067  -0.35369  -0.33923  -0.33594  -0.32435
 Alpha  occ. eigenvalues --   -0.31622  -0.31313  -0.30225  -0.30006  -0.29297
 Alpha  occ. eigenvalues --   -0.28588  -0.27233  -0.27024  -0.25273  -0.25018
 Alpha  occ. eigenvalues --   -0.24599  -0.24137  -0.22885  -0.22097  -0.21810
 Alpha  occ. eigenvalues --   -0.16845  -0.15760  -0.13191  -0.12055   0.04108
 Alpha virt. eigenvalues --    0.05804   0.06515   0.07169   0.07530   0.07850
 Alpha virt. eigenvalues --    0.08237   0.09015   0.09217   0.09403   0.09604
 Alpha virt. eigenvalues --    0.10278   0.10612   0.11698   0.11970   0.12056

  Beta  occ. eigenvalues --  -19.04931 -19.03419 -14.20930 -10.13720 -10.12116
  Beta  occ. eigenvalues --  -10.11955 -10.09987 -10.09666 -10.08997 -10.07997
  Beta  occ. eigenvalues --  -10.07986 -10.07877 -10.07802 -10.07801 -10.07642
  Beta  occ. eigenvalues --  -10.07358 -10.07316  -0.95955  -0.94523  -0.83541
  Beta  occ. eigenvalues --   -0.75718  -0.71806  -0.67293  -0.66474  -0.64236
  Beta  occ. eigenvalues --   -0.62531  -0.59382  -0.55507  -0.53501  -0.52262
  Beta  occ. eigenvalues --   -0.51711  -0.48775  -0.45032  -0.44065  -0.41351
  Beta  occ. eigenvalues --   -0.39844  -0.39185  -0.38689  -0.38256  -0.36739
  Beta  occ. eigenvalues --   -0.36048  -0.35339  -0.33905  -0.33541  -0.32406
  Beta  occ. eigenvalues --   -0.31595  -0.31287  -0.30195  -0.29973  -0.29273
  Beta  occ. eigenvalues --   -0.28563  -0.27209  -0.27003  -0.25248  -0.24980
  Beta  occ. eigenvalues --   -0.24573  -0.24093  -0.22867  -0.22078  -0.21792
  Beta  occ. eigenvalues --   -0.16837  -0.15702  -0.13155  -0.12043
  Beta virt. eigenvalues --    0.06014   0.06875   0.07104   0.07357   0.07991
  Beta virt. eigenvalues --    0.08348   0.08444   0.09168   0.09384   0.09743
  Beta virt. eigenvalues --    0.09809   0.10466   0.10739   0.11800   0.12054

 Mulliken charges and spin densities:
               1          2
     1  C    0.002031  -0.284806
     2  O   -0.135377   0.018774
     3  C   -0.421391  -0.255692
     4  C    0.129429   0.281249
     5  C   -0.329558  -0.244213
     6  C    0.185840  -0.705321
     7  C   -0.262476   0.012965
     8  N    0.278129  -0.000841
     9  C   -0.765479   0.072107
    10  C    0.847189  -1.292612
    11  C    1.686458  -0.909115
    12  C   -0.400800   0.380703
    13  C   -0.534771   0.252548
    14  C    1.470877  -1.863054
    15  C   -1.019437   0.860149
    16  C   -0.760713   0.324946
    17  O   -0.252382   0.037177
    18  H   -0.020399   0.184194
    19  H   -0.162534   0.298192
    20  H    0.055396   0.060740
    21  H    0.203586  -0.026553
    22  H    0.132648   0.039655
    23  H    0.127506   0.122121
    24  H    0.017633   0.141303
    25  H    0.007417   0.123929
    26  H    0.098062   0.049672
    27  H   -0.234565   0.402083
    28  H   -0.151999   0.300985
    29  H    0.353863  -0.204691
    30  H    0.012584   0.111489
    31  H    0.924840  -0.710015
    32  H    0.057443   0.156098
    33  H   -0.026766   0.219484
    34  H   -0.127489   0.275536
    35  H   -0.318592   0.484913
    36  H    0.014616   0.133049
    37  H   -1.155784   1.333266
    38  H   -0.525036   0.819584
 Sum of Mulliken charges =  -1.00000   1.00000

 Dipole moment (field-independent basis, Debye):
    X=              4.6099    Y=              4.7127    Z=              2.1062  Tot=              6.9207
 Quadrupole moment (field-independent basis, Debye-Ang):
   XX=           -181.8722   YY=           -168.1187   ZZ=           -134.6940
   XY=            -11.6676   XZ=             -4.5467   YZ=             -9.0394

 Summary of Natural Population Analysis:

                                       Natural Population
                Natural  -----------------------------------------------
    Atom  No    Charge         Core      Valence    Rydberg      Total
 -----------------------------------------------------------------------
      C    1   -0.10091      0.99962     2.09142    0.00987     3.10091
      O    2   -0.30049      0.99989     3.29089    0.00971     4.30049
      C    3   -0.00684      0.99955     1.99538    0.01192     3.00684
      C    4   -0.13200      0.99958     2.12202    0.01039     3.13200
      C    5   -0.18729      0.99962     2.17890    0.00878     3.18729
      C    6   -0.19483      0.99962     2.18647    0.00874     3.19483
      C    7   -0.08551      0.99961     2.07441    0.01149     3.08551
      N    8   -0.28254      0.99971     2.77122    0.01161     3.78254
      C    9   -0.08817      0.99959     2.07629    0.01228     3.08817
      C   10   -0.08681      0.99958     2.07576    0.01147     3.08681
      C   11   -0.05289      0.99946     2.04312    0.01031     3.05289
      C   12   -0.09084      0.99953     2.08139    0.00992     3.09084
      C   13   -0.11828      0.99956     2.10921    0.00951     3.11828
      C   14   -0.09255      0.99957     2.08268    0.01031     3.09255
      C   15   -0.13238      0.99952     2.12208    0.01078     3.13238
      C   16    0.16290      0.99934     1.82371    0.01405     2.83710
      O   17   -0.34523      0.99988     3.33724    0.00811     4.34523
      H   18    0.08710      0.00000     0.41201    0.00090     0.41290
      H   19    0.08159      0.00000     0.41701    0.00140     0.41841
      H   20    0.07895      0.00000     0.41997    0.00107     0.42105
      H   21    0.08532      0.00000     0.41301    0.00166     0.41468
      H   22    0.08651      0.00000     0.41213    0.00135     0.41349
      H   23    0.10405      0.00000     0.39456    0.00140     0.39595
      H   24    0.09731      0.00000     0.40179    0.00090     0.40269
      H   25    0.09757      0.00000     0.40129    0.00113     0.40243
      H   26    0.09512      0.00000     0.40363    0.00125     0.40488
      H   27    0.09883      0.00000     0.40022    0.00094     0.40117
      H   28    0.09549      0.00000     0.40321    0.00129     0.40451
      H   29    0.08376      0.00000     0.41453    0.00171     0.41624
      H   30    0.08664      0.00000     0.41144    0.00192     0.41336
      H   31    0.10534      0.00000     0.39233    0.00233     0.39466
      H   32    0.10563      0.00000     0.39279    0.00157     0.39437
      H   33    0.09627      0.00000     0.40264    0.00109     0.40373
      H   34    0.09844      0.00000     0.39995    0.00161     0.40156
      H   35    0.09980      0.00000     0.39924    0.00096     0.40020
      H   36    0.10057      0.00000     0.39851    0.00092     0.39943
      H   37    0.10628      0.00000     0.39007    0.00365     0.39372
      H   38    0.24407      0.00000     0.23500    0.02092     0.25593
 =======================================================================
   * Total *   -0.00000     16.99320    46.77753    0.22926    64.00000

 Normal termination of Gaussian 16 at Fri Dec 11 13:02:08 2020.
