 Gaussian 16, Revision A.03,

 -----------------------------------------------------------
 # opt freq B3LYP/6-31G(d) empiricaldispersion=gd3bj scf=xqc
 -----------------------------------------------------------

 ------------------------------
 CID_64954098_JID_3743_neutraal
 ------------------------------
 Symbolic Z-matrix:
 Charge =  0 Multiplicity = 1

 SCF Done:  E(RB3LYP) =  -541.961500116     A.U. after   12 cycles
 SCF Done:  E(RB3LYP) =  -541.968626513     A.U. after   11 cycles
 SCF Done:  E(RB3LYP) =  -541.969480879     A.U. after   10 cycles
 SCF Done:  E(RB3LYP) =  -541.969582027     A.U. after   10 cycles
 SCF Done:  E(RB3LYP) =  -541.969718458     A.U. after    9 cycles
 SCF Done:  E(RB3LYP) =  -541.969731557     A.U. after    8 cycles
 SCF Done:  E(RB3LYP) =  -541.969740063     A.U. after    9 cycles
 SCF Done:  E(RB3LYP) =  -541.969743742     A.U. after    8 cycles
 SCF Done:  E(RB3LYP) =  -541.969742565     A.U. after    7 cycles
 SCF Done:  E(RB3LYP) =  -541.969756350     A.U. after    8 cycles
 SCF Done:  E(RB3LYP) =  -541.969840186     A.U. after   10 cycles
 SCF Done:  E(RB3LYP) =  -541.969844792     A.U. after    8 cycles
 SCF Done:  E(RB3LYP) =  -541.969850721     A.U. after    9 cycles
 SCF Done:  E(RB3LYP) =  -541.969851496     A.U. after    9 cycles
 SCF Done:  E(RB3LYP) =  -541.969852250     A.U. after    7 cycles
 SCF Done:  E(RB3LYP) =  -541.969853441     A.U. after    8 cycles
 Optimization completed.
    -- Stationary point found.
 Normal termination of Gaussian 16 at Sun Dec 13 16:04:44 2020.

 --------------------------------------------------------------------
 #N Geom=AllCheck Guess=TCheck SCRF=Check GenChk RB3LYP/6-31G(d) Freq
 --------------------------------------------------------------------

 Structure from the checkpoint file:  "JID_3743.chk"
 ------------------------------
 CID_64954098_JID_3743_neutraal
 ------------------------------
 Charge =  0 Multiplicity = 1

 SCF Done:  E(RB3LYP) =  -541.969853441     A.U. after    1 cycles

  Exact polarizability: 142.129   0.440 121.551  -0.094   2.413 110.680
 Approx polarizability: 175.803  -1.842 171.266   0.121   6.177 166.562

                      1                      2                      3
                      A                      A                      A
 Frequencies --     39.9985                64.0242                89.8612
 Red. masses --      2.0497                 2.9864                 2.8083
 Frc consts  --      0.0019                 0.0072                 0.0134
 IR Inten    --      0.0051                 0.1349                 0.1128

                      4                      5                      6
                      A                      A                      A
 Frequencies --    113.9961               165.8960               211.0430
 Red. masses --      2.7722                 2.2799                 1.5102
 Frc consts  --      0.0212                 0.0370                 0.0396
 IR Inten    --      0.0744                 0.1213                 1.3400

                      7                      8                      9
                      A                      A                      A
 Frequencies --    216.6280               231.9743               238.3177
 Red. masses --      1.2311                 1.8836                 1.5125
 Frc consts  --      0.0340                 0.0597                 0.0506
 IR Inten    --      0.3867                 0.1595                 1.7485

                     10                     11                     12
                      A                      A                      A
 Frequencies --    264.1906               295.6258               321.0798
 Red. masses --      2.4974                 2.7274                 2.7069
 Frc consts  --      0.1027                 0.1404                 0.1644
 IR Inten    --      0.5579                 1.1974                 1.4535

                     13                     14                     15
                      A                      A                      A
 Frequencies --    348.1002               405.5426               461.8490
 Red. masses --      2.9655                 2.0902                 3.4294
 Frc consts  --      0.2117                 0.2025                 0.4310
 IR Inten    --      2.8271                 0.4702                 4.5604

                     16                     17                     18
                      A                      A                      A
 Frequencies --    481.0917               519.1256               558.3732
 Red. masses --      1.9753                 2.2264                 3.2252
 Frc consts  --      0.2694                 0.3535                 0.5925
 IR Inten    --      7.2864                 1.6994                 3.0876

                     19                     20                     21
                      A                      A                      A
 Frequencies --    571.5710               608.8377               691.2902
 Red. masses --      3.5686                 2.4210                 2.3986
 Frc consts  --      0.6869                 0.5288                 0.6753
 IR Inten    --     18.5965                 0.6008                16.4084

                     22                     23                     24
                      A                      A                      A
 Frequencies --    778.4936               786.6313               792.7270
 Red. masses --      2.1556                 1.2938                 2.1458
 Frc consts  --      0.7697                 0.4717                 0.7945
 IR Inten    --     11.1035                 5.2740                31.9233

                     25                     26                     27
                      A                      A                      A
 Frequencies --    832.2626               870.3057               882.3346
 Red. masses --      1.9730                 2.0364                 2.0186
 Frc consts  --      0.8052                 0.9088                 0.9259
 IR Inten    --      1.6178                10.0160                 7.3548

                     28                     29                     30
                      A                      A                      A
 Frequencies --    897.7625               902.0799               940.3843
 Red. masses --      2.1530                 2.7140                 1.6352
 Frc consts  --      1.0224                 1.3012                 0.8520
 IR Inten    --      2.5866                 0.1107                 7.2523

                     31                     32                     33
                      A                      A                      A
 Frequencies --    958.0640               961.9237               978.9284
 Red. masses --      1.7198                 1.9017                 1.5195
 Frc consts  --      0.9301                 1.0368                 0.8579
 IR Inten    --      0.8010                 7.3493                 5.8624

                     34                     35                     36
                      A                      A                      A
 Frequencies --    983.6083              1009.0475              1023.3324
 Red. masses --      1.5173                 1.3426                 2.0659
 Frc consts  --      0.8649                 0.8054                 1.2747
 IR Inten    --      0.9445                 0.3609                 3.3983

                     37                     38                     39
                      A                      A                      A
 Frequencies --   1051.1072              1088.1111              1092.1451
 Red. masses --      2.2567                 1.9035                 2.1616
 Frc consts  --      1.4690                 1.3278                 1.5191
 IR Inten    --      1.5587                22.0730                63.2523

                     40                     41                     42
                      A                      A                      A
 Frequencies --   1100.0098              1134.2646              1137.8625
 Red. masses --      3.1858                 2.0083                 1.7521
 Frc consts  --      2.2712                 1.5223                 1.3366
 IR Inten    --     12.4197                 4.2173                13.1135

                     43                     44                     45
                      A                      A                      A
 Frequencies --   1152.0923              1182.0231              1196.6691
 Red. masses --      2.1102                 2.1372                 2.2362
 Frc consts  --      1.6502                 1.7594                 1.8867
 IR Inten    --      8.8237                22.8408                 1.2329

                     46                     47                     48
                      A                      A                      A
 Frequencies --   1204.7437              1216.5519              1227.1470
 Red. masses --      1.9130                 1.5714                 1.5855
 Frc consts  --      1.6359                 1.3702                 1.4067
 IR Inten    --      4.6256                22.3384                 6.6720

                     49                     50                     51
                      A                      A                      A
 Frequencies --   1253.1453              1290.5361              1294.9473
 Red. masses --      1.8786                 1.2780                 1.1898
 Frc consts  --      1.7381                 1.2541                 1.1755
 IR Inten    --     13.0297                11.1985                 7.4930

                     52                     53                     54
                      A                      A                      A
 Frequencies --   1300.9154              1304.4221              1339.0961
 Red. masses --      1.3482                 1.3199                 1.2778
 Frc consts  --      1.3443                 1.3232                 1.3500
 IR Inten    --      3.8264                10.6264                 0.7204

                     55                     56                     57
                      A                      A                      A
 Frequencies --   1344.1962              1351.5042              1361.2463
 Red. masses --      1.2859                 1.2955                 1.3599
 Frc consts  --      1.3689                 1.3942                 1.4847
 IR Inten    --      8.1969                 5.6710                 1.6954

                     58                     59                     60
                      A                      A                      A
 Frequencies --   1362.1113              1366.0298              1381.1922
 Red. masses --      1.4097                 1.4379                 1.2985
 Frc consts  --      1.5410                 1.5809                 1.4595
 IR Inten    --      7.6230                 2.4969                29.1701

                     61                     62                     63
                      A                      A                      A
 Frequencies --   1402.9071              1423.2185              1434.5848
 Red. masses --      1.2792                 1.3228                 1.3591
 Frc consts  --      1.4833                 1.5787                 1.6480
 IR Inten    --      4.3619                 9.2644                12.4031

                     64                     65                     66
                      A                      A                      A
 Frequencies --   1435.7984              1440.3597              1446.4030
 Red. masses --      1.3364                 1.4152                 1.3880
 Frc consts  --      1.6232                 1.7299                 1.7109
 IR Inten    --      7.5724                 9.9516                32.4371

                     67                     68                     69
                      A                      A                      A
 Frequencies --   1495.0792              1505.2637              1514.6945
 Red. masses --      1.2719                 1.0911                 1.0734
 Frc consts  --      1.6750                 1.4565                 1.4509
 IR Inten    --      2.4128                 2.9496                 4.6677

                     70                     71                     72
                      A                      A                      A
 Frequencies --   1516.5100              1519.8901              1525.8019
 Red. masses --      1.0716                 1.0812                 1.0864
 Frc consts  --      1.4521                 1.4716                 1.4901
 IR Inten    --      1.2463                 2.7525                 4.4692

                     73                     74                     75
                      A                      A                      A
 Frequencies --   1526.8621              1529.4125              1533.8528
 Red. masses --      1.0902                 1.0756                 1.0875
 Frc consts  --      1.4974                 1.4824                 1.5074
 IR Inten    --      7.8529                 2.1062                 1.9456

                     76                     77                     78
                      A                      A                      A
 Frequencies --   1539.2233              1548.6294              2911.8053
 Red. masses --      1.0578                 1.1075                 1.0804
 Frc consts  --      1.4766                 1.5650                 5.3973
 IR Inten    --      1.0216                 3.7407                62.1968

                     79                     80                     81
                      A                      A                      A
 Frequencies --   2963.3658              3023.6229              3030.9843
 Red. masses --      1.0710                 1.0665                 1.0829
 Frc consts  --      5.5411                 5.7445                 5.8613
 IR Inten    --     83.1859                38.1043                20.7388

                     82                     83                     84
                      A                      A                      A
 Frequencies --   3043.3267              3043.8985              3051.4396
 Red. masses --      1.0666                 1.0393                 1.0619
 Frc consts  --      5.8205                 5.6733                 5.8255
 IR Inten    --     21.1607                44.6051                50.7712

                     85                     86                     87
                      A                      A                      A
 Frequencies --   3054.9016              3058.0162              3069.8201
 Red. masses --      1.0415                 1.0640                 1.0787
 Frc consts  --      5.7266                 5.8622                 5.9895
 IR Inten    --     25.5366                39.1323                26.7779

                     88                     89                     90
                      A                      A                      A
 Frequencies --   3073.3607              3077.9550              3091.3264
 Red. masses --      1.0824                 1.0732                 1.0969
 Frc consts  --      6.0239                 5.9905                 6.1762
 IR Inten    --     29.7521                46.3145                34.9498

                     91                     92                     93
                      A                      A                      A
 Frequencies --   3092.6106              3100.9336              3105.6996
 Red. masses --      1.0965                 1.1003                 1.1040
 Frc consts  --      6.1789                 6.2336                 6.2737
 IR Inten    --     19.0736                14.5938                36.0467

                     94                     95                     96
                      A                      A                      A
 Frequencies --   3106.2188              3119.4661              3123.1811
 Red. masses --      1.1007                 1.1046                 1.0988
 Frc consts  --      6.2572                 6.3328                 6.3150
 IR Inten    --     32.7042                72.0949                48.5528

                     97                     98                     99
                      A                      A                      A
 Frequencies --   3124.0580              3146.7684              3485.3134
 Red. masses --      1.1027                 1.1025                 1.0746
 Frc consts  --      6.3407                 6.4324                 7.6906
 IR Inten    --     33.4424                25.1865                 2.8212

 - Thermochemistry -
 -------------------
 Temperature   298.150 Kelvin.  Pressure   1.00000 Atm.
 Atom     1 has atomic number  6 and mass  12.00000

 Molecular mass:   182.17830 amu.
 Principal axes and moments of inertia in atomic units:
                           1         2         3
     Eigenvalues --  1387.388343476.031543986.14187
           X            0.99997   0.00571   0.00507
           Y           -0.00573   0.99998   0.00327
           Z           -0.00505  -0.00330   0.99998
 This molecule is an asymmetric top.
 Rotational symmetry number  1.
 Warning -- assumption of classical behavior for rotation
           may cause significant error
 Rotational temperatures (Kelvin)      0.06243     0.02492     0.02173
 Rotational constants (GHZ):           1.30082     0.51920     0.45275
 Zero-point vibrational energy     858110.9 (Joules/Mol)
                                  205.09342 (Kcal/Mol)
 Warning -- explicit consideration of  20 degrees of freedom as
           vibrations may cause significant error
 Vibrational temperatures:     57.55    92.12   129.29   164.01   238.69
          (Kelvin)            303.64   311.68   333.76   342.89   380.11
                              425.34   461.96   500.84   583.49   664.50
                              692.18   746.91   803.37   822.36   875.98
                              994.61  1120.08  1131.79  1140.56  1197.44
                             1252.18  1269.48  1291.68  1297.89  1353.00
                             1378.44  1383.99  1408.46  1415.19  1451.79
                             1472.35  1512.31  1565.55  1571.35  1582.67
                             1631.95  1637.13  1657.60  1700.67  1721.74
                             1733.36  1750.35  1765.59  1803.00  1856.79
                             1863.14  1871.73  1876.77  1926.66  1934.00
                             1944.51  1958.53  1959.77  1965.41  1987.23
                             2018.47  2047.69  2064.05  2065.79  2072.36
                             2081.05  2151.09  2165.74  2179.31  2181.92
                             2186.78  2195.29  2196.81  2200.48  2206.87
                             2214.60  2228.13  4189.44  4263.62  4350.32
                             4360.91  4378.67  4379.49  4390.34  4395.32
                             4399.80  4416.79  4421.88  4428.49  4447.73
                             4449.58  4461.55  4468.41  4469.16  4488.22
                             4493.56  4494.82  4527.50  5014.59

 Zero-point correction=                           0.326837 (Hartree/Particle)
 Thermal correction to Energy=                    0.340079
 Thermal correction to Enthalpy=                  0.341024
 Thermal correction to Gibbs Free Energy=         0.287284
 Sum of electronic and zero-point Energies=           -541.643016
 Sum of electronic and thermal Energies=              -541.629774
 Sum of electronic and thermal Enthalpies=            -541.628830
 Sum of electronic and thermal Free Energies=         -541.682569

                     E (Thermal)             CV                S
                      KCal/Mol        Cal/Mol-Kelvin    Cal/Mol-Kelvin
 Total                  213.403             52.293            113.104
 Electronic               0.000              0.000              0.000
 Translational            0.889              2.981             41.506
 Rotational               0.889              2.981             31.331
 Vibrational            211.626             46.331             40.267
 Vibration     1          0.594              1.981              5.259
 Vibration     2          0.597              1.971              4.329
 Vibration     3          0.602              1.956              3.663
 Vibration     4          0.607              1.938              3.200
 Vibration     5          0.624              1.884              2.481
 Vibration     6          0.643              1.824              2.035
 Vibration     7          0.645              1.816              1.987
 Vibration     8          0.653              1.792              1.864
 Vibration     9          0.656              1.782              1.815
 Vibration    10          0.671              1.739              1.634
 Vibration    11          0.690              1.682              1.442
 Vibration    12          0.707              1.633              1.305
 Vibration    13          0.726              1.579              1.175
 Vibration    14          0.771              1.458              0.943
 Vibration    15          0.820              1.335              0.761
 Vibration    16          0.837              1.292              0.707
 Vibration    17          0.874              1.208              0.612
 Vibration    18          0.914              1.121              0.527
 Vibration    19          0.928              1.093              0.501
 Vibration    20          0.968              1.013              0.435

 Optimization completed.
    -- Stationary point found.
 Normal termination of Gaussian 16 at Sun Dec 13 16:14:45 2020.

 ----------------------------------------------------------------------
 # B3LYP/6-311++G(d,p) empiricaldispersion=gd3bj scf=xqc pop=npa geom=c
 heck
 ----------------------------------------------------------------------

 --------------------------------------
 CID_64954098_JID_3743_Energie_neutraal
 --------------------------------------
 Structure from the checkpoint file:  "JID_3743.chk"
 Charge =  0 Multiplicity = 1

 SCF Done:  E(RB3LYP) =  -542.119496023     A.U. after   14 cycles
 Normal termination of Gaussian 16 at Sun Dec 13 16:18:51 2020.

 ----------------------------------------------------------------------
 # B3LYP/6-311++G(d,p) empiricaldispersion=gd3bj scf=xqc pop=npa geom=c
 heck
 ----------------------------------------------------------------------

 ------------------------------------
 CID_64954098_JID_3743_Energie_kation
 ------------------------------------
 Structure from the checkpoint file:  "JID_3743.chk"
 Charge =  1 Multiplicity = 2

 SCF Done:  E(UB3LYP) =  -541.858938166     A.U. after   18 cycles
 Normal termination of Gaussian 16 at Sun Dec 13 16:25:59 2020.
 Gaussian 16:  ES64L-G16RevA.03 25-Dec-2016

 ----------------------------------------------------------------------
 # B3LYP/6-311++G(d,p) empiricaldispersion=gd3bj scf=xqc pop=npa geom=c
 heck
 ----------------------------------------------------------------------

 -----------------------------------
 CID_64954098_JID_3743_Energie_anion
 -----------------------------------
 Structure from the checkpoint file:  "JID_3743.chk"
 Charge = -1 Multiplicity = 2

                         Standard orientation:
 ---------------------------------------------------------------------
 Center     Atomic      Atomic             Coordinates (Angstroms)
 Number     Number       Type             X           Y           Z
 ---------------------------------------------------------------------
      1          6           0       -1.119966    2.576776   -0.353239
      2          6           0       -0.426592    1.381366    0.312702
      3          6           0       -1.299228    0.777020    1.432760
      4          7           0       -2.444357    0.078916    0.846916
      5          6           0       -2.012919   -1.039956    0.003913
      6          6           0       -1.169128   -0.442967   -1.133133
      7          7           0       -0.047488    0.377376   -0.691641
      8          6           0        1.238279   -0.288964   -0.531936
      9          6           0        2.446470    0.641920   -0.814880
     10          6           0        3.658738    0.010364   -0.080117
     11          6           0        3.108756   -1.255194    0.627083
     12          6           0        1.615616   -0.962244    0.810781
     13          6           0       -3.229052   -1.784361   -0.535377
     14          1           0       -2.093846    2.286815   -0.756775
     15          1           0       -0.500554    2.962547   -1.168220
     16          1           0       -1.287562    3.379940    0.374096
     17          1           0        0.497290    1.741784    0.777287
     18          1           0       -0.677194    0.107358    2.053187
     19          1           0       -1.672096    1.577856    2.082210
     20          1           0       -3.051127   -0.265848    1.588417
     21          1           0       -1.376685   -1.750298    0.569849
     22          1           0       -1.842468    0.171298   -1.747722
     23          1           0       -0.784307   -1.243545   -1.773800
     24          1           0        1.254658   -1.081998   -1.290926
     25          1           0        2.604511    0.751821   -1.891846
     26          1           0        2.238704    1.644958   -0.427790
     27          1           0        4.062004    0.709282    0.661149
     28          1           0        4.480461   -0.232606   -0.761223
     29          1           0        3.628099   -1.475461    1.565508
     30          1           0        3.231204   -2.131978   -0.022137
     31          1           0        1.473095   -0.256712    1.639224
     32          1           0        1.014984   -1.852411    1.025556
     33          1           0       -2.924534   -2.621142   -1.174041
     34          1           0       -3.838211   -2.191793    0.281054
     35          1           0       -3.859359   -1.106477   -1.121323
 ---------------------------------------------------------------------

 SCF Done:  E(UB3LYP) =  -542.103429957     A.U. after   28 cycles

 The electronic state is 2-A.
 Alpha  occ. eigenvalues --  -14.19165 -14.18979 -10.09407 -10.09190 -10.08852
 Alpha  occ. eigenvalues --  -10.08397 -10.08192 -10.06163 -10.06060 -10.05724
 Alpha  occ. eigenvalues --  -10.05708 -10.05424 -10.05200  -0.83514  -0.78692
 Alpha  occ. eigenvalues --   -0.72191  -0.68209  -0.63469  -0.60618  -0.59964
 Alpha  occ. eigenvalues --   -0.56324  -0.54694  -0.50603  -0.46947  -0.46524
 Alpha  occ. eigenvalues --   -0.42613  -0.41416  -0.38409  -0.37289  -0.35554
 Alpha  occ. eigenvalues --   -0.35225  -0.34029  -0.32617  -0.31488  -0.30885
 Alpha  occ. eigenvalues --   -0.30214  -0.28641  -0.28007  -0.27073  -0.26814
 Alpha  occ. eigenvalues --   -0.25403  -0.24011  -0.23894  -0.23525  -0.23186
 Alpha  occ. eigenvalues --   -0.23146  -0.22514  -0.21892  -0.20671  -0.12918
 Alpha  occ. eigenvalues --   -0.09366   0.04599
 Alpha virt. eigenvalues --    0.06684   0.07021   0.07767   0.08590   0.08807
 Alpha virt. eigenvalues --    0.09316   0.09739   0.10178   0.11144   0.11217
 Alpha virt. eigenvalues --    0.11740   0.12149   0.12370   0.12972   0.13076

  Beta  occ. eigenvalues --  -14.19162 -14.18954 -10.09400 -10.09182 -10.08840
  Beta  occ. eigenvalues --  -10.08388 -10.08174 -10.06144 -10.06039 -10.05713
  Beta  occ. eigenvalues --  -10.05677 -10.05407 -10.05190  -0.83495  -0.78664
  Beta  occ. eigenvalues --   -0.72166  -0.68182  -0.63437  -0.60580  -0.59925
  Beta  occ. eigenvalues --   -0.56282  -0.54651  -0.50556  -0.46896  -0.46464
  Beta  occ. eigenvalues --   -0.42571  -0.41368  -0.38379  -0.37242  -0.35514
  Beta  occ. eigenvalues --   -0.35201  -0.33990  -0.32586  -0.31461  -0.30860
  Beta  occ. eigenvalues --   -0.30178  -0.28616  -0.27974  -0.27047  -0.26787
  Beta  occ. eigenvalues --   -0.25367  -0.23978  -0.23860  -0.23490  -0.23160
  Beta  occ. eigenvalues --   -0.23113  -0.22481  -0.21858  -0.20642  -0.12865
  Beta  occ. eigenvalues --   -0.09351
  Beta virt. eigenvalues --    0.06741   0.07520   0.07677   0.08206   0.09031
  Beta virt. eigenvalues --    0.09372   0.09569   0.10183   0.10451   0.11496
  Beta virt. eigenvalues --    0.11658   0.12038   0.12441   0.12571   0.13208

 Mulliken charges and spin densities:
               1          2
     1  C    0.403699  -0.849534
     2  C   -0.632950   0.415586
     3  C    0.328412  -0.737137
     4  N   -0.163944   0.091226
     5  C   -1.355506   1.423760
     6  C    1.027002  -1.324866
     7  N    0.499123   0.000475
     8  C   -1.569074   1.112499
     9  C   -0.061408  -0.198101
    10  C    0.479378  -0.830832
    11  C    0.126028  -0.788578
    12  C    0.646475  -0.598255
    13  C    1.205047  -1.918381
    14  H    0.124793   0.035755
    15  H    0.051337   0.094785
    16  H    0.027429   0.092413
    17  H   -0.119760   0.294554
    18  H   -0.360025   0.501442
    19  H   -0.433906   0.611347
    20  H   -0.029671   0.279913
    21  H   -0.013639   0.180483
    22  H    0.144507   0.028867
    23  H   -0.037575   0.149238
    24  H   -0.132152   0.253076
    25  H    0.046409   0.118313
    26  H   -0.048231   0.155008
    27  H   -0.128233   0.265809
    28  H   -0.091395   0.226945
    29  H   -0.289937   0.461935
    30  H   -0.036926   0.173194
    31  H    0.243366  -0.130447
    32  H   -0.269912   0.418273
    33  H   -0.111800   0.241019
    34  H   -0.513831   0.656341
    35  H    0.046870   0.093875
 Sum of Mulliken charges =  -1.00000   1.00000

 Dipole moment (field-independent basis, Debye):
    X=              0.6663    Y=              2.4532    Z=             -3.0783  Tot=              3.9922
 Quadrupole moment (field-independent basis, Debye-Ang):
   XX=           -153.7131   YY=           -127.4665   ZZ=           -122.3516
   XY=             -4.0922   XZ=              4.1730   YZ=              1.0089

 Summary of Natural Population Analysis:

                                       Natural Population
                Natural  -----------------------------------------------
    Atom  No    Charge         Core      Valence    Rydberg      Total
 -----------------------------------------------------------------------
      C    1   -0.28736      0.99964     2.28264    0.00508     3.28736
      C    2   -0.01009      0.99958     1.99721    0.01330     3.01009
      C    3   -0.09264      0.99960     2.08137    0.01167     3.09264
      N    4   -0.34537      0.99972     2.83315    0.01250     3.84537
      C    5   -0.02259      0.99960     2.01141    0.01158     3.02259
      C    6   -0.08021      0.99958     2.06904    0.01159     3.08021
      N    7   -0.28623      0.99969     2.77146    0.01509     3.78623
      C    8    0.00388      0.99956     1.98339    0.01317     2.99612
      C    9   -0.19371      0.99962     2.18448    0.00961     3.19371
      C   10   -0.19233      0.99965     2.18598    0.00670     3.19233
      C   11   -0.19043      0.99964     2.18295    0.00784     3.19043
      C   12   -0.20291      0.99961     2.19414    0.00916     3.20291
      C   13   -0.28616      0.99965     2.27988    0.00663     3.28616
      H   14    0.10298      0.00000     0.39584    0.00118     0.39702
      H   15    0.09936      0.00000     0.39953    0.00111     0.40064
      H   16    0.09532      0.00000     0.40389    0.00079     0.40468
      H   17    0.09771      0.00000     0.40023    0.00206     0.40229
      H   18    0.08384      0.00000     0.41385    0.00230     0.41616
      H   19    0.09441      0.00000     0.40444    0.00115     0.40559
      H   20    0.17712      0.00000     0.31956    0.00331     0.32288
      H   21    0.07932      0.00000     0.41769    0.00299     0.42068
      H   22    0.09110      0.00000     0.40754    0.00136     0.40890
      H   23    0.09698      0.00000     0.40191    0.00112     0.40302
      H   24    0.09247      0.00000     0.40586    0.00167     0.40753
      H   25    0.09830      0.00000     0.40046    0.00123     0.40170
      H   26    0.09687      0.00000     0.40163    0.00151     0.40313
      H   27    0.09539      0.00000     0.40328    0.00133     0.40461
      H   28    0.09659      0.00000     0.40223    0.00118     0.40341
      H   29    0.09935      0.00000     0.39950    0.00115     0.40065
      H   30    0.09301      0.00000     0.40560    0.00139     0.40699
      H   31    0.09455      0.00000     0.40352    0.00192     0.40545
      H   32    0.10231      0.00000     0.39595    0.00174     0.39769
      H   33    0.09957      0.00000     0.39947    0.00096     0.40043
      H   34    0.10123      0.00000     0.39735    0.00142     0.39877
      H   35    0.09835      0.00000     0.40051    0.00113     0.40165
 =======================================================================
   * Total *    0.00000     12.99512    37.83695    0.16793    51.00000

 Normal termination of Gaussian 16 at Sun Dec 13 16:37:33 2020.
