 Gaussian 16, Revision A.03,

 -----------------------------------------------------------
 # opt freq B3LYP/6-31G(d) empiricaldispersion=gd3bj scf=xqc
 -----------------------------------------------------------

 -------------------------------
 CID_102370458_JID_2064_neutraal
 -------------------------------
 Symbolic Z-matrix:
 Charge =  0 Multiplicity = 1

 SCF Done:  E(RB3LYP) =  -520.056533153     A.U. after   16 cycles
 SCF Done:  E(RB3LYP) =  -520.095670680     A.U. after   14 cycles
 SCF Done:  E(RB3LYP) =  -520.100572438     A.U. after   13 cycles
 SCF Done:  E(RB3LYP) =  -520.101864640     A.U. after   12 cycles
 SCF Done:  E(RB3LYP) =  -520.102394087     A.U. after   12 cycles
 SCF Done:  E(RB3LYP) =  -520.103228952     A.U. after   12 cycles
 SCF Done:  E(RB3LYP) =  -520.103878783     A.U. after   12 cycles
 SCF Done:  E(RB3LYP) =  -520.104378648     A.U. after   13 cycles
 SCF Done:  E(RB3LYP) =  -520.104812416     A.U. after   12 cycles
 SCF Done:  E(RB3LYP) =  -520.105082853     A.U. after   13 cycles
 SCF Done:  E(RB3LYP) =  -520.105470049     A.U. after   11 cycles
 SCF Done:  E(RB3LYP) =  -520.105473739     A.U. after   10 cycles
 SCF Done:  E(RB3LYP) =  -520.105473163     A.U. after   10 cycles
 SCF Done:  E(RB3LYP) =  -520.105472792     A.U. after    9 cycles
 SCF Done:  E(RB3LYP) =  -520.105473861     A.U. after   10 cycles
 SCF Done:  E(RB3LYP) =  -520.105472760     A.U. after   10 cycles
 Optimization completed.
    -- Stationary point found.
 Normal termination of Gaussian 16 at Wed Dec  9 16:54:06 2020.

 --------------------------------------------------------------------
 #N Geom=AllCheck Guess=TCheck SCRF=Check GenChk RB3LYP/6-31G(d) Freq
 --------------------------------------------------------------------

 Structure from the checkpoint file:  "JID_2064.chk"
 -------------------------------
 CID_102370458_JID_2064_neutraal
 -------------------------------
 Charge =  0 Multiplicity = 1

 SCF Done:  E(RB3LYP) =  -520.105472760     A.U. after    1 cycles

  Exact polarizability: 115.819  -1.014 101.447  -4.163   2.219  93.214
 Approx polarizability: 158.075  -5.652 139.885 -15.192  12.908 151.864

                      1                      2                      3
                      A                      A                      A
 Frequencies --     21.4179               108.6147               123.7308
 Red. masses --      5.7977                 2.7476                 5.2937
 Frc consts  --      0.0016                 0.0191                 0.0477
 IR Inten    --      0.3985                 0.2820                 6.5874

                      4                      5                      6
                      A                      A                      A
 Frequencies --    143.6822               184.1644               209.9247
 Red. masses --      6.4033                 3.0489                 2.1018
 Frc consts  --      0.0779                 0.0609                 0.0546
 IR Inten    --      2.7687                 1.2993                 0.7133

                      7                      8                      9
                      A                      A                      A
 Frequencies --    234.5605               264.2948               273.5973
 Red. masses --      1.2033                 2.9844                 3.3677
 Frc consts  --      0.0390                 0.1228                 0.1485
 IR Inten    --      0.2642                 2.3321                 0.1775

                     10                     11                     12
                      A                      A                      A
 Frequencies --    304.8964               327.4884               348.6848
 Red. masses --      2.4114                 4.2037                 2.1857
 Frc consts  --      0.1321                 0.2656                 0.1566
 IR Inten    --      1.1990                 4.2486                 1.8210

                     13                     14                     15
                      A                      A                      A
 Frequencies --    423.6857               432.8872               465.4023
 Red. masses --      5.3828                 3.5435                 1.7812
 Frc consts  --      0.5693                 0.3912                 0.2273
 IR Inten    --      3.7969                 1.9378                 1.0564

                     16                     17                     18
                      A                      A                      A
 Frequencies --    484.7898               578.9802               610.9078
 Red. masses --      2.8784                 4.0064                 3.7775
 Frc consts  --      0.3986                 0.7913                 0.8306
 IR Inten    --      0.2524                 1.9933                 0.8395

                     19                     20                     21
                      A                      A                      A
 Frequencies --    705.6213               747.9437               794.1593
 Red. masses --      2.6386                 2.5704                 2.4619
 Frc consts  --      0.7740                 0.8472                 0.9148
 IR Inten    --      2.6624                 0.4890                 0.2117

                     22                     23                     24
                      A                      A                      A
 Frequencies --    817.4232               836.4443               884.4868
 Red. masses --      2.1660                 2.0347                 2.3425
 Frc consts  --      0.8527                 0.8387                 1.0797
 IR Inten    --      7.2332                 0.8305                 3.5743

                     25                     26                     27
                      A                      A                      A
 Frequencies --    921.1993               931.4883               959.2529
 Red. masses --      1.7751                 2.0087                 2.2345
 Frc consts  --      0.8875                 1.0269                 1.2114
 IR Inten    --     11.9667                 0.9763                 2.5603

                     28                     29                     30
                      A                      A                      A
 Frequencies --    990.5623              1032.0540              1044.9870
 Red. masses --      2.5773                 1.8536                 1.6865
 Frc consts  --      1.4900                 1.1632                 1.0851
 IR Inten    --     16.4712                 6.8951                 6.7409

                     31                     32                     33
                      A                      A                      A
 Frequencies --   1088.6740              1094.8839              1118.0264
 Red. masses --      2.3132                 2.4284                 2.3332
 Frc consts  --      1.6153                 1.7152                 1.7184
 IR Inten    --     19.6198                14.8443                 9.6917

                     34                     35                     36
                      A                      A                      A
 Frequencies --   1124.7405              1134.7950              1153.6563
 Red. masses --      2.0725                 1.8888                 2.0016
 Frc consts  --      1.5447                 1.4331                 1.5696
 IR Inten    --      6.4615                 1.8753                11.0177

                     37                     38                     39
                      A                      A                      A
 Frequencies --   1188.7257              1235.0175              1254.5988
 Red. masses --      1.3698                 1.1583                 1.3944
 Frc consts  --      1.1404                 1.0410                 1.2931
 IR Inten    --      8.5410                 1.4759                 3.8947

                     40                     41                     42
                      A                      A                      A
 Frequencies --   1287.0409              1304.3316              1329.3056
 Red. masses --      1.2514                 1.3365                 1.1951
 Frc consts  --      1.2213                 1.3397                 1.2442
 IR Inten    --      3.8795                 1.7172                 0.0473

                     43                     44                     45
                      A                      A                      A
 Frequencies --   1344.3638              1350.9892              1383.4057
 Red. masses --      1.4134                 1.1753                 1.3936
 Frc consts  --      1.5050                 1.2639                 1.5714
 IR Inten    --      4.0762                 1.0849                 5.3106

                     46                     47                     48
                      A                      A                      A
 Frequencies --   1395.3155              1408.7316              1413.1748
 Red. masses --      1.2858                 1.3454                 1.4507
 Frc consts  --      1.4749                 1.5731                 1.7069
 IR Inten    --      6.8355                 4.8822                 1.1198

                     49                     50                     51
                      A                      A                      A
 Frequencies --   1418.8479              1425.0524              1434.5576
 Red. masses --      1.5228                 1.4235                 1.2428
 Frc consts  --      1.8062                 1.7032                 1.5069
 IR Inten    --      7.3148                 3.3335                 7.5892

                     52                     53                     54
                      A                      A                      A
 Frequencies --   1509.4697              1516.1404              1518.1957
 Red. masses --      1.0895                 1.0830                 1.0863
 Frc consts  --      1.4627                 1.4668                 1.4752
 IR Inten    --      2.6169                 5.1647                 2.9870

                     55                     56                     57
                      A                      A                      A
 Frequencies --   1525.1026              1526.6155              1533.6367
 Red. masses --      1.0529                 1.0755                 1.0732
 Frc consts  --      1.4428                 1.4768                 1.4872
 IR Inten    --      3.7112                12.5878                12.9669

                     58                     59                     60
                      A                      A                      A
 Frequencies --   1534.4280              1814.1291              2373.8626
 Red. masses --      1.0675                11.3916                12.6547
 Frc consts  --      1.4809                22.0889                42.0159
 IR Inten    --      6.1835                97.1845                 5.9240

                     61                     62                     63
                      A                      A                      A
 Frequencies --   3006.8630              3025.1345              3040.6036
 Red. masses --      1.0805                 1.0672                 1.0636
 Frc consts  --      5.7556                 5.7544                 5.7936
 IR Inten    --      4.7339                17.8838                20.5765

                     64                     65                     66
                      A                      A                      A
 Frequencies --   3042.0015              3042.4561              3056.6299
 Red. masses --      1.0653                 1.0608                 1.0364
 Frc consts  --      5.8079                 5.7854                 5.7053
 IR Inten    --     14.2988                 8.1793                35.1343

                     67                     68                     69
                      A                      A                      A
 Frequencies --   3061.1582              3071.1960              3080.4931
 Red. masses --      1.0673                 1.0973                 1.0958
 Frc consts  --      5.8925                 6.0983                 6.1267
 IR Inten    --      7.6091                31.4118                36.5375

                     70                     71                     72
                      A                      A                      A
 Frequencies --   3083.3226              3084.4541              3095.9015
 Red. masses --      1.0923                 1.0966                 1.1021
 Frc consts  --      6.1184                 6.1466                 6.2238
 IR Inten    --     18.4134                48.8744                28.9815

                     73                     74                     75
                      A                      A                      A
 Frequencies --   3106.6732              3120.5936              3146.3263
 Red. masses --      1.0946                 1.1028                 1.1018
 Frc consts  --      6.2247                 6.3271                 6.4266
 IR Inten    --     41.2806                25.8643                18.9824

 - Thermochemistry -
 -------------------
 Temperature   298.150 Kelvin.  Pressure   1.00000 Atm.
 Atom     1 has atomic number  6 and mass  12.00000

 Molecular mass:   165.11536 amu.
 Principal axes and moments of inertia in atomic units:
                           1         2         3
     Eigenvalues --  1576.660872077.084372867.68021
           X            0.99586   0.09019   0.01138
           Y           -0.08979   0.99545  -0.03195
           Z           -0.01421   0.03080   0.99942
 This molecule is an asymmetric top.
 Rotational symmetry number  1.
 Warning -- assumption of classical behavior for rotation
           may cause significant error
 Rotational temperatures (Kelvin)      0.05494     0.04170     0.03020
 Rotational constants (GHZ):           1.14466     0.86888     0.62934
 Zero-point vibrational energy     622123.7 (Joules/Mol)
                                  148.69112 (Kcal/Mol)
 Warning -- explicit consideration of  18 degrees of freedom as
           vibrations may cause significant error
 Vibrational temperatures:     30.82   156.27   178.02   206.73   264.97
          (Kelvin)            302.03   337.48   380.26   393.65   438.68
                              471.18   501.68   609.59   622.83   669.61
                              697.50   833.02   878.96  1015.23  1076.12
                             1142.62  1176.09  1203.46  1272.58  1325.40
                             1340.20  1380.15  1425.20  1484.90  1503.50
                             1566.36  1575.29  1608.59  1618.25  1632.72
                             1659.85  1710.31  1776.91  1805.09  1851.76
                             1876.64  1912.57  1934.24  1943.77  1990.41
                             2007.55  2026.85  2033.24  2041.41  2050.33
                             2064.01  2171.79  2181.39  2184.34  2194.28
                             2196.46  2206.56  2207.70  2610.13  3415.46
                             4326.21  4352.49  4374.75  4376.76  4377.42
                             4397.81  4404.32  4418.77  4432.14  4436.21
                             4437.84  4454.31  4469.81  4489.84  4526.86

 Zero-point correction=                           0.236954 (Hartree/Particle)
 Thermal correction to Energy=                    0.248894
 Thermal correction to Enthalpy=                  0.249839
 Thermal correction to Gibbs Free Energy=         0.198801
 Sum of electronic and zero-point Energies=           -519.868518
 Sum of electronic and thermal Energies=              -519.856578
 Sum of electronic and thermal Enthalpies=            -519.855634
 Sum of electronic and thermal Free Energies=         -519.906672

                     E (Thermal)             CV                S
                      KCal/Mol        Cal/Mol-Kelvin    Cal/Mol-Kelvin
 Total                  156.184             45.479            107.418
 Electronic               0.000              0.000              0.000
 Translational            0.889              2.981             41.213
 Rotational               0.889              2.981             30.619
 Vibrational            154.406             39.518             35.586
 Vibration     1          0.593              1.985              6.498
 Vibration     2          0.606              1.942              3.294
 Vibration     3          0.610              1.929              3.041
 Vibration     4          0.616              1.909              2.754
 Vibration     5          0.631              1.861              2.286
 Vibration     6          0.642              1.826              2.044
 Vibration     7          0.654              1.788              1.844
 Vibration     8          0.671              1.738              1.633
 Vibration     9          0.676              1.722              1.573
 Vibration    10          0.696              1.664              1.390
 Vibration    11          0.711              1.621              1.272
 Vibration    12          0.726              1.578              1.172
 Vibration    13          0.786              1.419              0.880
 Vibration    14          0.794              1.399              0.849
 Vibration    15          0.823              1.327              0.751
 Vibration    16          0.841              1.284              0.697
 Vibration    17          0.936              1.077              0.487
 Vibration    18          0.970              1.009              0.431

 Optimization completed.
    -- Stationary point found.
 Normal termination of Gaussian 16 at Wed Dec  9 17:00:45 2020.

 ----------------------------------------------------------------------
 # B3LYP/6-311++G(d,p) empiricaldispersion=gd3bj scf=xqc pop=npa geom=c
 heck
 ----------------------------------------------------------------------

 ---------------------------------------
 CID_102370458_JID_2064_Energie_neutraal
 ---------------------------------------
 Structure from the checkpoint file:  "JID_2064.chk"
 Charge =  0 Multiplicity = 1

 SCF Done:  E(RB3LYP) =  -520.250409895     A.U. after   14 cycles
 Normal termination of Gaussian 16 at Wed Dec  9 17:03:06 2020.

 ----------------------------------------------------------------------
 # B3LYP/6-311++G(d,p) empiricaldispersion=gd3bj scf=xqc pop=npa geom=c
 heck
 ----------------------------------------------------------------------

 -------------------------------------
 CID_102370458_JID_2064_Energie_kation
 -------------------------------------
 Structure from the checkpoint file:  "JID_2064.chk"
 Charge =  1 Multiplicity = 2

 SCF Done:  E(UB3LYP) =  -519.903514913     A.U. after   22 cycles
 Normal termination of Gaussian 16 at Wed Dec  9 17:08:41 2020.
 Gaussian 16:  ES64L-G16RevA.03 25-Dec-2016

 ----------------------------------------------------------------------
 # B3LYP/6-311++G(d,p) empiricaldispersion=gd3bj scf=xqc pop=npa geom=c
 heck
 ----------------------------------------------------------------------

 ------------------------------------
 CID_102370458_JID_2064_Energie_anion
 ------------------------------------
 Structure from the checkpoint file:  "JID_2064.chk"
 Charge = -1 Multiplicity = 2

                         Standard orientation:
 ---------------------------------------------------------------------
 Center     Atomic      Atomic             Coordinates (Angstroms)
 Number     Number       Type             X           Y           Z
 ---------------------------------------------------------------------
      1          6           0        2.660229    1.377501   -0.729641
      2          6           0        1.538112    0.363231   -0.470718
      3          6           0        1.955085   -0.663842    0.607163
      4          6           0        0.830512   -1.556250    1.152178
      5          6           0        0.059197   -2.388026    0.104609
      6          6           0       -1.287742   -1.817886   -0.377404
      7          6           0       -1.257670   -0.615495   -1.333043
      8          6           0       -1.054667    0.783620   -0.692890
      9          6           0        0.286111    1.069737    0.026541
     10          8           0        0.325949    1.853314    0.951436
     11          6           0       -2.177756    1.104482    0.193969
     12          7           0       -3.093504    1.294208    0.880184
     13          1           0        2.833516    1.980673    0.165801
     14          1           0        2.408935    2.053943   -1.554018
     15          1           0        3.588406    0.857004   -0.988614
     16          1           0        1.317527   -0.170846   -1.399321
     17          1           0        2.751505   -1.289799    0.184034
     18          1           0        2.393730   -0.107172    1.443789
     19          1           0        0.122707   -0.944347    1.727328
     20          1           0        1.286729   -2.236654    1.880756
     21          1           0       -0.159687   -3.369322    0.541927
     22          1           0        0.704270   -2.589502   -0.763209
     23          1           0       -1.911733   -1.571716    0.492105
     24          1           0       -1.814513   -2.623416   -0.903662
     25          1           0       -2.216610   -0.568407   -1.860647
     26          1           0       -0.496218   -0.764065   -2.106430
     27          1           0       -1.070099    1.515220   -1.517211
 ---------------------------------------------------------------------

 SCF Done:  E(UB3LYP) =  -520.247768403     A.U. after   31 cycles

 The electronic state is 2-A.
 Alpha  occ. eigenvalues --  -18.98112 -14.19544 -10.12463 -10.10437 -10.09609
 Alpha  occ. eigenvalues --  -10.07274 -10.06966 -10.06275 -10.06214 -10.06034
 Alpha  occ. eigenvalues --  -10.05872 -10.05838  -0.92233  -0.79335  -0.72329
 Alpha  occ. eigenvalues --   -0.69338  -0.66977  -0.61825  -0.56730  -0.53939
 Alpha  occ. eigenvalues --   -0.50056  -0.46823  -0.42121  -0.38964  -0.38408
 Alpha  occ. eigenvalues --   -0.36236  -0.34493  -0.33706  -0.32441  -0.31245
 Alpha  occ. eigenvalues --   -0.30527  -0.29070  -0.28403  -0.26452  -0.25514
 Alpha  occ. eigenvalues --   -0.25005  -0.24566  -0.24140  -0.23480  -0.22317
 Alpha  occ. eigenvalues --   -0.21852  -0.21299  -0.20686  -0.20201  -0.13012
 Alpha  occ. eigenvalues --    0.04301
 Alpha virt. eigenvalues --    0.07216   0.07552   0.07911   0.09007   0.09891
 Alpha virt. eigenvalues --    0.10178   0.11234   0.11720   0.12276   0.12663
 Alpha virt. eigenvalues --    0.12872   0.13998   0.14214   0.14518   0.14740

  Beta  occ. eigenvalues --  -18.97866 -14.19548 -10.12174 -10.10459 -10.09594
  Beta  occ. eigenvalues --  -10.07229 -10.06982 -10.06264 -10.06178 -10.06013
  Beta  occ. eigenvalues --  -10.05860 -10.05814  -0.91744  -0.79330  -0.72213
  Beta  occ. eigenvalues --   -0.69279  -0.66866  -0.61769  -0.56638  -0.53687
  Beta  occ. eigenvalues --   -0.49951  -0.46657  -0.41914  -0.38834  -0.38085
  Beta  occ. eigenvalues --   -0.36101  -0.34426  -0.33606  -0.32293  -0.30986
  Beta  occ. eigenvalues --   -0.30431  -0.28993  -0.28284  -0.26356  -0.25326
  Beta  occ. eigenvalues --   -0.24857  -0.24310  -0.24084  -0.22950  -0.22258
  Beta  occ. eigenvalues --   -0.21743  -0.21249  -0.20636  -0.19954  -0.12820
  Beta virt. eigenvalues --    0.07101   0.07985   0.08331   0.09473   0.09554
  Beta virt. eigenvalues --    0.10413   0.10874   0.11588   0.12106   0.12427
  Beta virt. eigenvalues --    0.12942   0.13102   0.14173   0.14314   0.14589

 Mulliken charges and spin densities:
               1          2
     1  C   -0.049081  -0.593306
     2  C   -0.218593   0.997566
     3  C    0.227888  -0.898884
     4  C   -0.524961   0.433853
     5  C    0.620323  -0.998261
     6  C   -0.622121   0.175395
     7  C    0.943074  -1.260935
     8  C    0.151494   0.827263
     9  C   -0.174023  -0.427654
    10  O   -0.277935   0.098476
    11  C    0.499535  -1.092121
    12  N   -0.372226   0.049946
    13  H    0.163080   0.010862
    14  H    0.022971   0.108771
    15  H    0.023987   0.115743
    16  H    0.132101  -0.001626
    17  H   -0.209979   0.356621
    18  H    0.126531   0.026921
    19  H    0.196759  -0.035324
    20  H   -0.131034   0.310025
    21  H   -0.200230   0.358445
    22  H   -0.203004   0.351735
    23  H    0.077229   0.068764
    24  H   -0.042648   0.197119
    25  H   -0.253414   0.459414
    26  H   -0.594026   0.761990
    27  H   -0.311700   0.599202
 Sum of Mulliken charges =  -1.00000   1.00000

 Dipole moment (field-independent basis, Debye):
    X=              2.9277    Y=             -0.3933    Z=              1.1691  Tot=              3.1769
 Quadrupole moment (field-independent basis, Debye-Ang):
   XX=           -116.6931   YY=           -115.5645   ZZ=           -107.8972
   XY=             10.0722   XZ=             -0.0137   YZ=             -6.3023

 Summary of Natural Population Analysis:

                                       Natural Population
                Natural  -----------------------------------------------
    Atom  No    Charge         Core      Valence    Rydberg      Total
 -----------------------------------------------------------------------
      C    1   -0.27501      0.99965     2.27039    0.00496     3.27501
      C    2   -0.15830      0.99955     2.14874    0.01001     3.15830
      C    3   -0.17658      0.99961     2.16746    0.00951     3.17658
      C    4   -0.19480      0.99962     2.18637    0.00881     3.19480
      C    5   -0.19174      0.99962     2.18334    0.00878     3.19174
      C    6   -0.19128      0.99961     2.18269    0.00898     3.19128
      C    7   -0.18199      0.99961     2.17194    0.01044     3.18199
      C    8   -0.21002      0.99947     2.19734    0.01322     3.21002
      C    9    0.33753      0.99963     1.63915    0.02369     2.66247
      O   10   -0.26978      0.99987     3.26387    0.00604     4.26978
      C   11    0.18006      0.99965     1.80051    0.01978     2.81994
      N   12   -0.19517      0.99978     2.68517    0.01022     3.69517
      H   13    0.10405      0.00000     0.39491    0.00104     0.39595
      H   14    0.09773      0.00000     0.40145    0.00082     0.40227
      H   15    0.09505      0.00000     0.40413    0.00082     0.40495
      H   16    0.10053      0.00000     0.39709    0.00237     0.39947
      H   17    0.09598      0.00000     0.40277    0.00126     0.40402
      H   18    0.09929      0.00000     0.39968    0.00104     0.40071
      H   19    0.09977      0.00000     0.39891    0.00132     0.40023
      H   20    0.09805      0.00000     0.40106    0.00088     0.40195
      H   21    0.09819      0.00000     0.40074    0.00106     0.40181
      H   22    0.09501      0.00000     0.40338    0.00161     0.40499
      H   23    0.09817      0.00000     0.40065    0.00118     0.40183
      H   24    0.09971      0.00000     0.39924    0.00105     0.40029
      H   25    0.10550      0.00000     0.39262    0.00188     0.39450
      H   26    0.10288      0.00000     0.39493    0.00219     0.39712
      H   27    0.13717      0.00000     0.35887    0.00396     0.36283
 =======================================================================
   * Total *    0.00000     11.99568    32.84738    0.15694    45.00000

 Normal termination of Gaussian 16 at Wed Dec  9 17:15:52 2020.
