 Gaussian 16, Revision A.03,

 -----------------------------------------------------------
 # opt freq B3LYP/6-31G(d) empiricaldispersion=gd3bj scf=xqc
 -----------------------------------------------------------

 -------------------------------
 CID_105450453_JID_4711_neutraal
 -------------------------------
 Symbolic Z-matrix:
 Charge =  0 Multiplicity = 1

 SCF Done:  E(RB3LYP) =  -705.193192576     A.U. after   15 cycles
 SCF Done:  E(RB3LYP) =  -705.198474119     A.U. after   12 cycles
 SCF Done:  E(RB3LYP) =  -705.199085148     A.U. after   13 cycles
 SCF Done:  E(RB3LYP) =  -705.199110505     A.U. after   12 cycles
 SCF Done:  E(RB3LYP) =  -705.199778575     A.U. after   12 cycles
 SCF Done:  E(RB3LYP) =  -705.199791498     A.U. after   11 cycles
 SCF Done:  E(RB3LYP) =  -705.199903225     A.U. after   12 cycles
 SCF Done:  E(RB3LYP) =  -705.199925262     A.U. after   10 cycles
 SCF Done:  E(RB3LYP) =  -705.199929693     A.U. after   10 cycles
 SCF Done:  E(RB3LYP) =  -705.199929921     A.U. after    8 cycles
 SCF Done:  E(RB3LYP) =  -705.199929921     A.U. after    7 cycles
 Optimization completed.
    -- Stationary point found.
 Normal termination of Gaussian 16 at Thu Dec 10 10:23:17 2020.

 --------------------------------------------------------------------
 #N Geom=AllCheck Guess=TCheck SCRF=Check GenChk RB3LYP/6-31G(d) Freq
 --------------------------------------------------------------------

 Structure from the checkpoint file:  "JID_4711.chk"
 -------------------------------
 CID_105450453_JID_4711_neutraal
 -------------------------------
 Charge =  0 Multiplicity = 1

 SCF Done:  E(RB3LYP) =  -705.199929921     A.U. after    1 cycles

  Exact polarizability: 156.560   3.479  76.541  -6.012  -1.860 103.273
 Approx polarizability: 214.984   8.668 107.510  -7.523  -3.628 183.268

                      1                      2                      3
                      A                      A                      A
 Frequencies --     36.2218                37.8210                65.0935
 Red. masses --      4.6611                 8.2797                 4.5509
 Frc consts  --      0.0036                 0.0070                 0.0114
 IR Inten    --      0.4814                 0.9954                 0.2438

                      4                      5                      6
                      A                      A                      A
 Frequencies --     98.0337               129.7102               162.8048
 Red. masses --      3.8739                 4.5711                 3.1209
 Frc consts  --      0.0219                 0.0453                 0.0487
 IR Inten    --      2.0914                 1.4410                12.6259

                      7                      8                      9
                      A                      A                      A
 Frequencies --    184.6571               226.8841               239.5217
 Red. masses --      4.1035                 3.1712                 1.4317
 Frc consts  --      0.0824                 0.0962                 0.0484
 IR Inten    --      2.7048                10.8987                27.9352

                     10                     11                     12
                      A                      A                      A
 Frequencies --    258.1379               293.4763               333.7960
 Red. masses --      1.3262                 3.6229                 4.5368
 Frc consts  --      0.0521                 0.1838                 0.2978
 IR Inten    --      2.8266                 5.7389                 5.8804

                     13                     14                     15
                      A                      A                      A
 Frequencies --    358.1796               390.2905               428.0057
 Red. masses --      6.8748                 5.9513                 3.1502
 Frc consts  --      0.5196                 0.5341                 0.3400
 IR Inten    --      0.4874                 1.3868                 0.0210

                     16                     17                     18
                      A                      A                      A
 Frequencies --    432.8066               506.6550               530.4948
 Red. masses --      5.1481                 3.7758                 2.7231
 Frc consts  --      0.5682                 0.5711                 0.4515
 IR Inten    --      3.4158                 6.1134                 1.2836

                     19                     20                     21
                      A                      A                      A
 Frequencies --    598.7223               603.1561               649.9031
 Red. masses --      4.1764                 1.6505                 6.7676
 Frc consts  --      0.8821                 0.3538                 1.6842
 IR Inten    --     71.4414                45.9454                 3.5624

                     22                     23                     24
                      A                      A                      A
 Frequencies --    700.8660               702.1977               747.8222
 Red. masses --      3.9808                 2.9314                 4.2982
 Frc consts  --      1.1521                 0.8516                 1.4162
 IR Inten    --     42.3903                56.0704                28.6288

                     25                     26                     27
                      A                      A                      A
 Frequencies --    812.9662               820.8478               847.2014
 Red. masses --      3.7875                 1.3891                 1.7594
 Frc consts  --      1.4749                 0.5514                 0.7440
 IR Inten    --      6.2696                 5.8148                33.8441

                     28                     29                     30
                      A                      A                      A
 Frequencies --    872.9613               917.4168               937.7445
 Red. masses --      5.5225                 3.7971                 1.8063
 Frc consts  --      2.4796                 1.8829                 0.9358
 IR Inten    --      4.5160                16.4643                 1.3419

                     31                     32                     33
                      A                      A                      A
 Frequencies --    943.5440               963.3576              1035.7453
 Red. masses --      2.7277                 1.3294                 2.9982
 Frc consts  --      1.4308                 0.7269                 1.8950
 IR Inten    --      8.3363                 2.1904                15.6816

                     34                     35                     36
                      A                      A                      A
 Frequencies --   1046.1937              1083.6118              1149.3895
 Red. masses --      3.5111                 6.1748                 1.3283
 Frc consts  --      2.2642                 4.2719                 1.0339
 IR Inten    --    108.7393                53.7209                 7.8816

                     37                     38                     39
                      A                      A                      A
 Frequencies --   1176.2886              1186.5968              1215.5955
 Red. masses --      2.4868                 1.2717                 1.1653
 Frc consts  --      2.0273                 1.0550                 1.0145
 IR Inten    --    214.4508                 0.8665                36.8232

                     40                     41                     42
                      A                      A                      A
 Frequencies --   1219.6358              1228.2716              1259.7039
 Red. masses --      1.4176                 2.0530                 1.5124
 Frc consts  --      1.2424                 1.8248                 1.4141
 IR Inten    --     12.3447                21.7023                41.7141

                     43                     44                     45
                      A                      A                      A
 Frequencies --   1290.2596              1309.0461              1333.1024
 Red. masses --      2.5103                 2.5203                 1.3467
 Frc consts  --      2.4622                 2.5445                 1.4101
 IR Inten    --    105.6830               168.2494                 7.0674

                     46                     47                     48
                      A                      A                      A
 Frequencies --   1353.3349              1358.8099              1385.5306
 Red. masses --      1.3482                 1.6182                 2.1439
 Frc consts  --      1.4549                 1.7603                 2.4249
 IR Inten    --      9.2538                26.0790                28.4831

                     49                     50                     51
                      A                      A                      A
 Frequencies --   1405.6201              1474.3653              1500.3638
 Red. masses --      2.3088                 2.8383                 1.1982
 Frc consts  --      2.6877                 3.6351                 1.5892
 IR Inten    --     21.4555                 2.4058                14.3919

                     52                     53                     54
                      A                      A                      A
 Frequencies --   1521.1835              1535.9570              1569.3182
 Red. masses --      1.0478                 1.0627                 2.4507
 Frc consts  --      1.4285                 1.4771                 3.5560
 IR Inten    --      5.4121                40.9653                85.4727

                     55                     56                     57
                      A                      A                      A
 Frequencies --   1638.1860              1664.3328              1677.1554
 Red. masses --      6.5393                 1.0768                 5.7510
 Frc consts  --     10.3398                 1.7574                 9.5310
 IR Inten    --     14.1464                53.3537                82.4099

                     58                     59                     60
                      A                      A                      A
 Frequencies --   1847.6869              3025.8538              3075.0527
 Red. masses --      9.5192                 1.0348                 1.0833
 Frc consts  --     19.1474                 5.5821                 6.0352
 IR Inten    --    265.6063                56.6749                11.0545

                     61                     62                     63
                      A                      A                      A
 Frequencies --   3084.4269              3159.4604              3182.2557
 Red. masses --      1.1066                 1.0997                 1.0894
 Frc consts  --      6.2029                 6.4678                 6.5001
 IR Inten    --     43.5829                28.1508                14.1971

                     64                     65                     66
                      A                      A                      A
 Frequencies --   3210.8085              3227.8641              3229.5335
 Red. masses --      1.0882                 1.0938                 1.0918
 Frc consts  --      6.6100                 6.7148                 6.7091
 IR Inten    --      6.1446                11.7619                 6.4193

                     67                     68                     69
                      A                      A                      A
 Frequencies --   3437.9368              3543.2363              3682.2890
 Red. masses --      1.0474                 1.0968                 1.0640
 Frc consts  --      7.2937                 8.1129                 8.5004
 IR Inten    --      1.3734                 0.3945                50.5154

 - Thermochemistry -
 -------------------
 Temperature   298.150 Kelvin.  Pressure   1.00000 Atm.
 Atom     1 has atomic number  6 and mass  12.00000

 Molecular mass:   197.06881 amu.
 Principal axes and moments of inertia in atomic units:
                           1         2         3
     Eigenvalues --  1169.813625189.815115408.65615
           X            0.99995   0.00403  -0.00901
           Y           -0.00434   0.99943  -0.03361
           Z            0.00887   0.03365   0.99939
 This molecule is an asymmetric top.
 Rotational symmetry number  1.
 Warning -- assumption of classical behavior for rotation
           may cause significant error
 Rotational temperatures (Kelvin)      0.07404     0.01669     0.01601
 Rotational constants (GHZ):           1.54276     0.34775     0.33368
 Zero-point vibrational energy     521304.5 (Joules/Mol)
                                  124.59476 (Kcal/Mol)
 Warning -- explicit consideration of  20 degrees of freedom as
           vibrations may cause significant error
 Vibrational temperatures:     52.12    54.42    93.65   141.05   186.62
          (Kelvin)            234.24   265.68   326.44   344.62   371.40
                              422.25   480.26   515.34   561.54   615.80
                              622.71   728.96   763.26   861.43   867.81
                              935.07  1008.39  1010.31  1075.95  1169.68
                             1181.02  1218.93  1256.00  1319.96  1349.21
                             1357.55  1386.06  1490.21  1505.24  1559.08
                             1653.72  1692.42  1707.25  1748.97  1754.78
                             1767.21  1812.43  1856.40  1883.43  1918.04
                             1947.15  1955.02  1993.47  2022.37  2121.28
                             2158.69  2188.64  2209.90  2257.90  2356.98
                             2394.60  2413.05  2658.41  4353.53  4424.32
                             4437.80  4545.76  4578.56  4619.64  4644.18
                             4646.58  4946.42  5097.93  5297.99

 Zero-point correction=                           0.198554 (Hartree/Particle)
 Thermal correction to Energy=                    0.212032
 Thermal correction to Enthalpy=                  0.212976
 Thermal correction to Gibbs Free Energy=         0.157298
 Sum of electronic and zero-point Energies=           -705.001376
 Sum of electronic and thermal Energies=              -704.987898
 Sum of electronic and thermal Enthalpies=            -704.986954
 Sum of electronic and thermal Free Energies=         -705.042632

                     E (Thermal)             CV                S
                      KCal/Mol        Cal/Mol-Kelvin    Cal/Mol-Kelvin
 Total                  133.052             49.720            117.184
 Electronic               0.000              0.000              0.000
 Translational            0.889              2.981             41.740
 Rotational               0.889              2.981             31.863
 Vibrational            131.274             43.759             43.582
 Vibration     1          0.594              1.982              5.456
 Vibration     2          0.594              1.982              5.370
 Vibration     3          0.597              1.971              4.296
 Vibration     4          0.603              1.951              3.493
 Vibration     5          0.612              1.924              2.950
 Vibration     6          0.623              1.888              2.517
 Vibration     7          0.631              1.861              2.281
 Vibration     8          0.651              1.800              1.903
 Vibration     9          0.657              1.780              1.806
 Vibration    10          0.667              1.749              1.674
 Vibration    11          0.688              1.686              1.454
 Vibration    12          0.715              1.608              1.242
 Vibration    13          0.733              1.558              1.130
 Vibration    14          0.758              1.491              0.999
 Vibration    15          0.790              1.409              0.865
 Vibration    16          0.794              1.399              0.850
 Vibration    17          0.862              1.235              0.642
 Vibration    18          0.885              1.183              0.586
 Vibration    19          0.957              1.035              0.452
 Vibration    20          0.962              1.025              0.444

 Optimization completed.
    -- Stationary point found.
 Normal termination of Gaussian 16 at Thu Dec 10 10:30:03 2020.

 ----------------------------------------------------------------------
 # B3LYP/6-311++G(d,p) empiricaldispersion=gd3bj scf=xqc pop=npa geom=c
 heck
 ----------------------------------------------------------------------

 ---------------------------------------
 CID_105450453_JID_4711_Energie_neutraal
 ---------------------------------------
 Structure from the checkpoint file:  "JID_4711.chk"
 Charge =  0 Multiplicity = 1

 SCF Done:  E(RB3LYP) =  -705.417683769     A.U. after   15 cycles
 Normal termination of Gaussian 16 at Thu Dec 10 10:33:14 2020.

 ----------------------------------------------------------------------
 # B3LYP/6-311++G(d,p) empiricaldispersion=gd3bj scf=xqc pop=npa geom=c
 heck
 ----------------------------------------------------------------------

 -------------------------------------
 CID_105450453_JID_4711_Energie_kation
 -------------------------------------
 Structure from the checkpoint file:  "JID_4711.chk"
 Charge =  1 Multiplicity = 2

 SCF Done:  E(UB3LYP) =  -705.119976201     A.U. after   26 cycles
 Normal termination of Gaussian 16 at Thu Dec 10 10:40:59 2020.
 Gaussian 16:  ES64L-G16RevA.03 25-Dec-2016

 ----------------------------------------------------------------------
 # B3LYP/6-311++G(d,p) empiricaldispersion=gd3bj scf=xqc pop=npa geom=c
 heck
 ----------------------------------------------------------------------

 ------------------------------------
 CID_105450453_JID_4711_Energie_anion
 ------------------------------------
 Structure from the checkpoint file:  "JID_4711.chk"
 Charge = -1 Multiplicity = 2

                         Standard orientation:
 ---------------------------------------------------------------------
 Center     Atomic      Atomic             Coordinates (Angstroms)
 Number     Number       Type             X           Y           Z
 ---------------------------------------------------------------------
      1          6           0       -4.759133   -0.064870    0.215838
      2          8           0       -3.726252   -0.074593   -0.754975
      3          6           0       -2.435973   -0.033625   -0.314611
      4          6           0       -1.451385   -0.047550   -1.313801
      5          6           0       -0.108598   -0.011113   -0.970958
      6          6           0        0.287649    0.040085    0.374443
      7          6           0       -0.700217    0.052419    1.357549
      8          6           0       -2.057481    0.016376    1.030647
      9          6           0        1.744536    0.117448    0.773580
     10          6           0        2.625182   -0.856469   -0.010968
     11          8           0        3.559170   -0.556598   -0.719785
     12          8           0        2.242955   -2.137213    0.200348
     13          8           0        2.308974    1.421288    0.740365
     14          7           0        2.229039    1.955746   -0.601307
     15          1           0       -5.696156   -0.101209   -0.342277
     16          1           0       -4.732563    0.849708    0.822832
     17          1           0       -4.696701   -0.937781    0.878962
     18          1           0       -1.768143   -0.086267   -2.350952
     19          1           0        0.645166   -0.007917   -1.750283
     20          1           0       -0.412876    0.092042    2.405460
     21          1           0       -2.797398    0.024443    1.821922
     22          1           0        1.833337   -0.167389    1.828573
     23          1           0        2.850093   -2.691502   -0.325391
     24          1           0        2.032955    2.940995   -0.424305
     25          1           0        3.192763    1.895392   -0.933330
 ---------------------------------------------------------------------

 SCF Done:  E(UB3LYP) =  -705.404361985     A.U. after   33 cycles
 SCF Done:  E(UB3LYP) =  -705.404361985     a.u. after    1 cycles

 The electronic state is 2-A.
 Alpha  occ. eigenvalues --  -19.07798 -19.06667 -19.05900 -19.02893 -14.25998
 Alpha  occ. eigenvalues --  -10.21595 -10.15018 -10.14105 -10.12207 -10.08433
 Alpha  occ. eigenvalues --  -10.08342 -10.08145 -10.07680 -10.07642  -1.02234
 Alpha  occ. eigenvalues --   -0.98138  -0.97513  -0.93182  -0.76929  -0.74394
 Alpha  occ. eigenvalues --   -0.67596  -0.65816  -0.62676  -0.59126  -0.52374
 Alpha  occ. eigenvalues --   -0.51726  -0.48754  -0.44496  -0.43910  -0.41904
 Alpha  occ. eigenvalues --   -0.40685  -0.39570  -0.39127  -0.37295  -0.36372
 Alpha  occ. eigenvalues --   -0.35645  -0.35030  -0.33371  -0.32679  -0.32031
 Alpha  occ. eigenvalues --   -0.30413  -0.28374  -0.27363  -0.26582  -0.23986
 Alpha  occ. eigenvalues --   -0.23543  -0.22991  -0.21602  -0.18818  -0.17263
 Alpha  occ. eigenvalues --   -0.15943  -0.13062   0.04309
 Alpha virt. eigenvalues --    0.05824   0.06833   0.07240   0.07731   0.08408
 Alpha virt. eigenvalues --    0.08466   0.09131   0.09722   0.09902   0.10640
 Alpha virt. eigenvalues --    0.11370   0.12072   0.13095   0.13669   0.14240

  Beta  occ. eigenvalues --  -19.07748 -19.06662 -19.05889 -19.02872 -14.25985
  Beta  occ. eigenvalues --  -10.21578 -10.15006 -10.14106 -10.12150 -10.08431
  Beta  occ. eigenvalues --  -10.08329 -10.08136 -10.07661 -10.07640  -1.02165
  Beta  occ. eigenvalues --   -0.98119  -0.97488  -0.93122  -0.76910  -0.74366
  Beta  occ. eigenvalues --   -0.67568  -0.65788  -0.62615  -0.59051  -0.52335
  Beta  occ. eigenvalues --   -0.51654  -0.48700  -0.44456  -0.43873  -0.41877
  Beta  occ. eigenvalues --   -0.40642  -0.39531  -0.39089  -0.37260  -0.36327
  Beta  occ. eigenvalues --   -0.35611  -0.34984  -0.33342  -0.32626  -0.31994
  Beta  occ. eigenvalues --   -0.30370  -0.28349  -0.27336  -0.26545  -0.23934
  Beta  occ. eigenvalues --   -0.23500  -0.22956  -0.21570  -0.18779  -0.17249
  Beta  occ. eigenvalues --   -0.15926  -0.13047
  Beta virt. eigenvalues --    0.06516   0.07207   0.07423   0.07654   0.07967
  Beta virt. eigenvalues --    0.08502   0.09038   0.09301   0.10223   0.10536
  Beta virt. eigenvalues --    0.11002   0.11842   0.12200   0.13233   0.13689

 Mulliken charges and spin densities:
               1          2
     1  C    1.111673  -1.424273
     2  O   -0.215462   0.070303
     3  C   -0.475191  -0.056079
     4  C   -1.259615   0.628944
     5  C   -0.610407   0.329765
     6  C    1.696548  -0.469109
     7  C    0.416756  -0.396193
     8  C    0.603438  -0.142918
     9  C    0.210469  -1.259403
    10  C    0.502430  -0.607909
    11  O   -0.324275   0.031766
    12  O   -0.181850   0.056434
    13  O   -0.041966   0.032181
    14  N   -0.359667  -0.090743
    15  H   -0.648893   0.823599
    16  H   -0.365390   0.523421
    17  H   -0.299082   0.458931
    18  H    0.052753   0.123156
    19  H    0.098245   0.080086
    20  H   -0.521626   0.687020
    21  H   -0.405865   0.609578
    22  H    0.011228   0.195535
    23  H   -0.357916   0.665827
    24  H    0.157266   0.088988
    25  H    0.206397   0.041096
 Sum of Mulliken charges =  -1.00000   1.00000

 Dipole moment (field-independent basis, Debye):
    X=              5.2656    Y=              3.2312    Z=             -2.6080  Tot=              6.7059
 Quadrupole moment (field-independent basis, Debye-Ang):
   XX=           -180.6703   YY=           -115.0442   ZZ=           -111.7159
   XY=             10.4907   XZ=              8.0199   YZ=             -1.9372

 Summary of Natural Population Analysis:

                                       Natural Population
                Natural  -----------------------------------------------
    Atom  No    Charge         Core      Valence    Rydberg      Total
 -----------------------------------------------------------------------
      C    1   -0.10102      0.99960     2.09229    0.00912     3.10102
      O    2   -0.27234      0.99986     3.26242    0.01007     4.27234
      C    3    0.16482      0.99939     1.82166    0.01413     2.83518
      C    4   -0.11995      0.99953     2.11132    0.00911     3.11995
      C    5   -0.07853      0.99952     2.07092    0.00809     3.07853
      C    6   -0.05097      0.99948     2.03924    0.01225     3.05097
      C    7   -0.07819      0.99952     2.06795    0.01071     3.07819
      C    8   -0.14325      0.99952     2.13466    0.00907     3.14325
      C    9    0.01656      0.99945     1.96501    0.01897     2.98344
      C   10    0.40310      0.99971     1.57039    0.02680     2.59690
      O   11   -0.30667      0.99987     3.30018    0.00662     4.30667
      O   12   -0.33929      0.99987     3.33261    0.00681     4.33929
      O   13   -0.23009      0.99990     3.21902    0.01118     4.23009
      N   14   -0.25446      0.99976     2.74419    0.01051     3.75446
      H   15    0.09503      0.00000     0.40327    0.00170     0.40497
      H   16    0.08662      0.00000     0.41101    0.00237     0.41338
      H   17    0.08676      0.00000     0.41111    0.00214     0.41324
      H   18    0.10454      0.00000     0.39411    0.00135     0.39546
      H   19    0.10703      0.00000     0.39153    0.00144     0.39297
      H   20    0.10171      0.00000     0.39679    0.00150     0.39829
      H   21    0.10996      0.00000     0.38805    0.00200     0.39004
      H   22    0.11264      0.00000     0.38504    0.00231     0.38736
      H   23    0.24361      0.00000     0.24127    0.01512     0.25639
      H   24    0.16857      0.00000     0.32972    0.00171     0.33143
      H   25    0.17383      0.00000     0.32444    0.00173     0.32617
 =======================================================================
   * Total *    0.00000     13.99497    37.80821    0.19682    52.00000

 Normal termination of Gaussian 16 at Thu Dec 10 10:50:24 2020.
