 Gaussian 16, Revision A.03,

 -----------------------------------------------------------
 # opt freq B3LYP/6-31G(d) empiricaldispersion=gd3bj scf=xqc
 -----------------------------------------------------------

 ----------------------------
 CID_64724179_JID_79_neutraal
 ----------------------------
 Symbolic Z-matrix:
 Charge =  0 Multiplicity = 1

 SCF Done:  E(RB3LYP) =  -876.940334204     A.U. after   14 cycles
 SCF Done:  E(RB3LYP) =  -876.943423734     A.U. after   13 cycles
 SCF Done:  E(RB3LYP) =  -876.944022269     A.U. after   12 cycles
 SCF Done:  E(RB3LYP) =  -876.944302708     A.U. after   12 cycles
 SCF Done:  E(RB3LYP) =  -876.944772653     A.U. after   13 cycles
 SCF Done:  E(RB3LYP) =  -876.944823998     A.U. after   13 cycles
 SCF Done:  E(RB3LYP) =  -876.945653586     A.U. after   12 cycles
 SCF Done:  E(RB3LYP) =  -876.945766699     A.U. after   11 cycles
 SCF Done:  E(RB3LYP) =  -876.945790542     A.U. after   10 cycles
 SCF Done:  E(RB3LYP) =  -876.945794185     A.U. after    9 cycles
 SCF Done:  E(RB3LYP) =  -876.945795025     A.U. after    8 cycles
 SCF Done:  E(RB3LYP) =  -876.945795258     A.U. after    8 cycles
 Optimization completed.
    -- Stationary point found.
 Normal termination of Gaussian 16 at Tue Dec  8 10:16:56 2020.

 --------------------------------------------------------------------
 #N Geom=AllCheck Guess=TCheck SCRF=Check GenChk RB3LYP/6-31G(d) Freq
 --------------------------------------------------------------------

 Structure from the checkpoint file:  "JID_79.chk"
 ----------------------------
 CID_64724179_JID_79_neutraal
 ----------------------------
 Charge =  0 Multiplicity = 1

 SCF Done:  E(RB3LYP) =  -876.945795258     A.U. after    1 cycles

  Exact polarizability:  98.961   1.701  79.170  -4.061   0.147  77.376
 Approx polarizability: 124.798  -2.729 119.169  -4.851   4.934 120.155

                      1                      2                      3
                      A                      A                      A
 Frequencies --     45.2639                67.5198                95.6882
 Red. masses --      4.4001                 3.5513                 3.9534
 Frc consts  --      0.0053                 0.0095                 0.0213
 IR Inten    --      5.8007                 1.3957                 9.1814

                      4                      5                      6
                      A                      A                      A
 Frequencies --    181.4102               218.2528               219.5991
 Red. masses --      2.7500                 1.1293                 3.5384
 Frc consts  --      0.0533                 0.0317                 0.1005
 IR Inten    --      7.4636                 0.1025                 1.7157

                      7                      8                      9
                      A                      A                      A
 Frequencies --    249.4987               267.7901               289.5969
 Red. masses --      1.1207                 1.5375                 1.9158
 Frc consts  --      0.0411                 0.0650                 0.0947
 IR Inten    --      3.3350                 0.1640                 1.2803

                     10                     11                     12
                      A                      A                      A
 Frequencies --    319.8672               336.8837               340.0489
 Red. masses --      3.0755                 2.9584                 2.2814
 Frc consts  --      0.1854                 0.1978                 0.1554
 IR Inten    --      0.6459                 1.3483                 4.1576

                     13                     14                     15
                      A                      A                      A
 Frequencies --    390.4655               433.4581               457.1312
 Red. masses --      2.4697                 2.1835                 2.3367
 Frc consts  --      0.2218                 0.2417                 0.2877
 IR Inten    --      4.5303                24.1631                 8.9663

                     16                     17                     18
                      A                      A                      A
 Frequencies --    460.4140               499.9445               524.8338
 Red. masses --      4.2386                 5.2704                 1.5703
 Frc consts  --      0.5294                 0.7761                 0.2549
 IR Inten    --      9.3141                24.6265               214.8928

                     19                     20                     21
                      A                      A                      A
 Frequencies --    544.1190               640.3149               706.3455
 Red. masses --      3.1006                 1.9996                 3.9900
 Frc consts  --      0.5409                 0.4830                 1.1729
 IR Inten    --      6.0676               102.0353                 9.0349

                     22                     23                     24
                      A                      A                      A
 Frequencies --    784.1853               819.4440               913.2377
 Red. masses --      3.9353                 3.1006                 1.9303
 Frc consts  --      1.4258                 1.2267                 0.9485
 IR Inten    --     20.7064               100.6482                 5.2205

                     25                     26                     27
                      A                      A                      A
 Frequencies --    935.6929               963.7893              1000.4933
 Red. masses --      1.9594                 1.6690                 1.4653
 Frc consts  --      1.0107                 0.9134                 0.8642
 IR Inten    --     27.9399                25.3775                21.9908

                     28                     29                     30
                      A                      A                      A
 Frequencies --   1010.6802              1013.7426              1037.0948
 Red. masses --      1.4498                 1.4220                 1.4472
 Frc consts  --      0.8726                 0.8610                 0.9171
 IR Inten    --     11.4873                12.2969                 4.3503

                     31                     32                     33
                      A                      A                      A
 Frequencies --   1071.3624              1130.7966              1163.8694
 Red. masses --      3.5377                 9.5144                 1.7179
 Frc consts  --      2.3925                 7.1680                 1.3711
 IR Inten    --     84.4608               161.5204                42.7662

                     34                     35                     36
                      A                      A                      A
 Frequencies --   1217.6424              1268.8009              1314.2386
 Red. masses --      1.8409                 2.6692                 1.7784
 Frc consts  --      1.6081                 2.5317                 1.8098
 IR Inten    --     41.3715                24.6991                15.6582

                     37                     38                     39
                      A                      A                      A
 Frequencies --   1336.6718              1365.1522              1385.9971
 Red. masses --      3.8432                 1.3334                 1.2134
 Frc consts  --      4.0457                 1.4642                 1.3733
 IR Inten    --    161.4804                31.6781                 7.9978

                     40                     41                     42
                      A                      A                      A
 Frequencies --   1414.1817              1430.2031              1442.5381
 Red. masses --      1.3182                 1.2924                 1.3958
 Frc consts  --      1.5533                 1.5575                 1.7114
 IR Inten    --     17.4502                47.9677                30.1103

                     43                     44                     45
                      A                      A                      A
 Frequencies --   1447.6784              1487.9991              1497.1292
 Red. masses --      1.3442                 1.0542                 1.0502
 Frc consts  --      1.6598                 1.3753                 1.3869
 IR Inten    --      8.3832                 4.5861                 9.2139

                     46                     47                     48
                      A                      A                      A
 Frequencies --   1508.2114              1520.2507              1523.7490
 Red. masses --      1.0603                 1.0659                 1.0639
 Frc consts  --      1.4210                 1.4514                 1.4554
 IR Inten    --      0.2856                 0.9074                 5.9131

                     49                     50                     51
                      A                      A                      A
 Frequencies --   1529.8464              1541.3376              3046.2803
 Red. masses --      1.0774                 1.0546                 1.0367
 Frc consts  --      1.4857                 1.4762                 5.6681
 IR Inten    --      2.9511                 5.2587                18.7907

                     52                     53                     54
                      A                      A                      A
 Frequencies --   3059.9617              3070.2860              3086.1037
 Red. masses --      1.0372                 1.0630                 1.0291
 Frc consts  --      5.7218                 5.9040                 5.7745
 IR Inten    --      6.9890                27.3959                 1.2302

                     55                     56                     57
                      A                      A                      A
 Frequencies --   3110.4595              3130.2461              3132.5070
 Red. masses --      1.1012                 1.1022                 1.1016
 Frc consts  --      6.2774                 6.3629                 6.3688
 IR Inten    --     32.6157                 7.2652                 0.7140

                     58                     59                     60
                      A                      A                      A
 Frequencies --   3137.2717              3139.4102              3190.2850
 Red. masses --      1.1022                 1.1022                 1.1075
 Frc consts  --      6.3917                 6.4005                 6.6414
 IR Inten    --     31.1989                30.4249                 0.8231

                     61                     62                     63
                      A                      A                      A
 Frequencies --   3192.3495              3552.6833              3703.1572
 Red. masses --      1.1077                 1.0758                 1.0647
 Frc consts  --      6.6511                 8.0003                 8.6024
 IR Inten    --      1.2233                34.8706                17.8176

 - Thermochemistry -
 -------------------
 Temperature   298.150 Kelvin.  Pressure   1.00000 Atm.
 Atom     1 has atomic number  6 and mass  12.00000

 Molecular mass:   167.06162 amu.
 Principal axes and moments of inertia in atomic units:
                           1         2         3
     Eigenvalues --   806.678402865.166242891.02767
           X            0.99966   0.01770  -0.01924
           Y           -0.01985   0.99285  -0.11771
           Z            0.01702   0.11805   0.99286
 This molecule is an asymmetric top.
 Rotational symmetry number  1.
 Warning -- assumption of classical behavior for rotation
           may cause significant error
 Rotational temperatures (Kelvin)      0.10737     0.03023     0.02996
 Rotational constants (GHZ):           2.23725     0.62989     0.62426
 Zero-point vibrational energy     507907.3 (Joules/Mol)
                                  121.39275 (Kcal/Mol)
 Warning -- explicit consideration of  19 degrees of freedom as
           vibrations may cause significant error
 Vibrational temperatures:     65.12    97.15   137.67   261.01   314.02
          (Kelvin)            315.95   358.97   385.29   416.67   460.22
                              484.70   489.25   561.79   623.65   657.71
                              662.43   719.31   755.12   782.87   921.27
                             1016.27  1128.27  1179.00  1313.95  1346.25
                             1386.68  1439.49  1454.14  1458.55  1492.15
                             1541.45  1626.96  1674.55  1751.92  1825.52
                             1890.90  1923.17  1964.15  1994.14  2034.69
                             2057.74  2075.49  2082.89  2140.90  2154.04
                             2169.98  2187.30  2192.33  2201.11  2217.64
                             4382.92  4402.60  4417.46  4440.21  4475.26
                             4503.73  4506.98  4513.83  4516.91  4590.11
                             4593.08  5111.52  5328.02

 Zero-point correction=                           0.193452 (Hartree/Particle)
 Thermal correction to Energy=                    0.205463
 Thermal correction to Enthalpy=                  0.206407
 Thermal correction to Gibbs Free Energy=         0.155754
 Sum of electronic and zero-point Energies=           -876.752344
 Sum of electronic and thermal Energies=              -876.740332
 Sum of electronic and thermal Enthalpies=            -876.739388
 Sum of electronic and thermal Free Energies=         -876.790041

                     E (Thermal)             CV                S
                      KCal/Mol        Cal/Mol-Kelvin    Cal/Mol-Kelvin
 Total                  128.930             44.927            106.608
 Electronic               0.000              0.000              0.000
 Translational            0.889              2.981             41.248
 Rotational               0.889              2.981             30.281
 Vibrational            127.152             38.966             35.080
 Vibration     1          0.595              1.979              5.014
 Vibration     2          0.598              1.970              4.224
 Vibration     3          0.603              1.952              3.540
 Vibration     4          0.630              1.865              2.314
 Vibration     5          0.646              1.813              1.974
 Vibration     6          0.647              1.811              1.962
 Vibration     7          0.662              1.764              1.734
 Vibration     8          0.673              1.732              1.610
 Vibration     9          0.686              1.693              1.476
 Vibration    10          0.706              1.636              1.311
 Vibration    11          0.718              1.602              1.227
 Vibration    12          0.720              1.595              1.212
 Vibration    13          0.758              1.491              0.998
 Vibration    14          0.794              1.397              0.847
 Vibration    15          0.815              1.345              0.774
 Vibration    16          0.818              1.338              0.765
 Vibration    17          0.855              1.250              0.658
 Vibration    18          0.880              1.195              0.599
 Vibration    19          0.899              1.153              0.556

                           ! Non-Optimized Parameters !
 Normal termination of Gaussian 16 at Tue Dec  8 10:20:48 2020.

 ----------------------------------------------------------------------
 # B3LYP/6-311++G(d,p) empiricaldispersion=gd3bj scf=xqc pop=npa geom=c
 heck
 ----------------------------------------------------------------------

 ------------------------------------
 CID_64724179_JID_79_Energie_neutraal
 ------------------------------------
 Structure from the checkpoint file:  "JID_79.chk"
 Charge =  0 Multiplicity = 1

 SCF Done:  E(RB3LYP) =  -877.129351667     A.U. after   14 cycles
 Normal termination of Gaussian 16 at Tue Dec  8 10:22:13 2020.

 ----------------------------------------------------------------------
 # B3LYP/6-311++G(d,p) empiricaldispersion=gd3bj scf=xqc pop=npa geom=c
 heck
 ----------------------------------------------------------------------

 ----------------------------------
 CID_64724179_JID_79_Energie_kation
 ----------------------------------
 Structure from the checkpoint file:  "JID_79.chk"
 Charge =  1 Multiplicity = 2

 SCF Done:  E(UB3LYP) =  -876.771612358     A.U. after   24 cycles
 Normal termination of Gaussian 16 at Tue Dec  8 10:25:23 2020.
 Gaussian 16:  ES64L-G16RevA.03 25-Dec-2016

 ----------------------------------------------------------------------
 # B3LYP/6-311++G(d,p) empiricaldispersion=gd3bj scf=xqc pop=npa geom=c
 heck
 ----------------------------------------------------------------------

 ---------------------------------
 CID_64724179_JID_79_Energie_anion
 ---------------------------------
 Structure from the checkpoint file:  "JID_79.chk"
 Charge = -1 Multiplicity = 2

                         Standard orientation:
 ---------------------------------------------------------------------
 Center     Atomic      Atomic             Coordinates (Angstroms)
 Number     Number       Type             X           Y           Z
 ---------------------------------------------------------------------
      1          6           0       -2.681734   -1.183524   -0.705507
      2          6           0       -2.033057    0.015758   -0.004316
      3          6           0       -3.023678    0.728874    0.909978
      4          6           0       -0.792803   -0.418538    0.803485
      5          7           0        0.301050   -0.804345   -0.107274
      6         16           0        1.823182   -0.078191    0.111766
      7          8           0        1.953262    0.445854    1.474842
      8          8           0        2.781955   -1.045914   -0.427203
      9          6           0        1.705058    1.336957   -0.991057
     10          8           0       -1.617805    0.978464   -0.980245
     11          1           0       -3.057540   -1.914955    0.019229
     12          1           0       -1.959086   -1.690298   -1.356854
     13          1           0       -3.517717   -0.845667   -1.325056
     14          1           0       -3.344024    0.072080    1.725881
     15          1           0       -2.564047    1.624444    1.339755
     16          1           0       -3.908022    1.034893    0.343019
     17          1           0       -0.448445    0.415995    1.419144
     18          1           0       -1.031848   -1.244502    1.482746
     19          1           0        0.463817   -1.804517   -0.188743
     20          1           0        1.678723    0.974927   -2.020033
     21          1           0        0.794611    1.888176   -0.747371
     22          1           0        2.590534    1.952355   -0.820854
     23          1           0       -0.957239    0.514138   -1.522843
 ---------------------------------------------------------------------

 SCF Done:  E(UB3LYP) =  -877.120023210     A.U. after   25 cycles

 The electronic state is 2-A.
 Alpha  occ. eigenvalues --  -88.96384 -19.01864 -19.01852 -19.01635 -14.24267
 Alpha  occ. eigenvalues --  -10.12922 -10.10606 -10.10514 -10.06110 -10.05348
 Alpha  occ. eigenvalues --   -8.02593  -5.98875  -5.98834  -5.98667  -1.02067
 Alpha  occ. eigenvalues --   -0.92473  -0.91177  -0.82271  -0.69220  -0.67087
 Alpha  occ. eigenvalues --   -0.59548  -0.59306  -0.51701  -0.47090  -0.43216
 Alpha  occ. eigenvalues --   -0.41125  -0.40299  -0.38281  -0.36765  -0.35877
 Alpha  occ. eigenvalues --   -0.33880  -0.33089  -0.32697  -0.31023  -0.28751
 Alpha  occ. eigenvalues --   -0.28024  -0.26588  -0.25956  -0.25174  -0.23205
 Alpha  occ. eigenvalues --   -0.22329  -0.21761  -0.20720  -0.18948  -0.16829
 Alpha  occ. eigenvalues --    0.04384
 Alpha virt. eigenvalues --    0.06950   0.08113   0.08708   0.09792   0.10271
 Alpha virt. eigenvalues --    0.11146   0.11279   0.11839   0.12827   0.13314
 Alpha virt. eigenvalues --    0.13737   0.14535   0.15010   0.15412   0.16646

  Beta  occ. eigenvalues --  -88.96378 -19.01854 -19.01831 -19.01608 -14.24219
  Beta  occ. eigenvalues --  -10.12919 -10.10541 -10.10486 -10.06083 -10.05290
  Beta  occ. eigenvalues --   -8.02585  -5.98870  -5.98828  -5.98662  -1.02025
  Beta  occ. eigenvalues --   -0.92418  -0.91133  -0.82202  -0.69169  -0.67013
  Beta  occ. eigenvalues --   -0.59478  -0.59220  -0.51622  -0.47010  -0.43172
  Beta  occ. eigenvalues --   -0.41065  -0.40253  -0.38235  -0.36721  -0.35816
  Beta  occ. eigenvalues --   -0.33822  -0.33042  -0.32650  -0.30973  -0.28712
  Beta  occ. eigenvalues --   -0.27983  -0.26543  -0.25912  -0.25134  -0.23172
  Beta  occ. eigenvalues --   -0.22301  -0.21719  -0.20694  -0.18902  -0.16788
  Beta virt. eigenvalues --    0.06951   0.07952   0.08904   0.09547   0.10529
  Beta virt. eigenvalues --    0.11078   0.11510   0.11775   0.12103   0.13384
  Beta virt. eigenvalues --    0.13602   0.14114   0.14628   0.15203   0.15538

 Mulliken charges and spin densities:
               1          2
     1  C    1.682473  -2.064073
     2  C   -1.599611   1.758743
     3  C    0.434154  -0.920189
     4  C    0.296635  -1.111950
     5  N   -0.441613   0.100424
     6  S    0.934371  -0.483986
     7  O   -0.272856   0.056968
     8  O   -0.258278   0.021155
     9  C    0.292094  -0.893354
    10  O   -0.085353  -0.051304
    11  H   -0.409789   0.569285
    12  H   -0.326064   0.468491
    13  H   -0.227072   0.380795
    14  H   -0.142135   0.287469
    15  H   -0.004124   0.151453
    16  H   -0.058320   0.214691
    17  H    0.211154   0.017452
    18  H   -0.470241   0.678882
    19  H   -0.029876   0.369911
    20  H   -0.450326   0.667736
    21  H   -0.072013   0.303854
    22  H   -0.163697   0.358400
    23  H    0.160488   0.119145
 Sum of Mulliken charges =  -1.00000   1.00000

 Dipole moment (field-independent basis, Debye):
    X=              1.1333    Y=              2.8543    Z=              0.8662  Tot=              3.1908
 Quadrupole moment (field-independent basis, Debye-Ang):
   XX=           -126.0852   YY=           -106.4559   ZZ=           -105.5667
   XY=             -4.4372   XZ=              0.1634   YZ=              2.0463

 Summary of Natural Population Analysis:

                                       Natural Population
                Natural  -----------------------------------------------
    Atom  No    Charge         Core      Valence    Rydberg      Total
 -----------------------------------------------------------------------
      C    1   -0.29929      0.99961     2.29248    0.00720     3.29929
      C    2    0.11900      0.99955     1.86476    0.01669     2.88100
      C    3   -0.28816      0.99961     2.28254    0.00602     3.28816
      C    4   -0.10577      0.99954     2.09186    0.01436     3.10577
      N    5   -0.44945      0.99975     2.93555    0.01414     3.94945
      S    6    1.09445      4.99934     1.80795    0.09827     6.90555
      O    7   -0.46417      0.99990     3.45888    0.00539     4.46417
      O    8   -0.46468      0.99991     3.45897    0.00580     4.46468
      C    9   -0.39398      0.99961     2.38375    0.01061     3.39398
      O   10   -0.38305      0.99989     3.37632    0.00685     4.38305
      H   11    0.10465      0.00000     0.39268    0.00266     0.39535
      H   12    0.10310      0.00000     0.39466    0.00224     0.39690
      H   13    0.10315      0.00000     0.39562    0.00123     0.39685
      H   14    0.10319      0.00000     0.39558    0.00123     0.39681
      H   15    0.10217      0.00000     0.39678    0.00106     0.39783
      H   16    0.10379      0.00000     0.39528    0.00093     0.39621
      H   17    0.10898      0.00000     0.38930    0.00172     0.39102
      H   18    0.10344      0.00000     0.39450    0.00206     0.39656
      H   19    0.20738      0.00000     0.28859    0.00403     0.29262
      H   20    0.11898      0.00000     0.37901    0.00201     0.38102
      H   21    0.12415      0.00000     0.37466    0.00120     0.37585
      H   22    0.11605      0.00000     0.38287    0.00108     0.38395
      H   23    0.23608      0.00000     0.25937    0.00456     0.26392
 =======================================================================
   * Total *    0.00000     13.99671    30.79194    0.21135    45.00000

 Normal termination of Gaussian 16 at Tue Dec  8 10:28:42 2020.
