 Gaussian 16, Revision A.03,

 -----------------------------------------------------------
 # opt freq B3LYP/6-31G(d) empiricaldispersion=gd3bj scf=xqc
 -----------------------------------------------------------

 ------------------------------
 CID_79671368_JID_4866_neutraal
 ------------------------------
 Symbolic Z-matrix:
 Charge =  0 Multiplicity = 1

 SCF Done:  E(RB3LYP) =  -1011.91777207     A.U. after   15 cycles
 SCF Done:  E(RB3LYP) =  -1011.94377063     A.U. after   13 cycles
 SCF Done:  E(RB3LYP) =  -1011.94497668     A.U. after   14 cycles
 SCF Done:  E(RB3LYP) =  -1011.94227796     A.U. after   14 cycles
 SCF Done:  E(RB3LYP) =  -1011.94548897     A.U. after   13 cycles
 SCF Done:  E(RB3LYP) =  -1011.94537700     A.U. after   13 cycles
 SCF Done:  E(RB3LYP) =  -1011.94306185     A.U. after   13 cycles
 SCF Done:  E(RB3LYP) =  -1011.94371937     A.U. after   12 cycles
 SCF Done:  E(RB3LYP) =  -1011.94582999     A.U. after   11 cycles
 SCF Done:  E(RB3LYP) =  -1011.94637814     A.U. after   12 cycles
 SCF Done:  E(RB3LYP) =  -1011.94647415     A.U. after    9 cycles
 SCF Done:  E(RB3LYP) =  -1011.94647548     A.U. after    8 cycles
 SCF Done:  E(RB3LYP) =  -1011.94647646     A.U. after    8 cycles
 SCF Done:  E(RB3LYP) =  -1011.94647725     A.U. after    8 cycles
 SCF Done:  E(RB3LYP) =  -1011.94647755     A.U. after    7 cycles
 SCF Done:  E(RB3LYP) =  -1011.94647770     A.U. after    7 cycles
 Optimization completed.
    -- Stationary point found.
 Normal termination of Gaussian 16 at Thu Dec 10 10:51:03 2020.

 --------------------------------------------------------------------
 #N Geom=AllCheck Guess=TCheck SCRF=Check GenChk RB3LYP/6-31G(d) Freq
 --------------------------------------------------------------------

 Structure from the checkpoint file:  "JID_4866.chk"
 ------------------------------
 CID_79671368_JID_4866_neutraal
 ------------------------------
 Charge =  0 Multiplicity = 1

 SCF Done:  E(RB3LYP) =  -1011.94647770     A.U. after    1 cycles

  Exact polarizability: 149.864  -8.450 123.694  -1.006  -0.321 106.898
 Approx polarizability: 198.482 -14.743 177.118   1.222  -2.635 170.834

                      1                      2                      3
                      A                      A                      A
 Frequencies --     23.3775                42.3378                57.3716
 Red. masses --      5.3136                 4.6391                 4.6251
 Frc consts  --      0.0017                 0.0049                 0.0090
 IR Inten    --      1.3759                 1.7719                 3.7270

                      4                      5                      6
                      A                      A                      A
 Frequencies --     68.1791               107.6394               115.7044
 Red. masses --      4.7280                 4.4698                 4.8736
 Frc consts  --      0.0129                 0.0305                 0.0384
 IR Inten    --      3.0060                 0.2413                 6.5332

                      7                      8                      9
                      A                      A                      A
 Frequencies --    134.1178               181.8833               188.1159
 Red. masses --      4.6287                 4.9574                 3.0189
 Frc consts  --      0.0491                 0.0966                 0.0629
 IR Inten    --      3.9868                 1.8509                 1.4009

                     10                     11                     12
                      A                      A                      A
 Frequencies --    193.1664               205.5474               236.7994
 Red. masses --      3.4014                 2.8056                 2.9067
 Frc consts  --      0.0748                 0.0698                 0.0960
 IR Inten    --      1.9422                 1.7982                 8.1557

                     13                     14                     15
                      A                      A                      A
 Frequencies --    248.1698               257.5560               275.8150
 Red. masses --      1.1499                 1.4317                 1.1309
 Frc consts  --      0.0417                 0.0560                 0.0507
 IR Inten    --    121.9832                16.2161                20.3781

                     16                     17                     18
                      A                      A                      A
 Frequencies --    298.8375               329.8854               365.2936
 Red. masses --      2.5424                 2.3248                 2.7067
 Frc consts  --      0.1338                 0.1491                 0.2128
 IR Inten    --      1.9136                 4.5209                 2.6800

                     19                     20                     21
                      A                      A                      A
 Frequencies --    382.0014               398.1539               412.0360
 Red. masses --      2.9413                 2.2858                 2.6410
 Frc consts  --      0.2529                 0.2135                 0.2642
 IR Inten    --      2.5030                 2.5223                 4.2246

                     22                     23                     24
                      A                      A                      A
 Frequencies --    448.3098               467.3514               479.0317
 Red. masses --      1.4153                 2.4668                 1.9565
 Frc consts  --      0.1676                 0.3174                 0.2645
 IR Inten    --     31.6993                15.2980                85.1916

                     25                     26                     27
                      A                      A                      A
 Frequencies --    582.4497               610.5464               626.5639
 Red. masses --      4.6840                 4.6290                 3.7094
 Frc consts  --      0.9362                 1.0167                 0.8580
 IR Inten    --      0.9516                 9.2213                23.6172

                     28                     29                     30
                      A                      A                      A
 Frequencies --    665.9980               680.1774               773.6233
 Red. masses --      4.0360                 4.5557                 3.9088
 Frc consts  --      1.0547                 1.2418                 1.3783
 IR Inten    --      2.9597                 6.3076                 8.9794

                     31                     32                     33
                      A                      A                      A
 Frequencies --    793.1336               834.0796               867.0633
 Red. masses --      1.6334                 2.5639                 2.6157
 Frc consts  --      0.6054                 1.0509                 1.1586
 IR Inten    --      2.7280                 3.2590                 8.0719

                     34                     35                     36
                      A                      A                      A
 Frequencies --    876.9758               902.6154               934.7217
 Red. masses --      1.6943                 2.1656                 1.8844
 Frc consts  --      0.7677                 1.0395                 0.9700
 IR Inten    --    103.4904                69.0564                11.6272

                     37                     38                     39
                      A                      A                      A
 Frequencies --    954.3628               966.8361               996.2603
 Red. masses --      2.1969                 2.0071                 1.6207
 Frc consts  --      1.1790                 1.1054                 0.9478
 IR Inten    --     22.1348                11.3930                14.9618

                     40                     41                     42
                      A                      A                      A
 Frequencies --   1017.1125              1048.5277              1073.5739
 Red. masses --      1.7034                 2.4534                 1.6903
 Frc consts  --      1.0382                 1.5892                 1.1478
 IR Inten    --      0.6182                38.2445                 6.9033

                     43                     44                     45
                      A                      A                      A
 Frequencies --   1092.2559              1098.2286              1137.6887
 Red. masses --      3.2055                 2.9211                 2.0902
 Frc consts  --      2.2532                 2.0758                 1.5940
 IR Inten    --     70.9105                 8.8739                53.4084

                     46                     47                     48
                      A                      A                      A
 Frequencies --   1167.2300              1175.7543              1195.8776
 Red. masses --      1.4792                 1.4378                 1.1911
 Frc consts  --      1.1874                 1.1711                 1.0036
 IR Inten    --      5.1766                29.9887                24.5769

                     49                     50                     51
                      A                      A                      A
 Frequencies --   1203.7856              1221.4204              1245.8150
 Red. masses --      1.1487                 1.3143                 1.9039
 Frc consts  --      0.9808                 1.1553                 1.7410
 IR Inten    --     26.9820                15.2644                 7.5340

                     52                     53                     54
                      A                      A                      A
 Frequencies --   1271.3650              1294.7027              1309.6939
 Red. masses --      1.1374                 1.2356                 1.2913
 Frc consts  --      1.0832                 1.2203                 1.3050
 IR Inten    --     14.8794                51.8303                 4.5538

                     55                     56                     57
                      A                      A                      A
 Frequencies --   1341.6652              1356.8732              1383.1880
 Red. masses --      1.2760                 1.4672                 1.4801
 Frc consts  --      1.3532                 1.5915                 1.6684
 IR Inten    --     13.1393                13.8333                 1.7576

                     58                     59                     60
                      A                      A                      A
 Frequencies --   1396.1971              1401.9106              1413.4630
 Red. masses --      1.4027                 1.3700                 1.4172
 Frc consts  --      1.6111                 1.5864                 1.6682
 IR Inten    --      8.9668                 1.2491                 5.9203

                     61                     62                     63
                      A                      A                      A
 Frequencies --   1435.1165              1442.2275              1457.6606
 Red. masses --      1.2327                 1.2195                 1.4320
 Frc consts  --      1.4959                 1.4946                 1.7927
 IR Inten    --      8.5887                48.3231                16.4776

                     64                     65                     66
                      A                      A                      A
 Frequencies --   1485.6807              1504.6709              1507.5226
 Red. masses --      1.1010                 1.0795                 1.0727
 Frc consts  --      1.4318                 1.4400                 1.4363
 IR Inten    --      8.7797                 4.2635                 2.0666

                     67                     68                     69
                      A                      A                      A
 Frequencies --   1513.9768              1520.9553              1534.0276
 Red. masses --      1.0784                 1.0571                 1.0638
 Frc consts  --      1.4564                 1.4408                 1.4749
 IR Inten    --      5.6196                 3.0407                 8.4828

                     70                     71                     72
                      A                      A                      A
 Frequencies --   1543.7625              1693.2202              2360.5074
 Red. masses --      1.0856                 1.0878                12.6831
 Frc consts  --      1.5244                 1.8376                41.6376
 IR Inten    --      8.6315                29.3768                 7.9436

                     73                     74                     75
                      A                      A                      A
 Frequencies --   3031.4023              3040.1616              3044.5730
 Red. masses --      1.0572                 1.0628                 1.0634
 Frc consts  --      5.7239                 5.7873                 5.8077
 IR Inten    --     38.0206                22.1613                23.3244

                     76                     77                     78
                      A                      A                      A
 Frequencies --   3065.1439              3076.6940              3082.0179
 Red. masses --      1.0403                 1.1001                 1.0951
 Frc consts  --      5.7583                 6.1353                 6.1285
 IR Inten    --     18.3988                30.2226                18.0038

                     79                     80                     81
                      A                      A                      A
 Frequencies --   3083.1000              3088.2969              3091.0268
 Red. masses --      1.0681                 1.0971                 1.0707
 Frc consts  --      5.9818                 6.1651                 6.0275
 IR Inten    --     36.6744                20.3191                26.2945

                     82                     83                     84
                      A                      A                      A
 Frequencies --   3103.6733              3134.8417              3141.5038
 Red. masses --      1.0862                 1.1046                 1.0969
 Frc consts  --      6.1645                 6.3957                 6.3779
 IR Inten    --     21.7139                18.1164                14.0722

                     85                     86                     87
                      A                      A                      A
 Frequencies --   3154.8854              3166.1701              3456.9276
 Red. masses --      1.0989                 1.1042                 1.0492
 Frc consts  --      6.4441                 6.5220                 7.3871
 IR Inten    --      5.3348                11.6669                 0.1198

                     88                     89                     90
                      A                      A                      A
 Frequencies --   3546.3227              3700.2778              3776.7141
 Red. masses --      1.0927                 1.0650                 1.0668
 Frc consts  --      8.0970                 8.5914                 8.9652
 IR Inten    --      0.2022                33.9041                28.8919

 - Thermochemistry -
 -------------------
 Temperature   298.150 Kelvin.  Pressure   1.00000 Atm.
 Atom     1 has atomic number  6 and mass  12.00000

 Molecular mass:   218.10890 amu.
 Principal axes and moments of inertia in atomic units:
                           1         2         3
     Eigenvalues --  2083.201445065.973076202.50947
           X            0.99979  -0.02053   0.00069
           Y            0.02051   0.99956   0.02119
           Z           -0.00113  -0.02117   0.99978
 This molecule is an asymmetric top.
 Rotational symmetry number  1.
 Warning -- assumption of classical behavior for rotation
           may cause significant error
 Rotational temperatures (Kelvin)      0.04158     0.01710     0.01396
 Rotational constants (GHZ):           0.86633     0.35625     0.29097
 Zero-point vibrational energy     721416.9 (Joules/Mol)
                                  172.42277 (Kcal/Mol)
 Warning -- explicit consideration of  26 degrees of freedom as
           vibrations may cause significant error
 Vibrational temperatures:     33.64    60.91    82.54    98.09   154.87
          (Kelvin)            166.47   192.97   261.69   270.66   277.92
                              295.74   340.70   357.06   370.57   396.84
                              429.96   474.63   525.58   549.61   572.85
                              592.83   645.02   672.41   689.22   838.02
                              878.44   901.49   958.22   978.62  1113.07
                             1141.14  1200.05  1247.51  1261.77  1298.66
                             1344.86  1373.12  1391.06  1433.40  1463.40
                             1508.60  1544.63  1571.51  1580.11  1636.88
                             1679.38  1691.65  1720.60  1731.98  1757.35
                             1792.45  1829.21  1862.79  1884.36  1930.36
                             1952.24  1990.10  2008.82  2017.04  2033.66
                             2064.81  2075.04  2097.25  2137.56  2164.89
                             2168.99  2178.27  2188.32  2207.12  2221.13
                             2436.17  3396.24  4361.51  4374.11  4380.46
                             4410.06  4426.68  4434.34  4435.89  4443.37
                             4447.30  4465.49  4510.34  4519.92  4539.18
                             4555.41  4973.75  5102.37  5323.87  5433.85

 Zero-point correction=                           0.274773 (Hartree/Particle)
 Thermal correction to Energy=                    0.291817
 Thermal correction to Enthalpy=                  0.292761
 Thermal correction to Gibbs Free Energy=         0.229433
 Sum of electronic and zero-point Energies=          -1011.671705
 Sum of electronic and thermal Energies=             -1011.654660
 Sum of electronic and thermal Enthalpies=           -1011.653716
 Sum of electronic and thermal Free Energies=        -1011.717045

                     E (Thermal)             CV                S
                      KCal/Mol        Cal/Mol-Kelvin    Cal/Mol-Kelvin
 Total                  183.118             62.342            133.286
 Electronic               0.000              0.000              0.000
 Translational            0.889              2.981             42.043
 Rotational               0.889              2.981             32.548
 Vibrational            181.341             56.380             58.695
 Vibration     1          0.593              1.985              6.324
 Vibration     2          0.595              1.980              5.147
 Vibration     3          0.596              1.975              4.546
 Vibration     4          0.598              1.969              4.205
 Vibration     5          0.606              1.943              3.311
 Vibration     6          0.608              1.936              3.171
 Vibration     7          0.613              1.919              2.886
 Vibration     8          0.630              1.864              2.309
 Vibration     9          0.633              1.856              2.246
 Vibration    10          0.635              1.849              2.197
 Vibration    11          0.640              1.832              2.083
 Vibration    12          0.656              1.784              1.827
 Vibration    13          0.662              1.766              1.744
 Vibration    14          0.667              1.750              1.678
 Vibration    15          0.677              1.718              1.559
 Vibration    16          0.692              1.676              1.423
 Vibration    17          0.713              1.616              1.261
 Vibration    18          0.739              1.544              1.099
 Vibration    19          0.751              1.509              1.031
 Vibration    20          0.764              1.474              0.969
 Vibration    21          0.776              1.444              0.919
 Vibration    22          0.807              1.365              0.801
 Vibration    23          0.825              1.322              0.745
 Vibration    24          0.835              1.297              0.713
 Vibration    25          0.939              1.069              0.481
 Vibration    26          0.970              1.010              0.432

 Optimization completed.
    -- Stationary point found.
 Normal termination of Gaussian 16 at Thu Dec 10 11:00:31 2020.

 ----------------------------------------------------------------------
 # B3LYP/6-311++G(d,p) empiricaldispersion=gd3bj scf=xqc pop=npa geom=c
 heck
 ----------------------------------------------------------------------

 --------------------------------------
 CID_79671368_JID_4866_Energie_neutraal
 --------------------------------------
 Structure from the checkpoint file:  "JID_4866.chk"
 Charge =  0 Multiplicity = 1

 SCF Done:  E(RB3LYP) =  -1012.17802183     A.U. after   14 cycles
 Normal termination of Gaussian 16 at Thu Dec 10 11:04:25 2020.

 ----------------------------------------------------------------------
 # B3LYP/6-311++G(d,p) empiricaldispersion=gd3bj scf=xqc pop=npa geom=c
 heck
 ----------------------------------------------------------------------

 ------------------------------------
 CID_79671368_JID_4866_Energie_kation
 ------------------------------------
 Structure from the checkpoint file:  "JID_4866.chk"
 Charge =  1 Multiplicity = 2

 SCF Done:  E(UB3LYP) =  -1011.88015069     A.U. after   22 cycles
 Normal termination of Gaussian 16 at Thu Dec 10 11:11:51 2020.
 Gaussian 16:  ES64L-G16RevA.03 25-Dec-2016

 ----------------------------------------------------------------------
 # B3LYP/6-311++G(d,p) empiricaldispersion=gd3bj scf=xqc pop=npa geom=c
 heck
 ----------------------------------------------------------------------

 -----------------------------------
 CID_79671368_JID_4866_Energie_anion
 -----------------------------------
 Structure from the checkpoint file:  "JID_4866.chk"
 Charge = -1 Multiplicity = 2

                         Standard orientation:
 ---------------------------------------------------------------------
 Center     Atomic      Atomic             Coordinates (Angstroms)
 Number     Number       Type             X           Y           Z
 ---------------------------------------------------------------------
      1          6           0       -3.834503   -0.650662    0.796653
      2          6           0       -2.622884   -0.721395   -0.151140
      3          6           0       -2.263136    0.674539   -0.733417
      4          6           0       -1.891719    1.807111    0.235341
      5          6           0       -0.452001    1.800613    0.769889
      6         16           0        0.828149    2.017078   -0.535961
      7          6           0        1.503126    0.321841   -0.696474
      8          6           0        2.332781   -0.163128    0.502141
      9          6           0        2.783802   -1.607873    0.291809
     10          8           0        3.683152   -1.587985   -0.824232
     11          8           0        3.461470    0.658624    0.743581
     12          6           0       -1.482305   -1.295117    0.599298
     13          7           0       -0.585853   -1.744079    1.183848
     14          7           0       -2.941855   -1.698145   -1.210550
     15          1           0       -3.620581   -0.043630    1.678832
     16          1           0       -4.113741   -1.657154    1.116368
     17          1           0       -4.680618   -0.200320    0.264892
     18          1           0       -1.452785    0.555529   -1.462900
     19          1           0       -3.150815    0.975525   -1.304973
     20          1           0       -2.049932    2.754848   -0.292162
     21          1           0       -2.581613    1.819926    1.089847
     22          1           0       -0.326961    2.636432    1.464556
     23          1           0       -0.229109    0.889911    1.328131
     24          1           0        0.692054   -0.384301   -0.895088
     25          1           0        2.137735    0.351190   -1.587454
     26          1           0        1.721793   -0.131142    1.408872
     27          1           0        3.296511   -1.950247    1.200909
     28          1           0        1.921638   -2.261579    0.106617
     29          1           0        4.158223   -2.430588   -0.847576
     30          1           0        4.102462    0.416492    0.052647
     31          1           0       -3.781458   -1.378237   -1.693289
     32          1           0       -2.195176   -1.701025   -1.905322
 ---------------------------------------------------------------------

 SCF Done:  E(UB3LYP) =  -1012.17167193     A.U. after   31 cycles

 The electronic state is 2-A.
 Alpha  occ. eigenvalues --  -88.74040 -19.03550 -19.02316 -14.22793 -14.21446
 Alpha  occ. eigenvalues --  -10.16345 -10.12863 -10.12502 -10.12156 -10.10666
 Alpha  occ. eigenvalues --  -10.09927 -10.08923 -10.08868 -10.08545  -7.82656
 Alpha  occ. eigenvalues --   -5.79060  -5.78686  -5.78013  -0.94528  -0.91857
 Alpha  occ. eigenvalues --   -0.83968  -0.81017  -0.72878  -0.69660  -0.67006
 Alpha  occ. eigenvalues --   -0.63749  -0.60462  -0.56917  -0.53946  -0.51091
 Alpha  occ. eigenvalues --   -0.48237  -0.43495  -0.43157  -0.40407  -0.39044
 Alpha  occ. eigenvalues --   -0.38373  -0.37161  -0.36777  -0.35349  -0.34853
 Alpha  occ. eigenvalues --   -0.32857  -0.32599  -0.31753  -0.30509  -0.29913
 Alpha  occ. eigenvalues --   -0.28841  -0.28554  -0.27725  -0.26596  -0.26451
 Alpha  occ. eigenvalues --   -0.25465  -0.24361  -0.24173  -0.23472  -0.21078
 Alpha  occ. eigenvalues --   -0.19260  -0.18196  -0.16955  -0.12905   0.03759
 Alpha virt. eigenvalues --    0.05096   0.06792   0.07835   0.08090   0.08988
 Alpha virt. eigenvalues --    0.09566   0.09805   0.10142   0.10780   0.10907
 Alpha virt. eigenvalues --    0.11362   0.11461   0.12037   0.12446   0.12692

  Beta  occ. eigenvalues --  -88.74038 -19.03500 -19.02306 -14.22788 -14.21391
  Beta  occ. eigenvalues --  -10.16343 -10.12863 -10.12499 -10.12140 -10.10664
  Beta  occ. eigenvalues --  -10.09916 -10.08910 -10.08837 -10.08504  -7.82654
  Beta  occ. eigenvalues --   -5.79058  -5.78683  -5.78011  -0.94461  -0.91789
  Beta  occ. eigenvalues --   -0.83936  -0.80976  -0.72852  -0.69615  -0.66952
  Beta  occ. eigenvalues --   -0.63700  -0.60410  -0.56855  -0.53899  -0.51054
  Beta  occ. eigenvalues --   -0.48210  -0.43409  -0.43090  -0.40358  -0.39016
  Beta  occ. eigenvalues --   -0.38326  -0.37130  -0.36729  -0.35316  -0.34823
  Beta  occ. eigenvalues --   -0.32815  -0.32570  -0.31708  -0.30476  -0.29878
  Beta  occ. eigenvalues --   -0.28825  -0.28523  -0.27697  -0.26547  -0.26414
  Beta  occ. eigenvalues --   -0.25443  -0.24340  -0.24145  -0.23451  -0.21063
  Beta  occ. eigenvalues --   -0.19213  -0.18181  -0.16903  -0.12897
  Beta virt. eigenvalues --    0.06266   0.06536   0.07466   0.08055   0.08683
  Beta virt. eigenvalues --    0.09242   0.09823   0.10071   0.10378   0.10923
  Beta virt. eigenvalues --    0.11038   0.11475   0.11779   0.12265   0.12672

 Mulliken charges and spin densities:
               1          2
     1  C    0.867414  -1.453588
     2  C   -0.448668   0.962268
     3  C    0.087415  -0.336879
     4  C   -0.197618  -0.265584
     5  C   -0.092661  -0.014097
     6  S   -0.018678   0.123869
     7  C   -0.181190  -0.175363
     8  C   -0.359529   0.107926
     9  C    0.084789  -0.735749
    10  O   -0.279084   0.011875
    11  O   -0.175465   0.007260
    12  C    0.770655  -1.316285
    13  N   -0.281479   0.061963
    14  N   -0.256059   0.001120
    15  H    0.029211   0.120278
    16  H    0.077455   0.100023
    17  H   -0.612551   0.795681
    18  H    0.095938  -0.001093
    19  H   -0.494073   0.722820
    20  H    0.049679   0.109124
    21  H   -0.027429   0.138842
    22  H    0.227693   0.046665
    23  H   -0.091418   0.148613
    24  H   -0.006647   0.181519
    25  H    0.197081   0.062804
    26  H    0.330728  -0.102876
    27  H   -0.057361   0.226290
    28  H    0.152754   0.048985
    29  H   -0.260496   0.535633
    30  H    0.195535   0.044422
    31  H   -0.250276   0.520211
    32  H   -0.075667   0.323322
 Sum of Mulliken charges =  -1.00000   1.00000

 Dipole moment (field-independent basis, Debye):
    X=              1.9158    Y=              3.1338    Z=              3.2148  Tot=              4.8812
 Quadrupole moment (field-independent basis, Debye-Ang):
   XX=           -189.2868   YY=           -137.0194   ZZ=           -126.3300
   XY=              3.1262   XZ=            -10.4924   YZ=             -2.8213

 Summary of Natural Population Analysis:

                                       Natural Population
                Natural  -----------------------------------------------
    Atom  No    Charge         Core      Valence    Rydberg      Total
 -----------------------------------------------------------------------
      C    1   -0.27875      0.99963     2.27165    0.00747     3.27875
      C    2    0.00160      0.99950     1.98370    0.01521     2.99840
      C    3   -0.19541      0.99959     2.18261    0.01321     3.19541
      C    4   -0.19766      0.99961     2.18794    0.01012     3.19766
      C    5   -0.25531      0.99958     2.24647    0.00927     3.25531
      S    6    0.08599      4.99963     2.89817    0.01621     7.91401
      C    7   -0.26187      0.99955     2.25092    0.01140     3.26187
      C    8    0.04418      0.99955     1.94107    0.01519     2.95582
      C    9   -0.02135      0.99957     2.00923    0.01254     3.02135
      O   10   -0.38312      0.99989     3.37624    0.00698     4.38312
      O   11   -0.37033      0.99990     3.36425    0.00618     4.37033
      C   12    0.17135      0.99961     1.80758    0.02146     2.82865
      N   13   -0.19038      0.99979     2.67945    0.01114     3.69038
      N   14   -0.41065      0.99976     2.89994    0.01095     3.91065
      H   15    0.10286      0.00000     0.39586    0.00129     0.39714
      H   16    0.10881      0.00000     0.38987    0.00133     0.39119
      H   17    0.10777      0.00000     0.39028    0.00194     0.39223
      H   18    0.10614      0.00000     0.39176    0.00210     0.39386
      H   19    0.10819      0.00000     0.38898    0.00283     0.39181
      H   20    0.10240      0.00000     0.39646    0.00114     0.39760
      H   21    0.09884      0.00000     0.39986    0.00129     0.40116
      H   22    0.10343      0.00000     0.39571    0.00086     0.39657
      H   23    0.10773      0.00000     0.39034    0.00192     0.39227
      H   24    0.10525      0.00000     0.39291    0.00184     0.39475
      H   25    0.11245      0.00000     0.38631    0.00124     0.38755
      H   26    0.09359      0.00000     0.40465    0.00176     0.40641
      H   27    0.08185      0.00000     0.41695    0.00120     0.41815
      H   28    0.09038      0.00000     0.40805    0.00156     0.40962
      H   29    0.23830      0.00000     0.24930    0.01241     0.26170
      H   30    0.23235      0.00000     0.26460    0.00305     0.26765
      H   31    0.18261      0.00000     0.31232    0.00507     0.31739
      H   32    0.17874      0.00000     0.31872    0.00255     0.32126
 =======================================================================
   * Total *   -0.00000     17.99513    40.79214    0.21272    59.00000

 Normal termination of Gaussian 16 at Thu Dec 10 11:22:07 2020.
