 Gaussian 16, Revision A.03,

 -----------------------------------------------------------
 # opt freq B3LYP/6-31G(d) empiricaldispersion=gd3bj scf=xqc
 -----------------------------------------------------------

 -------------------------------
 CID_43463989_JID_10969_neutraal
 -------------------------------
 Symbolic Z-matrix:
 Charge =  0 Multiplicity = 1

 SCF Done:  E(RB3LYP) =  -988.134130651     A.U. after   16 cycles
 SCF Done:  E(RB3LYP) =  -988.136739694     A.U. after   12 cycles
 SCF Done:  E(RB3LYP) =  -988.134701691     A.U. after   14 cycles
 SCF Done:  E(RB3LYP) =  -988.137244073     A.U. after   13 cycles
 SCF Done:  E(RB3LYP) =  -988.137746922     A.U. after   14 cycles
 SCF Done:  E(RB3LYP) =  -988.138565973     A.U. after   16 cycles
 SCF Done:  E(RB3LYP) =  -988.138789538     A.U. after   12 cycles
 SCF Done:  E(RB3LYP) =  -988.139392391     A.U. after   13 cycles
 SCF Done:  E(RB3LYP) =  -988.140028256     A.U. after   15 cycles
 SCF Done:  E(RB3LYP) =  -988.140194588     A.U. after   14 cycles
 SCF Done:  E(RB3LYP) =  -988.140433585     A.U. after   12 cycles
 SCF Done:  E(RB3LYP) =  -988.140439878     A.U. after   10 cycles
 SCF Done:  E(RB3LYP) =  -988.140446872     A.U. after   12 cycles
 SCF Done:  E(RB3LYP) =  -988.140449009     A.U. after   10 cycles
 SCF Done:  E(RB3LYP) =  -988.140449886     A.U. after   10 cycles
 SCF Done:  E(RB3LYP) =  -988.140449923     A.U. after    7 cycles
 Optimization completed.
    -- Stationary point found.
 Normal termination of Gaussian 16 at Sun Dec 13 13:37:02 2020.

 --------------------------------------------------------------------
 #N Geom=AllCheck Guess=TCheck SCRF=Check GenChk RB3LYP/6-31G(d) Freq
 --------------------------------------------------------------------

 Structure from the checkpoint file:  "JID_10969.chk"
 -------------------------------
 CID_43463989_JID_10969_neutraal
 -------------------------------
 Charge =  0 Multiplicity = 1

 SCF Done:  E(RB3LYP) =  -988.140449923     A.U. after    1 cycles

  Exact polarizability: 197.540   0.171 161.034 -14.143   5.632 140.155
 Approx polarizability: 272.320 -10.198 254.960 -41.267  15.929 261.130

                      1                      2                      3
                      A                      A                      A
 Frequencies --     12.6461                22.3854                43.5801
 Red. masses --      5.2940                 8.1962                 7.6326
 Frc consts  --      0.0005                 0.0024                 0.0085
 IR Inten    --      0.6526                 1.9798                 0.4475

                      4                      5                      6
                      A                      A                      A
 Frequencies --     79.1560                91.5183               119.5343
 Red. masses --      4.6236                 6.0819                 4.3085
 Frc consts  --      0.0171                 0.0300                 0.0363
 IR Inten    --      1.9893                 2.2567                 3.9134

                      7                      8                      9
                      A                      A                      A
 Frequencies --    133.4620               153.5693               182.3775
 Red. masses --      5.5252                 9.1129                 4.1592
 Frc consts  --      0.0580                 0.1266                 0.0815
 IR Inten    --      1.6382                 0.1916                 0.8527

                     10                     11                     12
                      A                      A                      A
 Frequencies --    216.4777               255.7966               280.5856
 Red. masses --      6.4862                 4.1535                 4.3990
 Frc consts  --      0.1791                 0.1601                 0.2040
 IR Inten    --      1.1746                 3.0592                 5.3749

                     13                     14                     15
                      A                      A                      A
 Frequencies --    299.2098               328.0074               340.0140
 Red. masses --      3.9261                 1.6499                 1.8823
 Frc consts  --      0.2071                 0.1046                 0.1282
 IR Inten    --      5.3997                42.4172                22.0704

                     16                     17                     18
                      A                      A                      A
 Frequencies --    358.4940               414.3480               443.6887
 Red. masses --      4.6772                 4.8391                 5.2313
 Frc consts  --      0.3542                 0.4895                 0.6068
 IR Inten    --      1.2777                 1.9892                 4.4887

                     19                     20                     21
                      A                      A                      A
 Frequencies --    472.8571               476.0512               492.4005
 Red. masses --      3.7536                 5.7415                 6.7851
 Frc consts  --      0.4945                 0.7666                 0.9693
 IR Inten    --      1.5438                 1.8927                 0.8177

                     22                     23                     24
                      A                      A                      A
 Frequencies --    511.2265               563.7573               583.1420
 Red. masses --      4.4877                 5.5350                 6.7127
 Frc consts  --      0.6910                 1.0365                 1.3449
 IR Inten    --      6.0973                13.5503                 2.9833

                     25                     26                     27
                      A                      A                      A
 Frequencies --    597.7342               624.6011               655.9815
 Red. masses --      4.9120                 3.9271                 4.0446
 Frc consts  --      1.0340                 0.9027                 1.0254
 IR Inten    --      1.0454                 0.6747                13.8303

                     28                     29                     30
                      A                      A                      A
 Frequencies --    682.8047               723.7223               744.9687
 Red. masses --      3.2953                 4.7102                 8.6017
 Frc consts  --      0.9052                 1.4536                 2.8126
 IR Inten    --     11.6610                 2.4980                14.4154

                     31                     32                     33
                      A                      A                      A
 Frequencies --    762.3490               767.6252               789.5629
 Red. masses --      4.9082                 2.9297                 2.8418
 Frc consts  --      1.6807                 1.0171                 1.0438
 IR Inten    --     20.1725                69.7294                10.1645

                     34                     35                     36
                      A                      A                      A
 Frequencies --    822.2103               824.6340               829.9508
 Red. masses --      1.7302                 4.3395                 1.4870
 Frc consts  --      0.6891                 1.7387                 0.6035
 IR Inten    --     56.4716                18.5993                22.4247

                     37                     38                     39
                      A                      A                      A
 Frequencies --    888.1419               897.5270               901.6326
 Red. masses --      1.6082                 1.3857                 1.7527
 Frc consts  --      0.7474                 0.6577                 0.8395
 IR Inten    --    110.7681                 0.5437                77.4516

                     40                     41                     42
                      A                      A                      A
 Frequencies --    905.4396               937.3434               939.9103
 Red. masses --      2.6847                 2.9671                 1.3526
 Frc consts  --      1.2968                 1.5360                 0.7040
 IR Inten    --     28.4825                13.1986                 3.0920

                     43                     44                     45
                      A                      A                      A
 Frequencies --    969.8629               988.2245              1000.3322
 Red. masses --      2.5229                 4.4286                 5.3489
 Frc consts  --      1.3982                 2.5482                 3.1536
 IR Inten    --     18.8177                19.4751                 6.3393

                     46                     47                     48
                      A                      A                      A
 Frequencies --   1045.8608              1085.0012              1096.1994
 Red. masses --      1.3283                 3.1570                 3.1574
 Frc consts  --      0.8560                 2.1897                 2.2354
 IR Inten    --     57.7452                10.7897                45.0748

                     49                     50                     51
                      A                      A                      A
 Frequencies --   1101.6147              1138.1252              1159.9903
 Red. masses --      2.5580                 1.9806                 1.5391
 Frc consts  --      1.8290                 1.5115                 1.2202
 IR Inten    --     46.2718                 2.5735                23.4419

                     52                     53                     54
                      A                      A                      A
 Frequencies --   1181.8538              1190.3955              1217.0065
 Red. masses --      2.5435                 2.1765                 1.7532
 Frc consts  --      2.0932                 1.8171                 1.5299
 IR Inten    --     10.9386                 6.7488                 8.8763

                     55                     56                     57
                      A                      A                      A
 Frequencies --   1224.9694              1239.9086              1275.1132
 Red. masses --      2.2491                 2.1841                 1.2795
 Frc consts  --      1.9884                 1.9783                 1.2257
 IR Inten    --     10.3371                12.7566                15.0687

                     58                     59                     60
                      A                      A                      A
 Frequencies --   1279.9694              1297.2990              1302.9548
 Red. masses --      4.7102                 1.5226                 1.4170
 Frc consts  --      4.5466                 1.5098                 1.4174
 IR Inten    --     60.4167                37.2367                37.0166

                     61                     62                     63
                      A                      A                      A
 Frequencies --   1328.1087              1352.0159              1373.2194
 Red. masses --      2.2147                 2.1825                 2.7039
 Frc consts  --      2.3016                 2.3506                 3.0041
 IR Inten    --    157.7283               240.7190                63.6128

                     64                     65                     66
                      A                      A                      A
 Frequencies --   1393.7691              1405.6749              1411.9623
 Red. masses --      1.7145                 7.3622                 1.3843
 Frc consts  --      1.9624                 8.5709                 1.6260
 IR Inten    --     15.6359               317.5756                 0.0267

                     67                     68                     69
                      A                      A                      A
 Frequencies --   1429.5139              1437.0512              1483.1552
 Red. masses --      1.4499                 3.1383                 3.2288
 Frc consts  --      1.7457                 3.8185                 4.1847
 IR Inten    --     12.9451                51.6569                32.5095

                     70                     71                     72
                      A                      A                      A
 Frequencies --   1523.4430              1526.8976              1548.1076
 Red. masses --      1.1319                 1.1506                 9.2760
 Frc consts  --      1.5478                 1.5805                13.0982
 IR Inten    --     12.2812                 4.1715               161.3046

                     73                     74                     75
                      A                      A                      A
 Frequencies --   1559.5547              1620.2529              1640.6109
 Red. masses --      2.9728                 8.7711                 8.8183
 Frc consts  --      4.2600                13.5666                13.9845
 IR Inten    --    165.3652                74.7697               116.3246

                     76                     77                     78
                      A                      A                      A
 Frequencies --   1645.0243              1675.2251              1687.5628
 Red. masses --      7.6304                 4.8597                 1.1658
 Frc consts  --     12.1658                 8.0354                 1.9560
 IR Inten    --     54.6835                 9.0069                20.1646

                     79                     80                     81
                      A                      A                      A
 Frequencies --   3039.4467              3040.3144              3050.6912
 Red. masses --      1.0705                 1.0832                 1.0649
 Frc consts  --      5.8267                 5.8992                 5.8391
 IR Inten    --     45.6618                10.2506                50.4637

                     82                     83                     84
                      A                      A                      A
 Frequencies --   3134.2450              3135.4434              3200.8789
 Red. masses --      1.0990                 1.0997                 1.0881
 Frc consts  --      6.3607                 6.3699                 6.5686
 IR Inten    --     30.8901                33.4523                 5.6831

                     85                     86                     87
                      A                      A                      A
 Frequencies --   3207.1518              3219.1129              3280.1648
 Red. masses --      1.0901                 1.0944                 1.0951
 Frc consts  --      6.6060                 6.6817                 6.9421
 IR Inten    --      3.0621                 7.9602                 1.6717

                     88                     89                     90
                      A                      A                      A
 Frequencies --   3307.1514              3466.5958              3563.0872
 Red. masses --      1.0998                 1.0484                 1.0941
 Frc consts  --      7.0873                 7.4233                 8.1838
 IR Inten    --      2.2197                 3.6972                 0.7072

 - Thermochemistry -
 -------------------
 Temperature   298.150 Kelvin.  Pressure   1.00000 Atm.
 Atom     1 has atomic number  6 and mass  12.00000

 Molecular mass:   276.07462 amu.
 Principal axes and moments of inertia in atomic units:
                           1         2         3
     Eigenvalues --  3214.682449696.61997**********
           X            0.99977   0.02068  -0.00479
           Y           -0.02061   0.99971   0.01267
           Z            0.00505  -0.01257   0.99991
 This molecule is an asymmetric top.
 Rotational symmetry number  1.
 Warning -- assumption of classical behavior for rotation
           may cause significant error
 Rotational temperatures (Kelvin)      0.02694     0.00893     0.00782
 Rotational constants (GHZ):           0.56141     0.18612     0.16294
 Zero-point vibrational energy     643893.2 (Joules/Mol)
                                  153.89417 (Kcal/Mol)
 Warning -- explicit consideration of  25 degrees of freedom as
           vibrations may cause significant error
 Vibrational temperatures:     18.19    32.21    62.70   113.89   131.67
          (Kelvin)            171.98   192.02   220.95   262.40   311.46
                              368.03   403.70   430.50   471.93   489.20
                              515.79   596.15   638.37   680.34   684.93
                              708.45   735.54   811.12   839.01   860.01
                              898.66   943.81   982.40  1041.28  1071.84
                             1096.85  1104.44  1136.00  1182.98  1186.46
                             1194.11  1277.84  1291.34  1297.25  1302.73
                             1348.63  1352.32  1395.42  1421.83  1439.25
                             1504.76  1561.07  1577.19  1584.98  1637.51
                             1668.97  1700.42  1712.71  1751.00  1762.46
                             1783.95  1834.60  1841.59  1866.52  1874.66
                             1910.85  1945.25  1975.76  2005.32  2022.45
                             2031.50  2056.75  2067.60  2133.93  2191.89
                             2196.87  2227.38  2243.85  2331.18  2360.47
                             2366.82  2410.28  2428.03  4373.09  4374.33
                             4389.26  4509.48  4511.20  4605.35  4614.38
                             4631.59  4719.43  4758.25  4987.66  5126.49

 Zero-point correction=                           0.245246 (Hartree/Particle)
 Thermal correction to Energy=                    0.261732
 Thermal correction to Enthalpy=                  0.262676
 Thermal correction to Gibbs Free Energy=         0.198274
 Sum of electronic and zero-point Energies=           -987.895204
 Sum of electronic and thermal Energies=              -987.878718
 Sum of electronic and thermal Enthalpies=            -987.877774
 Sum of electronic and thermal Free Energies=         -987.942176

                     E (Thermal)             CV                S
                      KCal/Mol        Cal/Mol-Kelvin    Cal/Mol-Kelvin
 Total                  164.239             63.309            135.546
 Electronic               0.000              0.000              0.000
 Translational            0.889              2.981             42.745
 Rotational               0.889              2.981             34.200
 Vibrational            162.462             57.348             58.600
 Vibration     1          0.593              1.987              7.545
 Vibration     2          0.593              1.985              6.410
 Vibration     3          0.595              1.980              5.089
 Vibration     4          0.600              1.963              3.912
 Vibration     5          0.602              1.955              3.627
 Vibration     6          0.609              1.933              3.108
 Vibration     7          0.613              1.920              2.896
 Vibration     8          0.619              1.899              2.628
 Vibration     9          0.630              1.864              2.304
 Vibration    10          0.645              1.816              1.988
 Vibration    11          0.666              1.753              1.690
 Vibration    12          0.680              1.710              1.530
 Vibration    13          0.692              1.675              1.421
 Vibration    14          0.711              1.620              1.270
 Vibration    15          0.720              1.596              1.212
 Vibration    16          0.733              1.558              1.129
 Vibration    17          0.778              1.439              0.911
 Vibration    18          0.803              1.375              0.815
 Vibration    19          0.830              1.310              0.730
 Vibration    20          0.833              1.303              0.721
 Vibration    21          0.848              1.267              0.677
 Vibration    22          0.866              1.225              0.631
 Vibration    23          0.920              1.110              0.516
 Vibration    24          0.940              1.068              0.480
 Vibration    25          0.956              1.037              0.454

 Optimization completed.
    -- Stationary point found.
 Normal termination of Gaussian 16 at Sun Dec 13 13:51:40 2020.

 ----------------------------------------------------------------------
 # B3LYP/6-311++G(d,p) empiricaldispersion=gd3bj scf=xqc pop=npa geom=c
 heck
 ----------------------------------------------------------------------

 ---------------------------------------
 CID_43463989_JID_10969_Energie_neutraal
 ---------------------------------------
 Structure from the checkpoint file:  "JID_10969.chk"
 Charge =  0 Multiplicity = 1

 SCF Done:  E(RB3LYP) =  -988.421166643     A.U. after   16 cycles
 Normal termination of Gaussian 16 at Sun Dec 13 13:57:50 2020.

 ----------------------------------------------------------------------
 # B3LYP/6-311++G(d,p) empiricaldispersion=gd3bj scf=xqc pop=npa geom=c
 heck
 ----------------------------------------------------------------------

 -------------------------------------
 CID_43463989_JID_10969_Energie_kation
 -------------------------------------
 Structure from the checkpoint file:  "JID_10969.chk"
 Charge =  1 Multiplicity = 2

 SCF Done:  E(UB3LYP) =  -988.129725870     A.U. after   25 cycles
 Normal termination of Gaussian 16 at Sun Dec 13 14:11:05 2020.
 Gaussian 16:  ES64L-G16RevA.03 25-Dec-2016

 ----------------------------------------------------------------------
 # B3LYP/6-311++G(d,p) empiricaldispersion=gd3bj scf=xqc pop=npa geom=c
 heck
 ----------------------------------------------------------------------

 ------------------------------------
 CID_43463989_JID_10969_Energie_anion
 ------------------------------------
 Structure from the checkpoint file:  "JID_10969.chk"
 Charge = -1 Multiplicity = 2

                         Standard orientation:
 ---------------------------------------------------------------------
 Center     Atomic      Atomic             Coordinates (Angstroms)
 Number     Number       Type             X           Y           Z
 ---------------------------------------------------------------------
      1          6           0       -4.411643   -1.795977    0.088696
      2          6           0       -3.845184   -1.717095   -1.318790
      3          8           0       -2.462015   -1.368031   -1.272214
      4          6           0       -2.182108   -0.338272   -0.408211
      5          6           0       -3.099215    0.083795    0.567645
      6          8           0       -4.320905   -0.521044    0.724401
      7          6           0       -2.769889    1.148077    1.407436
      8          6           0       -1.534419    1.775372    1.291498
      9          6           0       -0.604853    1.340930    0.339873
     10          6           0       -0.941256    0.287867   -0.511220
     11          6           0        0.722220    2.074664    0.198702
     12          6           0        1.821726    1.167158   -0.280408
     13          6           0        2.515889    1.074754   -1.461793
     14          6           0        3.423314   -0.015490   -1.324139
     15          6           0        3.211411   -0.499690   -0.064637
     16          8           0        2.248290    0.201637    0.584264
     17          7           0        3.834860   -1.574739    0.632697
     18          8           0        3.474024   -1.805729    1.785959
     19          8           0        4.700979   -2.193448    0.003947
     20          7           0        0.535385    3.259232   -0.644373
     21          1           0       -5.471645   -2.060562    0.078670
     22          1           0       -3.857485   -2.542587    0.673391
     23          1           0       -3.902116   -2.682417   -1.827468
     24          1           0       -4.398056   -0.967828   -1.901747
     25          1           0       -3.495514    1.458493    2.152268
     26          1           0       -1.286155    2.606827    1.943994
     27          1           0       -0.249828   -0.074005   -1.265829
     28          1           0        1.013213    2.429672    1.196335
     29          1           0        2.389556    1.711787   -2.324749
     30          1           0        4.136187   -0.397724   -2.038039
     31          1           0        1.427870    3.718487   -0.820655
     32          1           0        0.143310    2.984777   -1.543192
 ---------------------------------------------------------------------

 SCF Done:  E(UB3LYP) =  -988.456551708     A.U. after   28 cycles

 The electronic state is 2-A.
 Alpha  occ. eigenvalues --  -19.08369 -19.08068 -19.04422 -18.92881 -18.92733
 Alpha  occ. eigenvalues --  -14.30962 -14.20527 -10.16978 -10.16912 -10.15051
 Alpha  occ. eigenvalues --  -10.14947 -10.11258 -10.09770 -10.09068 -10.08803
 Alpha  occ. eigenvalues --  -10.08671 -10.08400 -10.08235 -10.04419 -10.02467
 Alpha  occ. eigenvalues --   -1.01799  -1.01542  -0.98194  -0.97507  -0.83982
 Alpha  occ. eigenvalues --   -0.80473  -0.77187  -0.70811  -0.67598  -0.66870
 Alpha  occ. eigenvalues --   -0.65407  -0.63701  -0.60140  -0.57235  -0.53964
 Alpha  occ. eigenvalues --   -0.50805  -0.49058  -0.46996  -0.45959  -0.44515
 Alpha  occ. eigenvalues --   -0.43920  -0.41905  -0.40429  -0.38358  -0.38206
 Alpha  occ. eigenvalues --   -0.37475  -0.36480  -0.35652  -0.35438  -0.34766
 Alpha  occ. eigenvalues --   -0.33678  -0.32597  -0.31965  -0.31655  -0.30690
 Alpha  occ. eigenvalues --   -0.30300  -0.28766  -0.27995  -0.26702  -0.26444
 Alpha  occ. eigenvalues --   -0.25994  -0.24119  -0.23670  -0.23370  -0.16176
 Alpha  occ. eigenvalues --   -0.15792  -0.15317  -0.13464  -0.12210  -0.10996
 Alpha  occ. eigenvalues --   -0.09752  -0.08988   0.03421
 Alpha virt. eigenvalues --    0.04934   0.07089   0.07231   0.07460   0.07975
 Alpha virt. eigenvalues --    0.08467   0.08684   0.09513   0.10244   0.10927
 Alpha virt. eigenvalues --    0.11331   0.11447   0.13249   0.13588   0.13846

  Beta  occ. eigenvalues --  -19.08368 -19.08067 -19.04217 -18.92315 -18.92218
  Beta  occ. eigenvalues --  -14.30298 -14.20523 -10.16978 -10.16912 -10.15046
  Beta  occ. eigenvalues --  -10.14948 -10.11278 -10.09732 -10.09066 -10.08779
  Beta  occ. eigenvalues --  -10.08428 -10.08400 -10.08229 -10.04519 -10.02235
  Beta  occ. eigenvalues --   -1.01796  -1.00491  -0.98192  -0.97070  -0.82971
  Beta  occ. eigenvalues --   -0.80438  -0.77176  -0.70800  -0.67563  -0.66594
  Beta  occ. eigenvalues --   -0.65203  -0.63381  -0.60030  -0.56955  -0.53775
  Beta  occ. eigenvalues --   -0.50315  -0.48971  -0.46960  -0.45826  -0.44485
  Beta  occ. eigenvalues --   -0.43867  -0.41677  -0.40383  -0.38274  -0.37946
  Beta  occ. eigenvalues --   -0.37419  -0.36409  -0.35394  -0.35120  -0.33299
  Beta  occ. eigenvalues --   -0.33017  -0.32492  -0.31936  -0.31454  -0.30063
  Beta  occ. eigenvalues --   -0.28837  -0.28428  -0.27690  -0.26654  -0.26095
  Beta  occ. eigenvalues --   -0.25882  -0.23950  -0.23636  -0.23352  -0.16097
  Beta  occ. eigenvalues --   -0.15530  -0.14648  -0.13419  -0.10478  -0.08685
  Beta  occ. eigenvalues --   -0.08452  -0.08135
  Beta virt. eigenvalues --    0.04919   0.07086   0.07227   0.07437   0.07961
  Beta virt. eigenvalues --    0.08448   0.08674   0.09435   0.10225   0.10810
  Beta virt. eigenvalues --    0.11123   0.11319   0.11486   0.13230   0.13569

 Mulliken charges and spin densities:
               1          2
     1  C   -0.245925   0.000522
     2  C   -0.235870  -0.001058
     3  O   -0.114980  -0.000541
     4  C    0.245770  -0.004398
     5  C    0.056595   0.008544
     6  O   -0.144217   0.000345
     7  C   -0.491406   0.000306
     8  C   -0.268852  -0.007593
     9  C    0.391451   0.007522
    10  C   -0.711277   0.002015
    11  C   -0.010536  -0.016070
    12  C   -0.052001   0.154397
    13  C   -0.374763  -0.068864
    14  C   -0.081162   0.216737
    15  C   -0.042108   0.010935
    16  O   -0.002423   0.054836
    17  N   -0.369713   0.208182
    18  O   -0.220513   0.217025
    19  O   -0.200128   0.199461
    20  N   -0.298016  -0.004008
    21  H    0.165238   0.001908
    22  H    0.173713  -0.000366
    23  H    0.171204   0.000505
    24  H    0.156499   0.000339
    25  H    0.164844   0.003058
    26  H    0.146275   0.000203
    27  H    0.249942   0.001555
    28  H    0.211023   0.019994
    29  H    0.114383   0.004647
    30  H    0.177514  -0.014226
    31  H    0.225533   0.004269
    32  H    0.213906  -0.000181
 Sum of Mulliken charges =  -1.00000   1.00000

 Dipole moment (field-independent basis, Debye):
    X=            -15.9540    Y=              4.9607    Z=             -4.2676  Tot=             17.2438
 Quadrupole moment (field-independent basis, Debye-Ang):
   XX=           -186.4534   YY=           -138.9261   ZZ=           -126.3995
   XY=             42.8045   XZ=             -7.7109   YZ=              7.1515

 Summary of Natural Population Analysis:

                                       Natural Population
                Natural  -----------------------------------------------
    Atom  No    Charge         Core      Valence    Rydberg      Total
 -----------------------------------------------------------------------
      C    1   -0.02483      0.99959     2.01550    0.00975     3.02483
      C    2   -0.02415      0.99959     2.01486    0.00970     3.02415
      O    3   -0.27302      0.99987     3.26371    0.00945     4.27302
      C    4    0.12302      0.99934     1.86413    0.01351     2.87698
      C    5    0.11887      0.99935     1.87017    0.01162     2.88113
      O    6   -0.27844      0.99987     3.26878    0.00980     4.27844
      C    7   -0.11591      0.99954     2.10773    0.00864     3.11591
      C    8   -0.09673      0.99952     2.08900    0.00821     3.09673
      C    9   -0.00572      0.99950     1.99658    0.00965     3.00572
      C   10   -0.10979      0.99948     2.10164    0.00867     3.10979
      C   11   -0.03898      0.99952     2.02698    0.01249     3.03898
      C   12    0.18019      0.99946     1.80559    0.01475     2.81981
      C   13   -0.18588      0.99950     2.17798    0.00840     3.18588
      C   14   -0.10527      0.99953     2.09531    0.01043     3.10527
      C   15    0.21000      0.99939     1.77427    0.01633     2.79000
      O   16   -0.21084      0.99984     3.20141    0.00960     4.21084
      N   17    0.29324      0.99969     2.18008    0.02698     3.20676
      O   18   -0.17991      0.99990     3.17198    0.00802     4.17991
      O   19   -0.20006      0.99990     3.19215    0.00801     4.20006
      N   20   -0.41634      0.99977     2.90760    0.00897     3.91634
      H   21    0.09268      0.00000     0.40631    0.00102     0.40732
      H   22    0.08835      0.00000     0.41033    0.00133     0.41165
      H   23    0.09487      0.00000     0.40413    0.00101     0.40513
      H   24    0.08423      0.00000     0.41441    0.00136     0.41577
      H   25    0.10276      0.00000     0.39577    0.00147     0.39724
      H   26    0.10153      0.00000     0.39710    0.00137     0.39847
      H   27    0.11812      0.00000     0.38045    0.00143     0.38188
      H   28    0.10153      0.00000     0.39650    0.00197     0.39847
      H   29    0.09856      0.00000     0.40024    0.00120     0.40144
      H   30    0.10975      0.00000     0.38922    0.00103     0.39025
      H   31    0.17548      0.00000     0.32271    0.00181     0.32452
      H   32    0.17271      0.00000     0.32549    0.00179     0.32729
 =======================================================================
   * Total *    0.00000     19.99216    51.76810    0.23975    72.00000

 Normal termination of Gaussian 16 at Sun Dec 13 14:25:49 2020.
