 Gaussian 16, Revision A.03,

 -----------------------------------------------------------
 # opt freq B3LYP/6-31G(d) empiricaldispersion=gd3bj scf=xqc
 -----------------------------------------------------------

 -------------------------------
 CID_103280359_JID_9319_neutraal
 -------------------------------
 Symbolic Z-matrix:
 Charge =  0 Multiplicity = 1

 SCF Done:  E(RB3LYP) =  -879.592254063     A.U. after   15 cycles
 SCF Done:  E(RB3LYP) =  -879.596194341     A.U. after   12 cycles
 SCF Done:  E(RB3LYP) =  -879.596567224     A.U. after   12 cycles
 SCF Done:  E(RB3LYP) =  -879.597211087     A.U. after   12 cycles
 SCF Done:  E(RB3LYP) =  -879.597410466     A.U. after   12 cycles
 SCF Done:  E(RB3LYP) =  -879.597604746     A.U. after   12 cycles
 SCF Done:  E(RB3LYP) =  -879.597734243     A.U. after   12 cycles
 SCF Done:  E(RB3LYP) =  -879.597842905     A.U. after   12 cycles
 SCF Done:  E(RB3LYP) =  -879.597956492     A.U. after   11 cycles
 SCF Done:  E(RB3LYP) =  -879.598170862     A.U. after   13 cycles
 SCF Done:  E(RB3LYP) =  -879.598613058     A.U. after   10 cycles
 SCF Done:  E(RB3LYP) =  -879.598615998     A.U. after   10 cycles
 SCF Done:  E(RB3LYP) =  -879.598616414     A.U. after    9 cycles
 SCF Done:  E(RB3LYP) =  -879.598616354     A.U. after    8 cycles
 SCF Done:  E(RB3LYP) =  -879.598616425     A.U. after    7 cycles
 Optimization completed.
    -- Stationary point found.
 Normal termination of Gaussian 16 at Sun Dec 13 20:28:00 2020.

 --------------------------------------------------------------------
 #N Geom=AllCheck Guess=TCheck SCRF=Check GenChk RB3LYP/6-31G(d) Freq
 --------------------------------------------------------------------

 Structure from the checkpoint file:  "JID_9319.chk"
 -------------------------------
 CID_103280359_JID_9319_neutraal
 -------------------------------
 Charge =  0 Multiplicity = 1

 SCF Done:  E(RB3LYP) =  -879.598616425     A.U. after    1 cycles

  Exact polarizability: 200.859  29.769 143.811  12.363 -15.288 142.955
 Approx polarizability: 261.193  51.592 222.403  32.849 -37.090 255.419

                      1                      2                      3
                      A                      A                      A
 Frequencies --     17.3718                27.9840                37.7513
 Red. masses --      4.4670                 4.9078                 4.2772
 Frc consts  --      0.0008                 0.0023                 0.0036
 IR Inten    --      0.2994                 0.7357                 5.7792

                      4                      5                      6
                      A                      A                      A
 Frequencies --     51.5905                67.0752                80.0842
 Red. masses --      4.0339                 5.5084                 5.4969
 Frc consts  --      0.0063                 0.0146                 0.0208
 IR Inten    --      0.6638                 0.0889                 0.2601

                      7                      8                      9
                      A                      A                      A
 Frequencies --     85.6687               135.8056               177.1241
 Red. masses --      4.9817                 6.0102                 3.4358
 Frc consts  --      0.0215                 0.0653                 0.0635
 IR Inten    --      5.4732                 0.7576                 7.4764

                     10                     11                     12
                      A                      A                      A
 Frequencies --    181.6785               232.0624               256.0914
 Red. masses --      3.5355                 4.6465                 4.3773
 Frc consts  --      0.0688                 0.1474                 0.1691
 IR Inten    --      1.7014                 7.4673                 5.1607

                     13                     14                     15
                      A                      A                      A
 Frequencies --    267.1456               302.2227               328.2668
 Red. masses --      4.4432                 4.0093                 1.1438
 Frc consts  --      0.1868                 0.2158                 0.0726
 IR Inten    --      0.9574                 3.4645               121.8406

                     16                     17                     18
                      A                      A                      A
 Frequencies --    382.3668               393.1046               406.0593
 Red. masses --      3.5739                 2.1582                 2.4999
 Frc consts  --      0.3079                 0.1965                 0.2429
 IR Inten    --      4.7386                 7.0425                 9.4104

                     19                     20                     21
                      A                      A                      A
 Frequencies --    411.7803               422.4906               427.7374
 Red. masses --      1.5719                 2.0375                 3.4202
 Frc consts  --      0.1570                 0.2143                 0.3687
 IR Inten    --    116.8008                67.5776                 3.8864

                     22                     23                     24
                      A                      A                      A
 Frequencies --    443.7551               498.0452               511.5622
 Red. masses --      2.1835                 3.5762                 4.5468
 Frc consts  --      0.2533                 0.5226                 0.7011
 IR Inten    --      4.4212                 6.4003                15.7076

                     25                     26                     27
                      A                      A                      A
 Frequencies --    544.3260               576.9896               612.8810
 Red. masses --      2.1234                 1.6775                 3.1477
 Frc consts  --      0.3707                 0.3290                 0.6966
 IR Inten    --     48.4106                16.1478                15.0813

                     28                     29                     30
                      A                      A                      A
 Frequencies --    646.3840               650.3957               670.8875
 Red. masses --      3.0635                 5.5335                 2.5535
 Frc consts  --      0.7541                 1.3791                 0.6771
 IR Inten    --      1.4680                 1.5074                62.5832

                     31                     32                     33
                      A                      A                      A
 Frequencies --    698.4271               730.6226               760.0043
 Red. masses --      3.5729                 2.5013                 2.9666
 Frc consts  --      1.0269                 0.7867                 1.0096
 IR Inten    --     17.9999                17.2830                22.7224

                     34                     35                     36
                      A                      A                      A
 Frequencies --    773.6971               800.4963               806.6077
 Red. masses --      2.8057                 2.3837                 5.2642
 Frc consts  --      0.9895                 0.9000                 2.0179
 IR Inten    --     94.0239                13.7610                 6.1614

                     37                     38                     39
                      A                      A                      A
 Frequencies --    808.5240               859.8291               864.1104
 Red. masses --      5.4504                 2.3768                 2.1207
 Frc consts  --      2.0992                 1.0353                 0.9330
 IR Inten    --      8.1183                 6.9193                 7.0240

                     40                     41                     42
                      A                      A                      A
 Frequencies --    867.3960               887.9578               894.9659
 Red. masses --      1.3533                 1.8366                 2.0196
 Frc consts  --      0.5999                 0.8532                 0.9531
 IR Inten    --      4.0290                18.2287                 3.0268

                     43                     44                     45
                      A                      A                      A
 Frequencies --    951.6758               970.2181               979.5227
 Red. masses --      1.8379                 2.2528                 1.2989
 Frc consts  --      0.9807                 1.2494                 0.7343
 IR Inten    --     21.4485                19.0312                 1.1319

                     46                     47                     48
                      A                      A                      A
 Frequencies --    998.6827              1011.5001              1022.6262
 Red. masses --      1.3330                 2.2290                 1.9239
 Frc consts  --      0.7833                 1.3436                 1.1854
 IR Inten    --      1.4506                 5.3786                20.4504

                     49                     50                     51
                      A                      A                      A
 Frequencies --   1040.0313              1043.2791              1060.9255
 Red. masses --      2.4461                 2.4466                 1.9183
 Frc consts  --      1.5589                 1.5690                 1.2722
 IR Inten    --      8.3521                 7.9451                 2.2356

                     52                     53                     54
                      A                      A                      A
 Frequencies --   1101.1242              1104.3454              1129.8656
 Red. masses --      1.8488                 1.6979                 2.7386
 Frc consts  --      1.3207                 1.2200                 2.0598
 IR Inten    --      4.3834                12.0570                 9.7441

                     55                     56                     57
                      A                      A                      A
 Frequencies --   1144.6463              1151.4943              1174.1434
 Red. masses --      1.5952                 2.3883                 2.5950
 Frc consts  --      1.2314                 1.8658                 2.1078
 IR Inten    --      2.0250                16.0164                23.9318

                     58                     59                     60
                      A                      A                      A
 Frequencies --   1201.9382              1212.3388              1217.7203
 Red. masses --      1.3345                 1.3892                 1.3057
 Frc consts  --      1.1359                 1.2030                 1.1407
 IR Inten    --     11.8817                26.9413                11.5417

                     61                     62                     63
                      A                      A                      A
 Frequencies --   1224.6906              1258.6830              1288.8824
 Red. masses --      1.3899                 1.2811                 1.4860
 Frc consts  --      1.2283                 1.1959                 1.4544
 IR Inten    --      5.4260                13.6535                40.6647

                     64                     65                     66
                      A                      A                      A
 Frequencies --   1319.4656              1335.7971              1341.1001
 Red. masses --      1.3074                 1.3917                 1.2940
 Frc consts  --      1.3411                 1.4631                 1.3712
 IR Inten    --     25.7855                13.6289                 7.0511

                     67                     68                     69
                      A                      A                      A
 Frequencies --   1348.4448              1356.9437              1358.6465
 Red. masses --      1.3010                 5.6917                 1.5315
 Frc consts  --      1.3938                 6.1747                 1.6656
 IR Inten    --     10.1656                46.1786                42.0288

                     70                     71                     72
                      A                      A                      A
 Frequencies --   1374.7461              1383.2403              1389.0674
 Red. masses --      2.1557                 2.2616                 1.5724
 Frc consts  --      2.4004                 2.5495                 1.7875
 IR Inten    --    278.7600               107.4833                19.2236

                     73                     74                     75
                      A                      A                      A
 Frequencies --   1398.5947              1423.1523              1434.1603
 Red. masses --      1.6028                 1.6328                 1.5206
 Frc consts  --      1.8472                 1.9485                 1.8427
 IR Inten    --     14.0883                62.5985                 6.6871

                     76                     77                     78
                      A                      A                      A
 Frequencies --   1449.7830              1483.0804              1507.7143
 Red. masses --      2.8806                 1.4038                 1.0932
 Frc consts  --      3.5673                 1.8192                 1.4641
 IR Inten    --     18.0320                26.6555                 4.2187

                     79                     80                     81
                      A                      A                      A
 Frequencies --   1514.8464              1527.6883              1534.9315
 Red. masses --      1.0918                 1.1126                 1.1130
 Frc consts  --      1.4761                 1.5298                 1.5449
 IR Inten    --      4.4934                15.8601                 8.9256

                     82                     83                     84
                      A                      A                      A
 Frequencies --   1555.8758              1621.4256              1646.6644
 Red. masses --      2.4732                 6.9787                 1.2489
 Frc consts  --      3.5275                10.8099                 1.9952
 IR Inten    --     14.4511                10.0508               150.5154

                     85                     86                     87
                      A                      A                      A
 Frequencies --   1672.3571              1770.1005              1790.4613
 Red. masses --      5.6774                 8.4616                 8.4044
 Frc consts  --      9.3552                15.6207                15.8739
 IR Inten    --      1.9936               309.0954               255.4667

                     88                     89                     90
                      A                      A                      A
 Frequencies --   3021.1166              3049.2224              3057.8976
 Red. masses --      1.0832                 1.0619                 1.0802
 Frc consts  --      5.8248                 5.8172                 5.9512
 IR Inten    --     55.8382                52.1455                30.6154

                     91                     92                     93
                      A                      A                      A
 Frequencies --   3061.5166              3074.2375              3088.1501
 Red. masses --      1.0703                 1.0665                 1.1005
 Frc consts  --      5.9107                 5.9388                 6.1834
 IR Inten    --     12.3057                27.3580                36.9086

                     94                     95                     96
                      A                      A                      A
 Frequencies --   3093.3815              3112.9793              3119.7416
 Red. masses --      1.0618                 1.1040                 1.1004
 Frc consts  --      5.9861                 6.3034                 6.3100
 IR Inten    --     14.7337                13.9785                37.0000

                     97                     98                     99
                      A                      A                      A
 Frequencies --   3141.7216              3194.8576              3212.9093
 Red. masses --      1.1056                 1.0873                 1.0939
 Frc consts  --      6.4295                 6.5391                 6.6533
 IR Inten    --     27.8284                 8.8561                 8.9622

                    100                    101                    102
                      A                      A                      A
 Frequencies --   3217.1457              3232.8348              3566.9890
 Red. masses --      1.0885                 1.0939                 1.0748
 Frc consts  --      6.6379                 6.7357                 8.0571
 IR Inten    --      0.6463                 1.5463                15.2304

                    103                    104                    105
                      A                      A                      A
 Frequencies --   3581.0179              3700.1492              3738.7614
 Red. masses --      1.0460                 1.1024                 1.0661
 Frc consts  --      7.9032                 8.8929                 8.7799
 IR Inten    --     35.5861                27.3122                10.7330

 - Thermochemistry -
 -------------------
 Temperature   298.150 Kelvin.  Pressure   1.00000 Atm.
 Atom     1 has atomic number  6 and mass  12.00000

 Molecular mass:   262.13174 amu.
 Principal axes and moments of inertia in atomic units:
                           1         2         3
     Eigenvalues --  2757.28629********************
           X            0.99996  -0.00112  -0.00853
           Y            0.00103   0.99993  -0.01160
           Z            0.00854   0.01159   0.99990
 This molecule is an asymmetric top.
 Rotational symmetry number  1.
 Warning -- assumption of classical behavior for rotation
           may cause significant error
 Rotational temperatures (Kelvin)      0.03141     0.00831     0.00744
 Rotational constants (GHZ):           0.65454     0.17306     0.15510
 Zero-point vibrational energy     817591.2 (Joules/Mol)
                                  195.40899 (Kcal/Mol)
 Warning -- explicit consideration of  27 degrees of freedom as
           vibrations may cause significant error
 Vibrational temperatures:     24.99    40.26    54.32    74.23    96.51
          (Kelvin)            115.22   123.26   195.39   254.84   261.39
                              333.89   368.46   384.36   434.83   472.30
                              550.14   565.59   584.23   592.46   607.87
                              615.42   638.46   716.58   736.02   783.16
                              830.16   881.80   930.00   935.77   965.26
                             1004.88  1051.20  1093.48  1113.18  1151.74
                             1160.53  1163.29  1237.10  1243.26  1247.99
                             1277.57  1287.66  1369.25  1395.93  1409.31
                             1436.88  1455.32  1471.33  1496.37  1501.05
                             1526.44  1584.27  1588.91  1625.62  1646.89
                             1656.74  1689.33  1729.32  1744.29  1752.03
                             1762.06  1810.96  1854.41  1898.42  1921.91
                             1929.54  1940.11  1952.34  1954.79  1977.95
                             1990.17  1998.56  2012.27  2047.60  2063.44
                             2085.91  2133.82  2169.26  2179.53  2198.00
                             2208.42  2238.56  2332.87  2369.18  2406.15
                             2546.78  2576.07  4346.71  4387.15  4399.63
                             4404.84  4423.14  4443.16  4450.69  4478.88
                             4488.61  4520.24  4596.69  4622.66  4628.76
                             4651.33  5132.10  5152.29  5323.69  5379.24

 Zero-point correction=                           0.311404 (Hartree/Particle)
 Thermal correction to Energy=                    0.329212
 Thermal correction to Enthalpy=                  0.330157
 Thermal correction to Gibbs Free Energy=         0.262938
 Sum of electronic and zero-point Energies=           -879.287212
 Sum of electronic and thermal Energies=              -879.269404
 Sum of electronic and thermal Enthalpies=            -879.268460
 Sum of electronic and thermal Free Energies=         -879.335679

                     E (Thermal)             CV                S
                      KCal/Mol        Cal/Mol-Kelvin    Cal/Mol-Kelvin
 Total                  206.584             68.238            141.474
 Electronic               0.000              0.000              0.000
 Translational            0.889              2.981             42.591
 Rotational               0.889              2.981             34.169
 Vibrational            204.806             62.276             64.714
 Vibration     1          0.593              1.986              6.914
 Vibration     2          0.593              1.984              5.967
 Vibration     3          0.594              1.982              5.374
 Vibration     4          0.596              1.977              4.755
 Vibration     5          0.598              1.970              4.237
 Vibration     6          0.600              1.963              3.889
 Vibration     7          0.601              1.959              3.757
 Vibration     8          0.614              1.918              2.862
 Vibration     9          0.628              1.871              2.359
 Vibration    10          0.630              1.865              2.311
 Vibration    11          0.653              1.792              1.863
 Vibration    12          0.666              1.752              1.688
 Vibration    13          0.672              1.733              1.615
 Vibration    14          0.694              1.669              1.405
 Vibration    15          0.711              1.619              1.269
 Vibration    16          0.752              1.508              1.030
 Vibration    17          0.760              1.485              0.988
 Vibration    18          0.771              1.457              0.941
 Vibration    19          0.776              1.445              0.920
 Vibration    20          0.785              1.421              0.884
 Vibration    21          0.789              1.410              0.866
 Vibration    22          0.803              1.375              0.815
 Vibration    23          0.854              1.254              0.663
 Vibration    24          0.867              1.224              0.630
 Vibration    25          0.899              1.152              0.556
 Vibration    26          0.933              1.081              0.491
 Vibration    27          0.972              1.005              0.428

 Optimization completed.
    -- Stationary point found.
 Normal termination of Gaussian 16 at Sun Dec 13 20:46:47 2020.

 ----------------------------------------------------------------------
 # B3LYP/6-311++G(d,p) empiricaldispersion=gd3bj scf=xqc pop=npa geom=c
 heck
 ----------------------------------------------------------------------

 ---------------------------------------
 CID_103280359_JID_9319_Energie_neutraal
 ---------------------------------------
 Structure from the checkpoint file:  "JID_9319.chk"
 Charge =  0 Multiplicity = 1

 SCF Done:  E(RB3LYP) =  -879.863390594     A.U. after   15 cycles
 Normal termination of Gaussian 16 at Sun Dec 13 20:55:34 2020.

 ----------------------------------------------------------------------
 # B3LYP/6-311++G(d,p) empiricaldispersion=gd3bj scf=xqc pop=npa geom=c
 heck
 ----------------------------------------------------------------------

 -------------------------------------
 CID_103280359_JID_9319_Energie_kation
 -------------------------------------
 Structure from the checkpoint file:  "JID_9319.chk"
 Charge =  1 Multiplicity = 2

 SCF Done:  E(UB3LYP) =  -879.544749904     A.U. after   33 cycles
 SCF Done:  E(UB3LYP) =  -879.544749904     a.u. after    1 cycles
 Normal termination of Gaussian 16 at Sun Dec 13 21:22:52 2020.
 Gaussian 16:  ES64L-G16RevA.03 25-Dec-2016

 ----------------------------------------------------------------------
 # B3LYP/6-311++G(d,p) empiricaldispersion=gd3bj scf=xqc pop=npa geom=c
 heck
 ----------------------------------------------------------------------

 ------------------------------------
 CID_103280359_JID_9319_Energie_anion
 ------------------------------------
 Structure from the checkpoint file:  "JID_9319.chk"
 Charge = -1 Multiplicity = 2

                         Standard orientation:
 ---------------------------------------------------------------------
 Center     Atomic      Atomic             Coordinates (Angstroms)
 Number     Number       Type             X           Y           Z
 ---------------------------------------------------------------------
      1          6           0        3.305010    0.420338   -0.945691
      2          6           0        4.296419   -0.676659   -1.375994
      3          6           0        4.115533   -1.759378   -0.305459
      4          6           0        2.597903   -1.807101   -0.126158
      5          6           0        2.121780   -0.334850   -0.270398
      6          6           0        1.742997    0.267535    1.089867
      7          7           0        1.345705    1.678039    1.021561
      8          6           0        0.276075    2.157188    0.296683
      9          8           0        0.296858    3.265846   -0.226739
     10          6           0       -0.943885    1.286990    0.206892
     11          6           0       -1.636527    1.244460   -1.009556
     12          6           0       -2.789333    0.479209   -1.133996
     13          6           0       -3.281454   -0.243184   -0.039676
     14          6           0       -2.615644   -0.162432    1.190156
     15          6           0       -1.451865    0.592727    1.311127
     16          6           0       -4.529040   -1.050890   -0.248690
     17          8           0       -5.278672   -0.854385   -1.196112
     18          7           0       -4.795905   -2.009422    0.701866
     19          8           0        4.661404   -1.345817    0.953177
     20          1           0        3.790331    1.079534   -0.216982
     21          1           0        2.980987    1.048655   -1.779719
     22          1           0        5.331636   -0.321861   -1.454382
     23          1           0        4.020353   -1.090527   -2.354341
     24          1           0        4.537222   -2.730871   -0.601921
     25          1           0        2.160383   -2.433563   -0.910950
     26          1           0        2.331523   -2.251037    0.838751
     27          1           0        1.233517   -0.292185   -0.910822
     28          1           0        0.934653   -0.314126    1.537848
     29          1           0        2.601879    0.202496    1.764237
     30          1           0        2.117506    2.335209    0.974150
     31          1           0       -1.258893    1.824109   -1.845361
     32          1           0       -3.336348    0.430664   -2.069148
     33          1           0       -3.022333   -0.655201    2.068254
     34          1           0       -0.954390    0.673211    2.272437
     35          1           0       -4.043830   -2.401506    1.249489
     36          1           0       -5.561006   -2.632442    0.479234
     37          1           0        5.603691   -1.159756    0.817985
 ---------------------------------------------------------------------

 SCF Done:  E(UB3LYP) =  -879.878168307     A.U. after   30 cycles

 The electronic state is 2-A.
 Alpha  occ. eigenvalues --  -19.04255 -18.96082 -18.95619 -14.21407 -14.21385
 Alpha  occ. eigenvalues --  -10.13911 -10.13796 -10.13723 -10.09906 -10.08555
 Alpha  occ. eigenvalues --  -10.07878 -10.07844 -10.07668 -10.05109 -10.05041
 Alpha  occ. eigenvalues --  -10.04243 -10.04130 -10.04042 -10.03987  -0.94401
 Alpha  occ. eigenvalues --   -0.91252  -0.90947  -0.80572  -0.78596  -0.74472
 Alpha  occ. eigenvalues --   -0.72962  -0.64706  -0.63749  -0.62771  -0.62124
 Alpha  occ. eigenvalues --   -0.56634  -0.53354  -0.49969  -0.48676  -0.47687
 Alpha  occ. eigenvalues --   -0.46290  -0.44286  -0.43176  -0.42770  -0.40476
 Alpha  occ. eigenvalues --   -0.39112  -0.38687  -0.36788  -0.35906  -0.34310
 Alpha  occ. eigenvalues --   -0.33170  -0.31826  -0.30792  -0.30401  -0.30006
 Alpha  occ. eigenvalues --   -0.29729  -0.29212  -0.28966  -0.28376  -0.27582
 Alpha  occ. eigenvalues --   -0.27045  -0.25458  -0.25027  -0.24394  -0.23710
 Alpha  occ. eigenvalues --   -0.22944  -0.22346  -0.21662  -0.19785  -0.16345
 Alpha  occ. eigenvalues --   -0.15003  -0.13965  -0.13636  -0.12893  -0.12433
 Alpha  occ. eigenvalues --    0.03182
 Alpha virt. eigenvalues --    0.04406   0.06912   0.07263   0.07947   0.08630
 Alpha virt. eigenvalues --    0.09535   0.09971   0.10249   0.10711   0.10923
 Alpha virt. eigenvalues --    0.11334   0.11595   0.12179   0.12825   0.13290

  Beta  occ. eigenvalues --  -19.04234 -18.95922 -18.95419 -14.21390 -14.21353
  Beta  occ. eigenvalues --  -10.13821 -10.13790 -10.13589 -10.09901 -10.08542
  Beta  occ. eigenvalues --  -10.07875 -10.07844 -10.07663 -10.05103 -10.04995
  Beta  occ. eigenvalues --  -10.04203 -10.03957 -10.03862 -10.03775  -0.94355
  Beta  occ. eigenvalues --   -0.90974  -0.90596  -0.80464  -0.78438  -0.74446
  Beta  occ. eigenvalues --   -0.72650  -0.64642  -0.63265  -0.62720  -0.61878
  Beta  occ. eigenvalues --   -0.56571  -0.52817  -0.49911  -0.48576  -0.47570
  Beta  occ. eigenvalues --   -0.46161  -0.44074  -0.43134  -0.42693  -0.40431
  Beta  occ. eigenvalues --   -0.39065  -0.38564  -0.36742  -0.35677  -0.34160
  Beta  occ. eigenvalues --   -0.32977  -0.31656  -0.30679  -0.30254  -0.29900
  Beta  occ. eigenvalues --   -0.29500  -0.28931  -0.28597  -0.28014  -0.27404
  Beta  occ. eigenvalues --   -0.26717  -0.25439  -0.24816  -0.24282  -0.23450
  Beta  occ. eigenvalues --   -0.22665  -0.22081  -0.21539  -0.19757  -0.15683
  Beta  occ. eigenvalues --   -0.14658  -0.13407  -0.13172  -0.12325  -0.11288
  Beta virt. eigenvalues --    0.05021   0.06959   0.07243   0.07847   0.08000
  Beta virt. eigenvalues --    0.08616   0.09575   0.09949   0.10237   0.10827
  Beta virt. eigenvalues --    0.10939   0.11205   0.11583   0.12255   0.12921

 Mulliken charges and spin densities:
               1          2
     1  C   -0.691643   0.149649
     2  C   -0.194372  -0.331146
     3  C    0.071768  -0.313509
     4  C   -0.544256  -0.038341
     5  C    0.820286   0.085216
     6  C   -0.572755  -0.121603
     7  N   -0.105551   0.006240
     8  C   -0.476059   0.060489
     9  O   -0.318813   0.050629
    10  C    0.606185   0.103876
    11  C   -0.160522   0.080630
    12  C   -0.352244   0.118431
    13  C    0.708593   0.095056
    14  C   -0.493642   0.073946
    15  C   -0.712215   0.027303
    16  C   -0.119861   0.070840
    17  O   -0.401986   0.073761
    18  N   -0.374926   0.016018
    19  O   -0.214590  -0.006107
    20  H    0.136709  -0.000164
    21  H    0.159501   0.017683
    22  H   -0.171653   0.350323
    23  H    0.136942  -0.018016
    24  H   -0.000046   0.192005
    25  H    0.094942   0.047633
    26  H    0.171882   0.021908
    27  H    0.237724   0.004624
    28  H    0.045869   0.038635
    29  H    0.247727  -0.032391
    30  H    0.280037   0.003557
    31  H    0.171307   0.000209
    32  H    0.184127   0.000607
    33  H    0.117579  -0.010446
    34  H    0.162938  -0.001211
    35  H    0.190843   0.019196
    36  H    0.288140   0.000046
    37  H    0.072037   0.164422
 Sum of Mulliken charges =  -1.00000   1.00000

 Dipole moment (field-independent basis, Debye):
    X=              5.9403    Y=             -4.4945    Z=              2.0309  Tot=              7.7208
 Quadrupole moment (field-independent basis, Debye-Ang):
   XX=           -200.1848   YY=           -143.6245   ZZ=           -127.6577
   XY=              8.2613   XZ=            -15.0803   YZ=             -0.4304

 Summary of Natural Population Analysis:

                                       Natural Population
                Natural  -----------------------------------------------
    Atom  No    Charge         Core      Valence    Rydberg      Total
 -----------------------------------------------------------------------
      C    1   -0.19353      0.99963     2.18395    0.00995     3.19353
      C    2   -0.20299      0.99962     2.19489    0.00848     3.20299
      C    3    0.05996      0.99956     1.92574    0.01474     2.94004
      C    4   -0.19665      0.99960     2.18869    0.00836     3.19665
      C    5   -0.12188      0.99960     2.11279    0.00949     3.12188
      C    6   -0.08636      0.99959     2.07630    0.01048     3.08636
      N    7   -0.32695      0.99968     2.81625    0.01102     3.82695
      C    8    0.35223      0.99962     1.62640    0.02175     2.64777
      O    9   -0.30875      0.99988     3.30309    0.00579     4.30875
      C   10   -0.02390      0.99945     2.01202    0.01242     3.02390
      C   11   -0.08150      0.99954     2.07401    0.00795     3.08150
      C   12   -0.07271      0.99954     2.06516    0.00801     3.07271
      C   13   -0.03108      0.99946     2.02008    0.01153     3.03108
      C   14   -0.09296      0.99954     2.08331    0.01011     3.09296
      C   15   -0.10401      0.99954     2.09499    0.00948     3.10401
      C   16    0.34946      0.99966     1.62954    0.02133     2.65054
      O   17   -0.30937      0.99988     3.30343    0.00606     4.30937
      N   18   -0.40958      0.99971     2.90253    0.00734     3.90958
      O   19   -0.37689      0.99989     3.37019    0.00680     4.37689
      H   20    0.09516      0.00000     0.40334    0.00150     0.40484
      H   21    0.10465      0.00000     0.39447    0.00088     0.39535
      H   22    0.09777      0.00000     0.40109    0.00114     0.40223
      H   23    0.09862      0.00000     0.40043    0.00095     0.40138
      H   24    0.07932      0.00000     0.41954    0.00115     0.42068
      H   25    0.10197      0.00000     0.39715    0.00088     0.39803
      H   26    0.10587      0.00000     0.39312    0.00101     0.39413
      H   27    0.10735      0.00000     0.39087    0.00178     0.39265
      H   28    0.10255      0.00000     0.39629    0.00116     0.39745
      H   29    0.09960      0.00000     0.39930    0.00110     0.40040
      H   30    0.18549      0.00000     0.31285    0.00166     0.31451
      H   31    0.10231      0.00000     0.39676    0.00092     0.39769
      H   32    0.10651      0.00000     0.39252    0.00097     0.39349
      H   33    0.09281      0.00000     0.40619    0.00100     0.40719
      H   34    0.09709      0.00000     0.40177    0.00114     0.40291
      H   35    0.18747      0.00000     0.31060    0.00194     0.31253
      H   36    0.18492      0.00000     0.31190    0.00318     0.31508
      H   37    0.22801      0.00000     0.26888    0.00312     0.27199
 =======================================================================
   * Total *    0.00000     18.99300    50.78044    0.22656    70.00000

 Normal termination of Gaussian 16 at Sun Dec 13 21:46:46 2020.
