 Gaussian 16, Revision A.03,

 -----------------------------------------------------------
 # opt freq B3LYP/6-31G(d) empiricaldispersion=gd3bj scf=xqc
 -----------------------------------------------------------

 -------------------------------
 CID_154554741_JID_2692_neutraal
 -------------------------------
 Symbolic Z-matrix:
 Charge =  0 Multiplicity = 1

 SCF Done:  E(RB3LYP) =  -534.705679040     A.U. after   14 cycles
 SCF Done:  E(RB3LYP) =  -534.711520529     A.U. after   12 cycles
 SCF Done:  E(RB3LYP) =  -534.711535371     A.U. after   12 cycles
 SCF Done:  E(RB3LYP) =  -534.712606541     A.U. after   11 cycles
 SCF Done:  E(RB3LYP) =  -534.712918123     A.U. after   11 cycles
 SCF Done:  E(RB3LYP) =  -534.712953910     A.U. after   10 cycles
 SCF Done:  E(RB3LYP) =  -534.712993020     A.U. after   10 cycles
 SCF Done:  E(RB3LYP) =  -534.712998554     A.U. after    9 cycles
 SCF Done:  E(RB3LYP) =  -534.712999671     A.U. after    7 cycles
 SCF Done:  E(RB3LYP) =  -534.712999969     A.U. after    7 cycles
 SCF Done:  E(RB3LYP) =  -534.713000081     A.U. after    7 cycles
 Optimization completed.
    -- Stationary point found.

 1\1\GINC-NODE366\FOpt\RB3LYP\6-31G(d)\C8H18N4\VSC10255\09-Dec-2020\0\\
 # opt freq B3LYP/6-31G(d) empiricaldispersion=gd3bj scf=xqc\\CID_15455
 4741_JID_2692_neutraal\\0,1\C,1.1352129213,0.25379446,0.0000676269\N,0
 .8757973919,0.7351122665,-1.3481924686\C,-0.5062038611,1.1076573213,-1
 .6070482997\C,-1.0036071066,2.4349166075,-0.9662683502\C,-0.3399228826
 ,3.6313513043,-1.6260835084\N,-0.8590817096,4.2921914359,-2.5986296388
 \N,0.9854303007,3.8995557107,-1.2624654805\C,1.3787670427,3.9081103405
 ,0.1504290738\C,2.8997167811,3.7635598397,0.2788792949\N,3.6555344601,

 Normal termination of Gaussian 16 at Wed Dec  9 17:52:20 2020.

 --------------------------------------------------------------------
 #N Geom=AllCheck Guess=TCheck SCRF=Check GenChk RB3LYP/6-31G(d) Freq
 --------------------------------------------------------------------

 Structure from the checkpoint file:  "JID_2692.chk"
 -------------------------------
 CID_154554741_JID_2692_neutraal
 -------------------------------
 Charge =  0 Multiplicity = 1

 SCF Done:  E(RB3LYP) =  -534.713000081     A.U. after    1 cycles

  Exact polarizability: 121.225  -2.995 119.113  -1.293  -5.377  88.453
 Approx polarizability: 155.666  -3.397 173.529  -1.173  -9.579 135.906

                      1                      2                      3
                      A                      A                      A
 Frequencies --     48.0790                60.5975                77.9733
 Red. masses --      3.0574                 4.1734                 3.5377
 Frc consts  --      0.0042                 0.0090                 0.0127
 IR Inten    --      0.7077                 0.2072                 2.3268

                      4                      5                      6
                      A                      A                      A
 Frequencies --    117.0806               163.2272               179.0441
 Red. masses --      2.9894                 1.9404                 2.1842
 Frc consts  --      0.0241                 0.0305                 0.0413
 IR Inten    --      1.2965                 1.1945                 0.9488

                      7                      8                      9
                      A                      A                      A
 Frequencies --    217.1646               239.3410               286.3713
 Red. masses --      1.7911                 2.0039                 2.4063
 Frc consts  --      0.0498                 0.0676                 0.1163
 IR Inten    --      1.2236                 1.7910                14.7036

                     10                     11                     12
                      A                      A                      A
 Frequencies --    301.6924               350.9395               386.7610
 Red. masses --      2.5693                 3.3809                 2.3971
 Frc consts  --      0.1378                 0.2453                 0.2113
 IR Inten    --      4.1031                 1.2605                 7.7594

                     13                     14                     15
                      A                      A                      A
 Frequencies --    411.7194               443.1033               480.9228
 Red. masses --      1.7552                 3.3307                 2.6051
 Frc consts  --      0.1753                 0.3853                 0.3550
 IR Inten    --      9.1196                 5.3489                 2.5172

                     16                     17                     18
                      A                      A                      A
 Frequencies --    504.2232               550.7735               595.8411
 Red. masses --      1.9158                 2.7524                 1.9969
 Frc consts  --      0.2870                 0.4919                 0.4177
 IR Inten    --      1.2233                 8.7568                13.4171

                     19                     20                     21
                      A                      A                      A
 Frequencies --    722.9265               725.5545               789.5573
 Red. masses --      2.5713                 3.6386                 1.5650
 Frc consts  --      0.7918                 1.1286                 0.5748
 IR Inten    --     41.0036                 8.5543                86.9014

                     22                     23                     24
                      A                      A                      A
 Frequencies --    819.7487               847.4626               848.4048
 Red. masses --      2.0351                 1.6612                 1.2932
 Frc consts  --      0.8057                 0.7029                 0.5484
 IR Inten    --    151.9722                 0.8004                12.1867

                     25                     26                     27
                      A                      A                      A
 Frequencies --    856.8063               888.9846               916.9688
 Red. masses --      2.1327                 1.7672                 1.8336
 Frc consts  --      0.9225                 0.8229                 0.9084
 IR Inten    --      3.1825                47.3386                37.2862

                     28                     29                     30
                      A                      A                      A
 Frequencies --    935.0850               984.1885              1015.0196
 Red. masses --      2.2118                 2.9409                 1.8723
 Frc consts  --      1.1394                 1.6783                 1.1365
 IR Inten    --      1.4604                 4.4060                 8.5104

                     31                     32                     33
                      A                      A                      A
 Frequencies --   1037.8185              1042.1615              1045.2508
 Red. masses --      1.9078                 1.7849                 1.8171
 Frc consts  --      1.2107                 1.1422                 1.1697
 IR Inten    --     12.3983                 4.4966                13.1237

                     34                     35                     36
                      A                      A                      A
 Frequencies --   1061.7736              1134.6266              1151.9552
 Red. masses --      2.2442                 1.7798                 2.1206
 Frc consts  --      1.4906                 1.3500                 1.6580
 IR Inten    --     21.0890                 3.9211                59.3895

                     37                     38                     39
                      A                      A                      A
 Frequencies --   1156.5092              1166.9668              1191.6695
 Red. masses --      2.6161                 1.3881                 1.8564
 Frc consts  --      2.0616                 1.1137                 1.5532
 IR Inten    --     71.3306                 3.5248                79.3462

                     40                     41                     42
                      A                      A                      A
 Frequencies --   1196.0649              1209.9410              1218.8368
 Red. masses --      1.6440                 2.7052                 1.2381
 Frc consts  --      1.3857                 2.3333                 1.0836
 IR Inten    --     38.6545                39.5595                 7.7020

                     43                     44                     45
                      A                      A                      A
 Frequencies --   1237.2236              1296.8718              1318.9492
 Red. masses --      1.5551                 1.4388                 1.4764
 Frc consts  --      1.4025                 1.4258                 1.5133
 IR Inten    --     21.1066                 8.9525                 8.9196

                     46                     47                     48
                      A                      A                      A
 Frequencies --   1331.8493              1361.1569              1367.0602
 Red. masses --      1.2883                 1.2677                 1.2750
 Frc consts  --      1.3465                 1.3839                 1.4039
 IR Inten    --     35.6156                 5.1567                 3.4501

                     49                     50                     51
                      A                      A                      A
 Frequencies --   1370.8128              1392.1476              1399.3680
 Red. masses --      1.2799                 1.3228                 1.2307
 Frc consts  --      1.4170                 1.5105                 1.4200
 IR Inten    --      1.0520                14.9445                29.1346

                     52                     53                     54
                      A                      A                      A
 Frequencies --   1420.3204              1421.7847              1460.5722
 Red. masses --      1.3493                 1.4483                 2.5234
 Frc consts  --      1.6037                 1.7250                 3.1716
 IR Inten    --      9.3659                13.4860                77.7726

                     55                     56                     57
                      A                      A                      A
 Frequencies --   1482.3264              1497.6248              1504.0203
 Red. masses --      1.1633                 1.0865                 1.1471
 Frc consts  --      1.5060                 1.4357                 1.5288
 IR Inten    --      1.5360                 1.1831                10.5759

                     58                     59                     60
                      A                      A                      A
 Frequencies --   1510.3728              1512.8450              1514.8387
 Red. masses --      1.1075                 1.0936                 1.1013
 Frc consts  --      1.4885                 1.4746                 1.4889
 IR Inten    --      8.3331                 7.7728                 1.4426

                     61                     62                     63
                      A                      A                      A
 Frequencies --   1517.4648              1524.5273              1533.2538
 Red. masses --      1.1178                 1.1025                 1.1467
 Frc consts  --      1.5165                 1.5097                 1.5883
 IR Inten    --     12.4569                 2.7856                 3.5782

                     64                     65                     66
                      A                      A                      A
 Frequencies --   1537.1167              1554.0750              1686.0652
 Red. masses --      1.0932                 1.0920                 7.8764
 Frc consts  --      1.5219                 1.5539                13.1924
 IR Inten    --     20.2267                20.6861               171.0240

                     67                     68                     69
                      A                      A                      A
 Frequencies --   2945.8960              2959.7398              2984.3534
 Red. masses --      1.0618                 1.0746                 1.0742
 Frc consts  --      5.4293                 5.5463                 5.6370
 IR Inten    --     86.3510                56.7213                59.5749

                     70                     71                     72
                      A                      A                      A
 Frequencies --   3041.3571              3042.4229              3047.5153
 Red. masses --      1.0627                 1.0598                 1.0638
 Frc consts  --      5.7916                 5.7799                 5.8213
 IR Inten    --     30.8257                36.0619                47.4983

                     73                     74                     75
                      A                      A                      A
 Frequencies --   3067.9554              3071.8369              3086.3909
 Red. masses --      1.0710                 1.0675                 1.1017
 Frc consts  --      5.9392                 5.9349                 6.1831
 IR Inten    --     58.0460                14.3370                34.4342

                     76                     77                     78
                      A                      A                      A
 Frequencies --   3097.1994              3100.4331              3113.7736
 Red. masses --      1.1022                 1.1025                 1.1007
 Frc consts  --      6.2295                 6.2441                 6.2876
 IR Inten    --     41.6850                43.1493                31.2555

                     79                     80                     81
                      A                      A                      A
 Frequencies --   3118.0535              3152.7254              3157.9959
 Red. masses --      1.1018                 1.0888                 1.0858
 Frc consts  --      6.3115                 6.3765                 6.3800
 IR Inten    --     26.0417                 5.5186                32.4663

                     82                     83                     84
                      A                      A                      A
 Frequencies --   3461.9805              3465.8774              3499.3064
 Red. masses --      1.0735                 1.0750                 1.0736
 Frc consts  --      7.5806                 7.6084                 7.7456
 IR Inten    --      2.5081                 3.5986                12.4442

 - Thermochemistry -
 -------------------
 Temperature   298.150 Kelvin.  Pressure   1.00000 Atm.
 Atom     1 has atomic number  6 and mass  12.00000

 Molecular mass:   170.15315 amu.
 Principal axes and moments of inertia in atomic units:
                           1         2         3
     Eigenvalues --  1469.559242477.656963359.58020
           X            0.99978   0.01999  -0.00666
           Y           -0.02010   0.99967  -0.01586
           Z            0.00634   0.01599   0.99985
 This molecule is an asymmetric top.
 Rotational symmetry number  1.
 Warning -- assumption of classical behavior for rotation
           may cause significant error
 Rotational temperatures (Kelvin)      0.05894     0.03496     0.02578
 Rotational constants (GHZ):           1.22808     0.72841     0.53719
 Zero-point vibrational energy     721028.8 (Joules/Mol)
                                  172.33001 (Kcal/Mol)
 Warning -- explicit consideration of  18 degrees of freedom as
           vibrations may cause significant error
 Vibrational temperatures:     69.17    87.19   112.19   168.45   234.85
          (Kelvin)            257.60   312.45   344.36   412.02   434.07
                              504.92   556.46   592.37   637.53   691.94
                              725.46   792.44   857.28  1040.13  1043.91
                             1136.00  1179.44  1219.31  1220.67  1232.75
                             1279.05  1319.31  1345.38  1416.03  1460.39
                             1493.19  1499.44  1503.88  1527.66  1632.47
                             1657.41  1663.96  1679.00  1714.55  1720.87
                             1740.84  1753.63  1780.09  1865.91  1897.67
                             1916.23  1958.40  1966.89  1972.29  2002.99
                             2013.38  2043.52  2045.63  2101.44  2132.74
                             2154.75  2163.95  2173.09  2176.65  2179.52
                             2183.29  2193.45  2206.01  2211.57  2235.97
                             2425.87  4238.49  4258.41  4293.82  4375.83
                             4377.37  4384.69  4414.10  4419.69  4440.63
                             4456.18  4460.83  4480.03  4486.18  4536.07
                             4543.65  4981.02  4986.62  5034.72

 Zero-point correction=                           0.274625 (Hartree/Particle)
 Thermal correction to Energy=                    0.286971
 Thermal correction to Enthalpy=                  0.287915
 Thermal correction to Gibbs Free Energy=         0.235872
 Sum of electronic and zero-point Energies=           -534.438375
 Sum of electronic and thermal Energies=              -534.426029
 Sum of electronic and thermal Enthalpies=            -534.425085
 Sum of electronic and thermal Free Energies=         -534.477128

                     E (Thermal)             CV                S
                      KCal/Mol        Cal/Mol-Kelvin    Cal/Mol-Kelvin
 Total                  180.077             47.257            109.534
 Electronic               0.000              0.000              0.000
 Translational            0.889              2.981             41.302
 Rotational               0.889              2.981             30.882
 Vibrational            178.299             41.296             37.350
 Vibration     1          0.595              1.978              4.895
 Vibration     2          0.597              1.973              4.438
 Vibration     3          0.599              1.964              3.941
 Vibration     4          0.608              1.935              3.148
 Vibration     5          0.623              1.888              2.512
 Vibration     6          0.629              1.868              2.338
 Vibration     7          0.646              1.815              1.983
 Vibration     8          0.657              1.780              1.808
 Vibration     9          0.684              1.699              1.495
 Vibration    10          0.694              1.670              1.407
 Vibration    11          0.728              1.573              1.162
 Vibration    12          0.755              1.498              1.013
 Vibration    13          0.776              1.445              0.921
 Vibration    14          0.803              1.376              0.817
 Vibration    15          0.837              1.292              0.708
 Vibration    16          0.860              1.241              0.648
 Vibration    17          0.906              1.138              0.543
 Vibration    18          0.954              1.041              0.457

 Optimization completed.
    -- Stationary point found.

 1\1\GINC-NODE366\Freq\RB3LYP\6-31G(d)\C8H18N4\VSC10255\09-Dec-2020\0\\
 #N Geom=AllCheck Guess=TCheck SCRF=Check GenChk RB3LYP/6-31G(d) Freq\\
 CID_154554741_JID_2692_neutraal\\0,1\C,1.1352129213,0.25379446,0.00006
 76269\N,0.8757973919,0.7351122665,-1.3481924686\C,-0.5062038611,1.1076
 573213,-1.6070482997\C,-1.0036071066,2.4349166075,-0.9662683502\C,-0.3
 399228826,3.6313513043,-1.6260835084\N,-0.8590817096,4.2921914359,-2.5
 986296388\N,0.9854303007,3.8995557107,-1.2624654805\C,1.3787670427,3.9
 081103405,0.1504290738\C,2.8997167811,3.7635598397,0.2788792949\N,3.65

 Normal termination of Gaussian 16 at Wed Dec  9 18:00:49 2020.

 ----------------------------------------------------------------------
 # B3LYP/6-311++G(d,p) empiricaldispersion=gd3bj scf=xqc pop=npa geom=c
 heck
 ----------------------------------------------------------------------

 ---------------------------------------
 CID_154554741_JID_2692_Energie_neutraal
 ---------------------------------------
 Structure from the checkpoint file:  "JID_2692.chk"
 Charge =  0 Multiplicity = 1

 SCF Done:  E(RB3LYP) =  -534.872680667     A.U. after   13 cycles
 Normal termination of Gaussian 16 at Wed Dec  9 18:03:46 2020.

 ----------------------------------------------------------------------
 # B3LYP/6-311++G(d,p) empiricaldispersion=gd3bj scf=xqc pop=npa geom=c
 heck
 ----------------------------------------------------------------------

 -------------------------------------
 CID_154554741_JID_2692_Energie_kation
 -------------------------------------
 Structure from the checkpoint file:  "JID_2692.chk"
 Charge =  1 Multiplicity = 2

 SCF Done:  E(UB3LYP) =  -534.589861350     A.U. after   21 cycles
 Normal termination of Gaussian 16 at Wed Dec  9 18:10:37 2020.
 Gaussian 16:  ES64L-G16RevA.03 25-Dec-2016

 ------------------------------------
 CID_154554741_JID_2692_Energie_anion
 ------------------------------------
 Structure from the checkpoint file:  "JID_2692.chk"
 Charge = -1 Multiplicity = 2

                         Standard orientation:
 ---------------------------------------------------------------------
 Center     Atomic      Atomic             Coordinates (Angstroms)
 Number     Number       Type             X           Y           Z
 ---------------------------------------------------------------------
      1          6           0       -2.137466   -2.243778   -0.123087
      2          7           0       -1.980961   -1.071337   -0.970233
      3          6           0       -2.617562    0.135022   -0.465097
      4          6           0       -1.930454    0.834072    0.742726
      5          6           0       -0.610509    1.457322    0.322495
      6          7           0       -0.480391    2.684293   -0.037633
      7          7           0        0.473377    0.587530    0.151131
      8          6           0        0.775156   -0.428739    1.164632
      9          6           0        1.671384   -1.521478    0.570175
     10          7           0        2.892028   -1.012884   -0.052194
     11          6           0        2.570969    0.054093   -1.004305
     12          6           0        1.690913    1.166487   -0.427549
     13          1           0       -3.196986   -2.523883   -0.084204
     14          1           0       -1.790666   -2.130321    0.921508
     15          1           0       -1.588426   -3.082119   -0.564072
     16          1           0       -0.994095   -0.880138   -1.133165
     17          1           0       -2.678649    0.863079   -1.283551
     18          1           0       -3.647301   -0.118987   -0.184192
     19          1           0       -2.580636    1.638270    1.103819
     20          1           0       -1.826394    0.127362    1.570843
     21          1           0       -1.379552    3.163341    0.040158
     22          1           0        1.289017    0.036787    2.025433
     23          1           0       -0.146270   -0.876227    1.536325
     24          1           0        1.104565   -2.065422   -0.197504
     25          1           0        1.940525   -2.241196    1.351291
     26          1           0        3.497355   -0.632101    0.675909
     27          1           0        2.050990   -0.406154   -1.854923
     28          1           0        3.505540    0.481507   -1.383722
     29          1           0        1.393360    1.879859   -1.196662
     30          1           0        2.244674    1.735122    0.339287
 ---------------------------------------------------------------------

 SCF Done:  E(UB3LYP) =  -534.859427800     A.U. after   29 cycles

 The electronic state is 2-A.
 Alpha  occ. eigenvalues --  -14.23279 -14.20268 -14.19705 -14.17582 -10.14084
 Alpha  occ. eigenvalues --  -10.10099 -10.09891 -10.09848 -10.09556 -10.09456
 Alpha  occ. eigenvalues --  -10.08592 -10.07625  -0.87055  -0.81597  -0.80442
 Alpha  occ. eigenvalues --   -0.76496  -0.67230  -0.65632  -0.60033  -0.57822
 Alpha  occ. eigenvalues --   -0.54771  -0.51972  -0.49662  -0.46171  -0.40248
 Alpha  occ. eigenvalues --   -0.39483  -0.38421  -0.37576  -0.36332  -0.35884
 Alpha  occ. eigenvalues --   -0.34847  -0.33460  -0.32927  -0.31351  -0.30366
 Alpha  occ. eigenvalues --   -0.29518  -0.28261  -0.26642  -0.26295  -0.25656
 Alpha  occ. eigenvalues --   -0.25568  -0.24949  -0.22040  -0.16394  -0.14776
 Alpha  occ. eigenvalues --   -0.13085  -0.11882   0.04431
 Alpha virt. eigenvalues --    0.06385   0.07265   0.07834   0.08753   0.09208
 Alpha virt. eigenvalues --    0.09627   0.10185   0.10618   0.11312   0.11918
 Alpha virt. eigenvalues --    0.12022   0.12409   0.13177   0.13764   0.13969

  Beta  occ. eigenvalues --  -14.23273 -14.20249 -14.19703 -14.17570 -10.14082
  Beta  occ. eigenvalues --  -10.10069 -10.09883 -10.09832 -10.09534 -10.09446
  Beta  occ. eigenvalues --  -10.08554 -10.07594  -0.87036  -0.81563  -0.80426
  Beta  occ. eigenvalues --   -0.76469  -0.67196  -0.65590  -0.59994  -0.57759
  Beta  occ. eigenvalues --   -0.54721  -0.51920  -0.49605  -0.46115  -0.40208
  Beta  occ. eigenvalues --   -0.39443  -0.38393  -0.37526  -0.36301  -0.35840
  Beta  occ. eigenvalues --   -0.34809  -0.33434  -0.32890  -0.31310  -0.30323
  Beta  occ. eigenvalues --   -0.29471  -0.28222  -0.26610  -0.26256  -0.25623
  Beta  occ. eigenvalues --   -0.25533  -0.24914  -0.22010  -0.16378  -0.14744
  Beta  occ. eigenvalues --   -0.13061  -0.11854
  Beta virt. eigenvalues --    0.06826   0.07344   0.08069   0.08299   0.09244
  Beta virt. eigenvalues --    0.09842   0.09916   0.10580   0.11027   0.11465
  Beta virt. eigenvalues --    0.12313   0.12496   0.12931   0.13471   0.13983

 Mulliken charges and spin densities:
               1          2
     1  C    0.718516  -1.130739
     2  N   -0.202232   0.050267
     3  C    0.035731  -0.420267
     4  C    0.007509  -0.141264
     5  C   -0.048918  -0.252735
     6  N   -0.424411   0.079142
     7  N    0.161035   0.014950
     8  C   -0.392145   0.227952
     9  C    1.316181  -1.961229
    10  N   -0.268820   0.225586
    11  C    0.271821  -0.806715
    12  C   -0.224847   0.109626
    13  H   -0.312776   0.457510
    14  H   -0.334074   0.448946
    15  H   -0.086352   0.227957
    16  H    0.269952  -0.015748
    17  H   -0.017612   0.187506
    18  H   -0.205722   0.360760
    19  H   -0.601232   0.778080
    20  H   -0.565200   0.738172
    21  H    0.028605   0.187526
    22  H   -0.496019   0.715118
    23  H    0.633140  -0.601967
    24  H    0.372400  -0.186028
    25  H   -0.772756   0.967397
    26  H   -0.035839   0.266048
    27  H    0.092287   0.046518
    28  H    0.016368   0.165461
    29  H    0.127164   0.049104
    30  H   -0.061754   0.213066
 Sum of Mulliken charges =  -1.00000   1.00000

 Dipole moment (field-independent basis, Debye):
    X=              1.3150    Y=              1.4758    Z=             -4.3962  Tot=              4.8202
 Quadrupole moment (field-independent basis, Debye-Ang):
   XX=           -139.7019   YY=           -126.0120   ZZ=           -114.1727
   XY=              2.6710   XZ=             -1.7893   YZ=              3.4150

 Summary of Natural Population Analysis:

                                       Natural Population
                Natural  -----------------------------------------------
    Atom  No    Charge         Core      Valence    Rydberg      Total
 -----------------------------------------------------------------------
      C    1   -0.17982      0.99966     2.17139    0.00877     3.17982
      N    2   -0.34330      0.99975     2.83248    0.01106     3.84330
      C    3   -0.08115      0.99962     2.06866    0.01287     3.08115
      C    4   -0.23217      0.99957     2.22277    0.00982     3.23217
      C    5    0.24011      0.99961     1.74228    0.01800     2.75989
      N    6   -0.36549      0.99971     2.85823    0.00756     3.86549
      N    7   -0.27507      0.99964     2.76298    0.01245     3.77507
      C    8   -0.09468      0.99959     2.08243    0.01266     3.09468
      C    9   -0.09283      0.99962     2.08023    0.01298     3.09283
      N   10   -0.33496      0.99976     2.82220    0.01300     3.83496
      C   11   -0.09296      0.99962     2.08175    0.01159     3.09296
      C   12   -0.09640      0.99961     2.08576    0.01103     3.09640
      H   13    0.09184      0.00000     0.40688    0.00128     0.40816
      H   14    0.07944      0.00000     0.41862    0.00195     0.42056
      H   15    0.09401      0.00000     0.40495    0.00104     0.40599
      H   16    0.17665      0.00000     0.31938    0.00397     0.32335
      H   17    0.09213      0.00000     0.40660    0.00127     0.40787
      H   18    0.09480      0.00000     0.40395    0.00125     0.40520
      H   19    0.10660      0.00000     0.39154    0.00186     0.39340
      H   20    0.10784      0.00000     0.39009    0.00206     0.39216
      H   21    0.16441      0.00000     0.33358    0.00201     0.33559
      H   22    0.08742      0.00000     0.41014    0.00244     0.41258
      H   23    0.10493      0.00000     0.39269    0.00238     0.39507
      H   24    0.08840      0.00000     0.40977    0.00183     0.41160
      H   25    0.10147      0.00000     0.39675    0.00179     0.39853
      H   26    0.17133      0.00000     0.32560    0.00308     0.32867
      H   27    0.08925      0.00000     0.40937    0.00139     0.41075
      H   28    0.09534      0.00000     0.40387    0.00079     0.40466
      H   29    0.11379      0.00000     0.38507    0.00114     0.38621
      H   30    0.08906      0.00000     0.40949    0.00145     0.41094
 =======================================================================
   * Total *    0.00000     11.99576    34.82948    0.17476    47.00000

 Normal termination of Gaussian 16 at Wed Dec  9 18:18:57 2020.
