 Gaussian 16, Revision A.03,

 -----------------------------------------------------------
 # opt freq B3LYP/6-31G(d) empiricaldispersion=gd3bj scf=xqc
 -----------------------------------------------------------

 ------------------------------
 CID_13167456_JID_2245_neutraal
 ------------------------------
 Symbolic Z-matrix:
 Charge =  0 Multiplicity = 1

 SCF Done:  E(RB3LYP) =  -861.705487873     A.U. after   16 cycles
 SCF Done:  E(RB3LYP) =  -861.713988504     A.U. after   14 cycles
 SCF Done:  E(RB3LYP) =  -861.716157083     A.U. after   16 cycles
 SCF Done:  E(RB3LYP) =  -861.718674278     A.U. after   15 cycles
 SCF Done:  E(RB3LYP) =  -861.719354639     A.U. after   13 cycles
 SCF Done:  E(RB3LYP) =  -861.721371588     A.U. after   13 cycles
 SCF Done:  E(RB3LYP) =  -861.722180742     A.U. after   13 cycles
 SCF Done:  E(RB3LYP) =  -861.722584945     A.U. after   13 cycles
 SCF Done:  E(RB3LYP) =  -861.722702123     A.U. after   12 cycles
 SCF Done:  E(RB3LYP) =  -861.722728301     A.U. after   10 cycles
 SCF Done:  E(RB3LYP) =  -861.723321327     A.U. after   10 cycles
 SCF Done:  E(RB3LYP) =  -861.723324972     A.U. after   10 cycles
 SCF Done:  E(RB3LYP) =  -861.723326697     A.U. after    9 cycles
 SCF Done:  E(RB3LYP) =  -861.723328897     A.U. after    9 cycles
 SCF Done:  E(RB3LYP) =  -861.723328998     A.U. after    7 cycles
 SCF Done:  E(RB3LYP) =  -861.723329015     A.U. after    6 cycles
 Optimization completed.
    -- Stationary point found.
 Normal termination of Gaussian 16 at Wed Dec  9 17:12:34 2020.

 --------------------------------------------------------------------
 #N Geom=AllCheck Guess=TCheck SCRF=Check GenChk RB3LYP/6-31G(d) Freq
 --------------------------------------------------------------------

 Structure from the checkpoint file:  "JID_2245.chk"
 ------------------------------
 CID_13167456_JID_2245_neutraal
 ------------------------------
 Charge =  0 Multiplicity = 1

 SCF Done:  E(RB3LYP) =  -861.723329015     A.U. after    1 cycles

  Exact polarizability: 221.489   1.816 134.287  -0.002  -0.000  62.259
 Approx polarizability: 371.976 -15.419 234.528  -0.005  -0.001  97.697

                      1                      2                      3
                      A                      A                      A
 Frequencies --     58.0052                69.7076                78.5981
 Red. masses --      2.2629                 1.2273                 3.4870
 Frc consts  --      0.0045                 0.0035                 0.0127
 IR Inten    --      0.6880                 0.0065                 2.1410

                      4                      5                      6
                      A                      A                      A
 Frequencies --    104.5786               151.7368               168.6127
 Red. masses --      1.1903                 3.3610                 4.6066
 Frc consts  --      0.0077                 0.0456                 0.0772
 IR Inten    --      0.5406                 1.6148                 3.3877

                      7                      8                      9
                      A                      A                      A
 Frequencies --    201.3429               228.6628               237.9662
 Red. masses --      1.4683                 1.4860                 3.4225
 Frc consts  --      0.0351                 0.0458                 0.1142
 IR Inten    --      0.5387                 3.5448                 0.0274

                     10                     11                     12
                      A                      A                      A
 Frequencies --    257.8934               299.3615               300.8557
 Red. masses --      6.3728                 3.2926                 2.7756
 Frc consts  --      0.2497                 0.1739                 0.1480
 IR Inten    --      1.9165                 5.6302                 1.1412

                     13                     14                     15
                      A                      A                      A
 Frequencies --    325.6720               402.6748               433.9324
 Red. masses --      3.7760                 4.7314                 3.4351
 Frc consts  --      0.2360                 0.4520                 0.3811
 IR Inten    --      0.7497                 0.7731                 0.3592

                     16                     17                     18
                      A                      A                      A
 Frequencies --    451.7052               460.4271               562.6674
 Red. masses --      3.7639                 6.2976                 3.2627
 Frc consts  --      0.4525                 0.7866                 0.6086
 IR Inten    --      0.5495                 0.7353                 0.1710

                     19                     20                     21
                      A                      A                      A
 Frequencies --    597.7080               641.5961               643.1628
 Red. masses --      6.7461                 5.7521                 4.7369
 Frc consts  --      1.4200                 1.3951                 1.1545
 IR Inten    --     54.1892                 6.1196                 5.6713

                     22                     23                     24
                      A                      A                      A
 Frequencies --    660.6874               742.7602               847.9130
 Red. masses --      4.5139                 5.1007                 1.3982
 Frc consts  --      1.1609                 1.6580                 0.5923
 IR Inten    --      0.1402                 0.9664                18.8631

                     25                     26                     27
                      A                      A                      A
 Frequencies --    901.7877               983.1379               993.2961
 Red. masses --      2.5918                 2.3722                 1.5980
 Frc consts  --      1.2418                 1.3509                 0.9289
 IR Inten    --      1.2722                62.2632                 1.9791

                     28                     29                     30
                      A                      A                      A
 Frequencies --   1014.1810              1027.8150              1039.5124
 Red. masses --      1.5678                 1.2543                 1.3716
 Frc consts  --      0.9501                 0.7807                 0.8733
 IR Inten    --     13.7480                 2.0727                 1.9302

                     31                     32                     33
                      A                      A                      A
 Frequencies --   1057.9270              1072.8597              1074.3314
 Red. masses --      1.9842                 1.4892                 1.5018
 Frc consts  --      1.3084                 1.0099                 1.0213
 IR Inten    --     10.6104                 0.1825                 0.4906

                     34                     35                     36
                      A                      A                      A
 Frequencies --   1129.3644              1134.7918              1185.6166
 Red. masses --      2.2132                 3.3746                 4.5522
 Frc consts  --      1.6632                 2.5603                 3.7702
 IR Inten    --      0.7616                 0.9977                 6.6038

                     37                     38                     39
                      A                      A                      A
 Frequencies --   1247.4022              1283.6604              1317.2290
 Red. masses --      1.6459                 2.2270                 2.4531
 Frc consts  --      1.5089                 2.1621                 2.5077
 IR Inten    --     64.9434                42.8392                10.8720

                     40                     41                     42
                      A                      A                      A
 Frequencies --   1436.5167              1443.8779              1446.0139
 Red. masses --      1.2682                 1.4176                 1.3252
 Frc consts  --      1.5419                 1.7412                 1.6326
 IR Inten    --      8.1075                34.4471                40.5637

                     43                     44                     45
                      A                      A                      A
 Frequencies --   1457.1330              1471.8173              1504.0419
 Red. masses --      1.5815                 1.2779                 1.0437
 Frc consts  --      1.9784                 1.6310                 1.3911
 IR Inten    --    109.9804                10.0774                 1.2826

                     46                     47                     48
                      A                      A                      A
 Frequencies --   1511.5698              1516.0111              1519.2684
 Red. masses --      1.0426                 1.0866                 1.1580
 Frc consts  --      1.4035                 1.4714                 1.5748
 IR Inten    --      8.4377                37.0183                26.0387

                     49                     50                     51
                      A                      A                      A
 Frequencies --   1521.6120              1525.3236              1549.4006
 Red. masses --      1.0436                 1.1171                 3.0973
 Frc consts  --      1.4237                 1.5313                 4.3809
 IR Inten    --     14.9371                 3.0598               643.3098

                     52                     53                     54
                      A                      A                      A
 Frequencies --   1593.9301              1679.1314              1739.6392
 Red. masses --      6.2471                 6.2260                 8.7412
 Frc consts  --      9.3512                10.3427                15.5862
 IR Inten    --      1.6903                32.8175               216.2815

                     55                     56                     57
                      A                      A                      A
 Frequencies --   2893.9135              3012.8633              3042.4517
 Red. masses --      1.0819                 1.0406                 1.0380
 Frc consts  --      5.3382                 5.5652                 5.6612
 IR Inten    --    236.8103                29.4704                46.0236

                     58                     59                     60
                      A                      A                      A
 Frequencies --   3045.4555              3052.0040              3091.1097
 Red. masses --      1.0377                 1.1002                 1.1010
 Frc consts  --      5.6705                 6.0382                 6.1984
 IR Inten    --      9.7878                22.1546                26.2978

                     61                     62                     63
                      A                      A                      A
 Frequencies --   3100.4920              3117.1466              3134.0905
 Red. masses --      1.1014                 1.0959                 1.0999
 Frc consts  --      6.2380                 6.2736                 6.3653
 IR Inten    --      3.0945                21.8944                16.2549

                     64                     65                     66
                      A                      A                      A
 Frequencies --   3135.7218              3183.1301              3234.1250
 Red. masses --      1.1004                 1.0888                 1.0915
 Frc consts  --      6.3752                 6.5000                 6.7262
 IR Inten    --      4.9592                17.6669                18.5612

 - Thermochemistry -
 -------------------
 Temperature   298.150 Kelvin.  Pressure   1.00000 Atm.
 Atom     1 has atomic number  6 and mass  12.00000

 Molecular mass:   180.06089 amu.
 Principal axes and moments of inertia in atomic units:
                           1         2         3
     Eigenvalues --  1157.142393338.947144462.46484
           X            0.99955   0.02991   0.00000
           Y           -0.02991   0.99955  -0.00000
           Z           -0.00000   0.00000   1.00000
 This molecule is an asymmetric top.
 Rotational symmetry number  1.
 Warning -- assumption of classical behavior for rotation
           may cause significant error
 Rotational temperatures (Kelvin)      0.07485     0.02594     0.01941
 Rotational constants (GHZ):           1.55965     0.54051     0.40443
 Zero-point vibrational energy     510500.0 (Joules/Mol)
                                  122.01242 (Kcal/Mol)
 Warning -- explicit consideration of  19 degrees of freedom as
           vibrations may cause significant error
 Vibrational temperatures:     83.46   100.29   113.09   150.47   218.32
          (Kelvin)            242.60   289.69   328.99   342.38   371.05
                              430.71   432.86   468.57   579.36   624.33
                              649.90   662.45   809.55   859.97   923.11
                              925.37   950.58  1068.67  1219.96  1297.47
                             1414.52  1429.13  1459.18  1478.80  1495.63
                             1522.12  1543.61  1545.72  1624.90  1632.71
                             1705.84  1794.73  1846.90  1895.20  2066.83
                             2077.42  2080.49  2096.49  2117.62  2163.98
                             2174.81  2181.20  2185.89  2189.26  2194.60
                             2229.24  2293.31  2415.90  2502.95  4163.70
                             4334.84  4377.41  4381.73  4391.15  4447.42
                             4460.92  4484.88  4509.26  4511.60  4579.81
                             4653.18

 Zero-point correction=                           0.194439 (Hartree/Particle)
 Thermal correction to Energy=                    0.207417
 Thermal correction to Enthalpy=                  0.208362
 Thermal correction to Gibbs Free Energy=         0.154920
 Sum of electronic and zero-point Energies=           -861.528890
 Sum of electronic and thermal Energies=              -861.515912
 Sum of electronic and thermal Enthalpies=            -861.514967
 Sum of electronic and thermal Free Energies=         -861.568409

                     E (Thermal)             CV                S
                      KCal/Mol        Cal/Mol-Kelvin    Cal/Mol-Kelvin
 Total                  130.156             47.057            112.477
 Electronic               0.000              0.000              0.000
 Translational            0.889              2.981             41.471
 Rotational               0.889              2.981             31.223
 Vibrational            128.379             41.095             39.783
 Vibration     1          0.596              1.974              4.524
 Vibration     2          0.598              1.969              4.162
 Vibration     3          0.600              1.964              3.926
 Vibration     4          0.605              1.946              3.367
 Vibration     5          0.619              1.901              2.650
 Vibration     6          0.625              1.881              2.451
 Vibration     7          0.638              1.838              2.121
 Vibration     8          0.651              1.797              1.889
 Vibration     9          0.656              1.783              1.818
 Vibration    10          0.667              1.749              1.676
 Vibration    11          0.692              1.675              1.420
 Vibration    12          0.693              1.672              1.412
 Vibration    13          0.710              1.624              1.281
 Vibration    14          0.768              1.464              0.953
 Vibration    15          0.795              1.396              0.846
 Vibration    16          0.810              1.357              0.791
 Vibration    17          0.818              1.338              0.765
 Vibration    18          0.918              1.112              0.519
 Vibration    19          0.956              1.037              0.454

 Optimization completed.
    -- Stationary point found.
 Normal termination of Gaussian 16 at Wed Dec  9 17:17:58 2020.

 ----------------------------------------------------------------------
 # B3LYP/6-311++G(d,p) empiricaldispersion=gd3bj scf=xqc pop=npa geom=c
 heck
 ----------------------------------------------------------------------

 --------------------------------------
 CID_13167456_JID_2245_Energie_neutraal
 --------------------------------------
 Structure from the checkpoint file:  "JID_2245.chk"
 Charge =  0 Multiplicity = 1

 SCF Done:  E(RB3LYP) =  -861.875506745     A.U. after   18 cycles
 Normal termination of Gaussian 16 at Wed Dec  9 17:21:05 2020.

 ----------------------------------------------------------------------
 # B3LYP/6-311++G(d,p) empiricaldispersion=gd3bj scf=xqc pop=npa geom=c
 heck
 ----------------------------------------------------------------------

 ------------------------------------
 CID_13167456_JID_2245_Energie_kation
 ------------------------------------
 Structure from the checkpoint file:  "JID_2245.chk"
 Charge =  1 Multiplicity = 2

 SCF Done:  E(UB3LYP) =  -861.611613940     A.U. after   22 cycles
 Normal termination of Gaussian 16 at Wed Dec  9 17:26:41 2020.
 Gaussian 16:  ES64L-G16RevA.03 25-Dec-2016

 ----------------------------------------------------------------------
 # B3LYP/6-311++G(d,p) empiricaldispersion=gd3bj scf=xqc pop=npa geom=c
 heck
 ----------------------------------------------------------------------

 -----------------------------------
 CID_13167456_JID_2245_Energie_anion
 -----------------------------------
 Structure from the checkpoint file:  "JID_2245.chk"
 Charge = -1 Multiplicity = 2

                         Standard orientation:
 ---------------------------------------------------------------------
 Center     Atomic      Atomic             Coordinates (Angstroms)
 Number     Number       Type             X           Y           Z
 ---------------------------------------------------------------------
      1          6           0        3.437108    1.411544    0.000120
      2          6           0        2.045672    0.818338   -0.000069
      3          6           0        1.884375   -0.534055   -0.000032
      4         16           0        0.321546   -1.323147   -0.000057
      5          6           0       -0.877925   -0.015360   -0.000028
      6          6           0       -2.207182   -0.397823    0.000027
      7          6           0       -2.580578   -1.857302    0.000034
      8          6           0       -3.300838    0.565697    0.000086
      9          8           0       -3.242284    1.793278   -0.000010
     10          6           0       -0.398199    1.338249   -0.000051
     11          6           0        0.912591    1.704041   -0.000073
     12          6           0        3.038619   -1.502949    0.000036
     13          1           0        3.393950    2.504104   -0.000231
     14          1           0        4.011515    1.100672   -0.881329
     15          1           0        4.011101    1.101260    0.882057
     16          1           0       -3.668120   -1.980219    0.000041
     17          1           0       -2.188134   -2.385027   -0.881655
     18          1           0       -2.188132   -2.385020    0.881729
     19          1           0       -4.300307    0.075525    0.000219
     20          1           0       -1.175121    2.093306   -0.000103
     21          1           0        1.132091    2.768962   -0.000135
     22          1           0        3.671049   -1.354537   -0.883715
     23          1           0        3.671117   -1.354327    0.883687
     24          1           0        2.700663   -2.542847    0.000137
 ---------------------------------------------------------------------

 SCF Done:  E(UB3LYP) =  -861.898563188     A.U. after   23 cycles

 The electronic state is 2-A.
 Alpha  occ. eigenvalues --  -88.71490 -18.92018 -10.06389 -10.06128 -10.05734
 Alpha  occ. eigenvalues --  -10.05587 -10.04846 -10.04341 -10.02858 -10.01302
 Alpha  occ. eigenvalues --  -10.00847 -10.00442  -7.80198  -5.76530  -5.76110
 Alpha  occ. eigenvalues --   -5.75789  -0.85187  -0.72461  -0.67074  -0.63910
 Alpha  occ. eigenvalues --   -0.61530  -0.57895  -0.55257  -0.50844  -0.46740
 Alpha  occ. eigenvalues --   -0.44773  -0.38654  -0.35120  -0.32659  -0.32483
 Alpha  occ. eigenvalues --   -0.31304  -0.29220  -0.29148  -0.28796  -0.28172
 Alpha  occ. eigenvalues --   -0.27610  -0.26120  -0.25198  -0.22909  -0.22269
 Alpha  occ. eigenvalues --   -0.22076  -0.20759  -0.20530  -0.17530  -0.13829
 Alpha  occ. eigenvalues --   -0.13485  -0.07655  -0.04591   0.03577
 Alpha virt. eigenvalues --    0.07496   0.09257   0.09893   0.11068   0.11273
 Alpha virt. eigenvalues --    0.11465   0.12096   0.12877   0.13251   0.13663
 Alpha virt. eigenvalues --    0.14156   0.14929   0.15518   0.16688   0.17114

  Beta  occ. eigenvalues --  -88.71411 -18.91755 -10.06221 -10.06159 -10.05725
  Beta  occ. eigenvalues --  -10.05135 -10.04552 -10.04527 -10.02861 -10.00909
  Beta  occ. eigenvalues --  -10.00836 -10.00423  -7.80128  -5.76498  -5.76079
  Beta  occ. eigenvalues --   -5.75523  -0.84694  -0.72013  -0.66779  -0.63529
  Beta  occ. eigenvalues --   -0.61358  -0.57659  -0.54961  -0.50570  -0.46093
  Beta  occ. eigenvalues --   -0.44399  -0.38341  -0.34948  -0.32551  -0.32216
  Beta  occ. eigenvalues --   -0.30965  -0.29144  -0.29076  -0.28609  -0.27914
  Beta  occ. eigenvalues --   -0.27497  -0.25962  -0.25050  -0.22702  -0.21874
  Beta  occ. eigenvalues --   -0.21110  -0.20389  -0.19391  -0.17217  -0.12501
  Beta  occ. eigenvalues --   -0.11832  -0.07422  -0.03263
  Beta virt. eigenvalues --    0.07459   0.09220   0.09503   0.09878   0.11156
  Beta virt. eigenvalues --    0.11236   0.12070   0.12471   0.12823   0.13334
  Beta virt. eigenvalues --    0.13634   0.14218   0.14885   0.15497   0.16671

 Mulliken charges and spin densities:
               1          2
     1  C   -0.730032   0.032348
     2  C    0.700606  -0.066018
     3  C   -0.305873   0.185260
     4  S   -1.286251   0.131385
     5  C    0.381124   0.180255
     6  C    0.206894   0.017034
     7  C   -0.454487   0.003409
     8  C   -0.477701   0.135511
     9  O   -0.393501   0.095014
    10  C    0.091320  -0.029753
    11  C    0.126319   0.352840
    12  C   -0.345180  -0.017959
    13  H    0.146825  -0.001207
    14  H    0.120404  -0.006744
    15  H    0.120433  -0.006745
    16  H    0.125749  -0.001090
    17  H    0.125886   0.000157
    18  H    0.125887   0.000158
    19  H    0.005988  -0.011472
    20  H    0.227062  -0.001429
    21  H    0.090738  -0.027907
    22  H    0.128610   0.018385
    23  H    0.128624   0.018369
    24  H    0.140557   0.000197
 Sum of Mulliken charges =  -1.00000   1.00000

 Dipole moment (field-independent basis, Debye):
    X=              6.2163    Y=             -3.0823    Z=              0.0002  Tot=              6.9385
 Quadrupole moment (field-independent basis, Debye-Ang):
   XX=           -115.5345   YY=            -99.7195   ZZ=            -89.1582
   XY=             11.1312   XZ=              0.0003   YZ=              0.0001

 Summary of Natural Population Analysis:

                                       Natural Population
                Natural  -----------------------------------------------
    Atom  No    Charge         Core      Valence    Rydberg      Total
 -----------------------------------------------------------------------
      C    1   -0.28512      0.99965     2.28076    0.00471     3.28512
      C    2   -0.09552      0.99942     2.08709    0.00901     3.09552
      C    3    0.00699      0.99941     1.98376    0.00984     2.99301
      S    4    0.20486      4.99942     2.77525    0.02048     7.79514
      C    5   -0.00339      0.99939     1.99365    0.01035     3.00339
      C    6   -0.12229      0.99946     2.11312    0.00972     3.12229
      C    7   -0.29273      0.99965     2.28853    0.00454     3.29273
      C    8    0.21166      0.99965     1.76756    0.02113     2.78834
      O    9   -0.30128      0.99988     3.29244    0.00895     4.30128
      C   10   -0.12401      0.99951     2.11444    0.01006     3.12401
      C   11   -0.00548      0.99952     1.99620    0.00976     3.00548
      C   12   -0.30272      0.99964     2.29740    0.00569     3.30272
      H   13    0.09846      0.00000     0.40059    0.00095     0.40154
      H   14    0.09344      0.00000     0.40533    0.00123     0.40656
      H   15    0.09344      0.00000     0.40533    0.00123     0.40656
      H   16    0.09473      0.00000     0.40386    0.00140     0.40527
      H   17    0.09379      0.00000     0.40432    0.00189     0.40621
      H   18    0.09379      0.00000     0.40432    0.00189     0.40621
      H   19    0.02815      0.00000     0.46866    0.00319     0.47185
      H   20    0.12463      0.00000     0.37378    0.00159     0.37537
      H   21    0.08275      0.00000     0.41579    0.00146     0.41725
      H   22    0.10183      0.00000     0.39704    0.00112     0.39817
      H   23    0.10183      0.00000     0.39704    0.00112     0.39817
      H   24    0.10218      0.00000     0.39692    0.00090     0.39782
 =======================================================================
   * Total *   -0.00000     15.99460    31.86318    0.14221    48.00000

 Normal termination of Gaussian 16 at Wed Dec  9 17:32:21 2020.
