 Gaussian 16, Revision A.03,

 -----------------------------------------------------------
 # opt freq B3LYP/6-31G(d) empiricaldispersion=gd3bj scf=xqc
 -----------------------------------------------------------

 -------------------------------
 CID_80159392_JID_10812_neutraal
 -------------------------------
 Symbolic Z-matrix:
 Charge =  0 Multiplicity = 1

 SCF Done:  E(RB3LYP) =  -900.213906885     A.U. after   14 cycles
 SCF Done:  E(RB3LYP) =  -900.219655794     A.U. after   12 cycles
 SCF Done:  E(RB3LYP) =  -900.219111935     A.U. after   12 cycles
 SCF Done:  E(RB3LYP) =  -900.220511382     A.U. after   11 cycles
 SCF Done:  E(RB3LYP) =  -900.220756782     A.U. after   11 cycles
 SCF Done:  E(RB3LYP) =  -900.221000179     A.U. after   11 cycles
 SCF Done:  E(RB3LYP) =  -900.221047615     A.U. after   10 cycles
 SCF Done:  E(RB3LYP) =  -900.221039641     A.U. after   10 cycles
 SCF Done:  E(RB3LYP) =  -900.221055582     A.U. after   10 cycles
 SCF Done:  E(RB3LYP) =  -900.221066095     A.U. after   10 cycles
 SCF Done:  E(RB3LYP) =  -900.221067639     A.U. after    9 cycles
 SCF Done:  E(RB3LYP) =  -900.221068402     A.U. after   10 cycles
 SCF Done:  E(RB3LYP) =  -900.221068757     A.U. after    8 cycles
 SCF Done:  E(RB3LYP) =  -900.221068931     A.U. after    8 cycles
 SCF Done:  E(RB3LYP) =  -900.221068969     A.U. after    7 cycles
 Optimization completed.
    -- Stationary point found.
 Normal termination of Gaussian 16 at Mon Dec 14 13:58:10 2020.

 --------------------------------------------------------------------
 #N Geom=AllCheck Guess=TCheck SCRF=Check GenChk RB3LYP/6-31G(d) Freq
 --------------------------------------------------------------------

 Structure from the checkpoint file:  "JID_10812.chk"
 -------------------------------
 CID_80159392_JID_10812_neutraal
 -------------------------------
 Charge =  0 Multiplicity = 1

 SCF Done:  E(RB3LYP) =  -900.221068969     A.U. after    1 cycles

  Exact polarizability: 220.563  24.540 158.168   2.821   0.709 164.490
 Approx polarizability: 280.846  50.967 236.378   6.941   0.538 287.950

                      1                      2                      3
                      A                      A                      A
 Frequencies --     16.9075                28.4528                45.1660
 Red. masses --      3.8772                 5.7544                 5.1496
 Frc consts  --      0.0007                 0.0027                 0.0062
 IR Inten    --      0.9443                 0.2483                 1.6620

                      4                      5                      6
                      A                      A                      A
 Frequencies --     60.0938                71.1789                89.8421
 Red. masses --      4.1067                 4.1481                 3.7799
 Frc consts  --      0.0087                 0.0124                 0.0180
 IR Inten    --      0.4930                 0.0290                 0.7097

                      7                      8                      9
                      A                      A                      A
 Frequencies --    109.2147               135.6799               153.2212
 Red. masses --      5.3321                 3.9314                 1.9652
 Frc consts  --      0.0375                 0.0426                 0.0272
 IR Inten    --      0.5002                 0.2001                 0.0060

                     10                     11                     12
                      A                      A                      A
 Frequencies --    169.9515               194.3274               216.9322
 Red. masses --      4.3518                 3.8553                 1.3718
 Frc consts  --      0.0741                 0.0858                 0.0380
 IR Inten    --      0.0118                 0.3796                 0.1128

                     13                     14                     15
                      A                      A                      A
 Frequencies --    262.1769               275.0105               290.2636
 Red. masses --      1.6064                 2.4285                 1.5937
 Frc consts  --      0.0651                 0.1082                 0.0791
 IR Inten    --      0.5256                 3.6212                 0.1210

                     16                     17                     18
                      A                      A                      A
 Frequencies --    298.5460               308.8226               325.1713
 Red. masses --      3.3921                 2.6376                 2.7207
 Frc consts  --      0.1781                 0.1482                 0.1695
 IR Inten    --      0.1659                 1.1034                 0.5898

                     19                     20                     21
                      A                      A                      A
 Frequencies --    359.3359               374.7583               405.4156
 Red. masses --      3.5211                 2.7530                 2.9958
 Frc consts  --      0.2679                 0.2278                 0.2901
 IR Inten    --      1.5300                 2.0316                16.0336

                     22                     23                     24
                      A                      A                      A
 Frequencies --    417.0189               431.0330               449.1178
 Red. masses --      3.5102                 2.4587                 1.7567
 Frc consts  --      0.3597                 0.2691                 0.2088
 IR Inten    --      5.2219                 0.0381                 0.3293

                     25                     26                     27
                      A                      A                      A
 Frequencies --    466.2962               490.8871               507.5757
 Red. masses --      2.6234                 2.8799                 4.7007
 Frc consts  --      0.3361                 0.4089                 0.7135
 IR Inten    --      0.2984                 4.3899                 9.8023

                     28                     29                     30
                      A                      A                      A
 Frequencies --    529.6176               592.9480               607.1012
 Red. masses --      3.2647                 2.1698                 2.4973
 Frc consts  --      0.5395                 0.4495                 0.5423
 IR Inten    --     19.1453                21.9262                 0.7277

                     31                     32                     33
                      A                      A                      A
 Frequencies --    612.4809               633.4028               656.2488
 Red. masses --      1.5038                 2.8138                 6.7963
 Frc consts  --      0.3324                 0.6651                 1.7245
 IR Inten    --     87.1051                 8.9416                 1.6709

                     34                     35                     36
                      A                      A                      A
 Frequencies --    698.6710               720.7759               754.7847
 Red. masses --      2.1620                 4.0974                 3.7153
 Frc consts  --      0.6218                 1.2542                 1.2471
 IR Inten    --      0.5085                43.8849                60.0092

                     37                     38                     39
                      A                      A                      A
 Frequencies --    769.1630               796.0799               816.2878
 Red. masses --      3.7324                 1.3656                 3.9936
 Frc consts  --      1.3010                 0.5099                 1.5679
 IR Inten    --     17.3193                10.5693                12.8071

                     40                     41                     42
                      A                      A                      A
 Frequencies --    827.5407               838.7108               853.3464
 Red. masses --      2.6371                 1.6435                 3.0195
 Frc consts  --      1.0640                 0.6811                 1.2955
 IR Inten    --      3.4460                 0.0390                 3.9403

                     43                     44                     45
                      A                      A                      A
 Frequencies --    885.2490               892.4826               938.3229
 Red. masses --      2.2075                 2.4297                 2.2202
 Frc consts  --      1.0193                 1.1402                 1.1517
 IR Inten    --     10.9970                 0.7775                 0.6122

                     46                     47                     48
                      A                      A                      A
 Frequencies --    978.2042               979.8535               985.8003
 Red. masses --      2.0203                 1.9619                 1.4828
 Frc consts  --      1.1390                 1.1098                 0.8490
 IR Inten    --      1.3932                 0.6729                 2.4533

                     49                     50                     51
                      A                      A                      A
 Frequencies --    998.3170              1007.4158              1023.6454
 Red. masses --      1.3448                 1.6034                 1.4733
 Frc consts  --      0.7897                 0.9587                 0.9096
 IR Inten    --      0.1783                 1.6407                 2.9168

                     52                     53                     54
                      A                      A                      A
 Frequencies --   1035.3536              1045.0326              1060.7828
 Red. masses --      2.5423                 3.5708                 2.1483
 Frc consts  --      1.6056                 2.2976                 1.4243
 IR Inten    --     97.7837                27.5930                 2.3382

                     55                     56                     57
                      A                      A                      A
 Frequencies --   1081.7091              1111.3750              1127.0125
 Red. masses --      1.8505                 2.0580                 2.1214
 Frc consts  --      1.2757                 1.4977                 1.5876
 IR Inten    --      5.9040                18.5936                18.9958

                     58                     59                     60
                      A                      A                      A
 Frequencies --   1127.5687              1147.9696              1158.7799
 Red. masses --      3.9135                 2.3287                 2.2262
 Frc consts  --      2.9316                 1.8081                 1.7612
 IR Inten    --    163.2994                20.2508                18.2201

                     61                     62                     63
                      A                      A                      A
 Frequencies --   1174.3407              1182.0275              1206.6270
 Red. masses --      1.3679                 1.9552                 2.0232
 Frc consts  --      1.1115                 1.6095                 1.7355
 IR Inten    --     29.8149                34.6407                 6.7635

                     64                     65                     66
                      A                      A                      A
 Frequencies --   1222.3917              1228.1727              1251.1890
 Red. masses --      1.8968                 2.4085                 2.6010
 Frc consts  --      1.6699                 2.1405                 2.3990
 IR Inten    --    227.0238                10.4659                 0.1656

                     67                     68                     69
                      A                      A                      A
 Frequencies --   1258.2436              1280.7565              1318.3891
 Red. masses --      1.2439                 1.3863                 1.2640
 Frc consts  --      1.1602                 1.3398                 1.2944
 IR Inten    --      0.0186                12.0601                 8.1967

                     70                     71                     72
                      A                      A                      A
 Frequencies --   1322.3411              1329.6022              1353.2120
 Red. masses --      4.4946                 1.4643                 1.3511
 Frc consts  --      4.6305                 1.5252                 1.4577
 IR Inten    --      6.2156                15.9213                 5.3891

                     73                     74                     75
                      A                      A                      A
 Frequencies --   1376.2678              1387.6943              1389.1755
 Red. masses --      1.2897                 1.4483                 1.4025
 Frc consts  --      1.4393                 1.6433                 1.5947
 IR Inten    --      0.1072                13.7394                10.4848

                     76                     77                     78
                      A                      A                      A
 Frequencies --   1392.7498              1395.7335              1397.3516
 Red. masses --      1.9032                 1.3895                 1.4774
 Frc consts  --      2.1751                 1.5949                 1.6997
 IR Inten    --    112.3810                 6.7611                22.0451

                     79                     80                     81
                      A                      A                      A
 Frequencies --   1405.7383              1410.1657              1428.3968
 Red. masses --      1.7696                 1.2259                 1.4352
 Frc consts  --      2.0603                 1.4363                 1.7252
 IR Inten    --     19.4502                 8.6615                45.4079

                     82                     83                     84
                      A                      A                      A
 Frequencies --   1429.7938              1436.5636              1439.7708
 Red. masses --      1.1817                 1.3178                 3.1207
 Frc consts  --      1.4233                 1.6023                 3.8115
 IR Inten    --      0.9934                27.5246                32.8477

                     85                     86                     87
                      A                      A                      A
 Frequencies --   1443.2430              1450.0165              1487.9704
 Red. masses --      1.2881                 1.2619                 1.0961
 Frc consts  --      1.5808                 1.5632                 1.4298
 IR Inten    --      2.8692                12.6154                11.5494

                     88                     89                     90
                      A                      A                      A
 Frequencies --   1498.9583              1502.7733              1506.6662
 Red. masses --      1.0903                 1.0989                 1.0793
 Frc consts  --      1.4434                 1.4622                 1.4435
 IR Inten    --      5.8650                10.9297                 5.1388

                     91                     92                     93
                      A                      A                      A
 Frequencies --   1514.9743              1515.7352              1522.6049
 Red. masses --      1.1031                 1.0821                 1.0587
 Frc consts  --      1.4916                 1.4647                 1.4461
 IR Inten    --      1.2201                 9.0918                 2.0008

                     94                     95                     96
                      A                      A                      A
 Frequencies --   1530.4875              1531.0192              1538.0820
 Red. masses --      1.1255                 2.3039                 1.0492
 Frc consts  --      1.5533                 3.1817                 1.4624
 IR Inten    --      5.8240                 6.4550                 3.2184

                     97                     98                     99
                      A                      A                      A
 Frequencies --   1545.1014              1616.9835              1653.9891
 Red. masses --      1.0525                 6.0916                 5.7406
 Frc consts  --      1.4805                 9.3842                 9.2528
 IR Inten    --      0.2064                13.7607               152.6074

                    100                    101                    102
                      A                      A                      A
 Frequencies --   1825.9642              3007.9248              3019.8620
 Red. masses --      9.8720                 1.0691                 1.0698
 Frc consts  --     19.3928                 5.6992                 5.7481
 IR Inten    --    321.6600                62.8993                23.7038

                    103                    104                    105
                      A                      A                      A
 Frequencies --   3023.9944              3030.9778              3040.8236
 Red. masses --      1.0720                 1.0595                 1.0748
 Frc consts  --      5.7756                 5.7347                 5.8553
 IR Inten    --     14.6287                64.4927                22.8307

                    106                    107                    108
                      A                      A                      A
 Frequencies --   3043.2222              3048.3391              3052.8369
 Red. masses --      1.0623                 1.0652                 1.0380
 Frc consts  --      5.7964                 5.8317                 5.6995
 IR Inten    --     56.1293                53.9951                19.4170

                    109                    110                    111
                      A                      A                      A
 Frequencies --   3059.6444              3077.2678              3083.2153
 Red. masses --      1.0384                 1.1017                 1.0946
 Frc consts  --      5.7275                 6.1470                 6.1306
 IR Inten    --     24.9670                74.8120                16.9347

                    112                    113                    114
                      A                      A                      A
 Frequencies --   3093.4835              3097.5928              3103.4875
 Red. masses --      1.1015                 1.1033                 1.0949
 Frc consts  --      6.2107                 6.2374                 6.2134
 IR Inten    --     35.0877                19.8464                91.9166

                    115                    116                    117
                      A                      A                      A
 Frequencies --   3104.5951              3115.1609              3118.6841
 Red. masses --      1.0967                 1.1003                 1.0993
 Frc consts  --      6.2282                 6.2912                 6.2994
 IR Inten    --     20.6501                29.6268                46.3941

                    118                    119                    120
                      A                      A                      A
 Frequencies --   3134.8646              3137.2292              3199.8109
 Red. masses --      1.0999                 1.1022                 1.0898
 Frc consts  --      6.3686                 6.3915                 6.5745
 IR Inten    --     37.9679                33.4091                10.7817

                    121                    122                    123
                      A                      A                      A
 Frequencies --   3204.4074              3231.7046              3698.9970
 Red. masses --      1.0911                 1.0936                 1.0642
 Frc consts  --      6.6010                 6.7296                 8.5789
 IR Inten    --      2.2866                 2.6478                83.0631

 - Thermochemistry -
 -------------------
 Temperature   298.150 Kelvin.  Pressure   1.00000 Atm.
 Atom     1 has atomic number  6 and mass  12.00000

 Molecular mass:   277.17903 amu.
 Principal axes and moments of inertia in atomic units:
                           1         2         3
     Eigenvalues --  2933.50087********************
           X            0.99992  -0.01253   0.00068
           Y            0.01253   0.99991  -0.00523
           Z           -0.00062   0.00523   0.99999
 This molecule is an asymmetric top.
 Rotational symmetry number  1.
 Warning -- assumption of classical behavior for rotation
           may cause significant error
 Rotational temperatures (Kelvin)      0.02953     0.00830     0.00753
 Rotational constants (GHZ):           0.61522     0.17300     0.15688
 Zero-point vibrational energy     984968.2 (Joules/Mol)
                                  235.41305 (Kcal/Mol)
 Warning -- explicit consideration of  31 degrees of freedom as
           vibrations may cause significant error
 Vibrational temperatures:     24.33    40.94    64.98    86.46   102.41
          (Kelvin)            129.26   157.14   195.21   220.45   244.52
                              279.59   312.12   377.21   395.68   417.62
                              429.54   444.33   467.85   517.00   539.19
                              583.30   600.00   620.16   646.18   670.90
                              706.28   730.29   762.00   853.12   873.48
                              881.22   911.33   944.20  1005.23  1037.04
                             1085.97  1106.65  1145.38  1174.46  1190.65
                             1206.72  1227.78  1273.68  1284.08  1350.04
                             1407.42  1409.79  1418.35  1436.36  1449.45
                             1472.80  1489.64  1503.57  1526.23  1556.34
                             1599.02  1621.52  1622.32  1651.67  1667.23
                             1689.61  1700.67  1736.07  1758.75  1767.07
                             1800.18  1810.33  1842.72  1896.87  1902.55
                             1913.00  1946.97  1980.14  1996.58  1998.71
                             2003.86  2008.15  2010.48  2022.54  2028.91
                             2055.14  2057.15  2066.89  2071.51  2076.50
                             2086.25  2140.86  2156.67  2162.16  2167.76
                             2179.71  2180.80  2190.69  2202.03  2202.80
                             2212.96  2223.06  2326.48  2379.72  2627.16
                             4327.73  4344.91  4350.85  4360.90  4375.07
                             4378.52  4385.88  4392.35  4402.15  4427.50
                             4436.06  4450.83  4456.75  4465.23  4466.82
                             4482.02  4487.09  4510.37  4513.77  4603.81
                             4610.43  4649.70  5322.03

 Zero-point correction=                           0.375155 (Hartree/Particle)
 Thermal correction to Energy=                    0.394454
 Thermal correction to Enthalpy=                  0.395398
 Thermal correction to Gibbs Free Energy=         0.326007
 Sum of electronic and zero-point Energies=           -899.845914
 Sum of electronic and thermal Energies=              -899.826615
 Sum of electronic and thermal Enthalpies=            -899.825671
 Sum of electronic and thermal Free Energies=         -899.895062

                     E (Thermal)             CV                S
                      KCal/Mol        Cal/Mol-Kelvin    Cal/Mol-Kelvin
 Total                  247.524             74.701            146.046
 Electronic               0.000              0.000              0.000
 Translational            0.889              2.981             42.757
 Rotational               0.889              2.981             34.220
 Vibrational            245.746             68.739             69.069
 Vibration     1          0.593              1.986              6.968
 Vibration     2          0.593              1.984              5.934
 Vibration     3          0.595              1.979              5.019
 Vibration     4          0.597              1.973              4.454
 Vibration     5          0.598              1.968              4.120
 Vibration     6          0.602              1.956              3.663
 Vibration     7          0.606              1.942              3.283
 Vibration     8          0.614              1.918              2.864
 Vibration     9          0.619              1.899              2.632
 Vibration    10          0.625              1.879              2.436
 Vibration    11          0.635              1.848              2.186
 Vibration    12          0.646              1.815              1.985
 Vibration    13          0.669              1.742              1.647
 Vibration    14          0.677              1.720              1.565
 Vibration    15          0.686              1.692              1.472
 Vibration    16          0.692              1.676              1.425
 Vibration    17          0.698              1.657              1.369
 Vibration    18          0.709              1.625              1.284
 Vibration    19          0.734              1.556              1.125
 Vibration    20          0.746              1.524              1.060
 Vibration    21          0.770              1.458              0.943
 Vibration    22          0.780              1.433              0.902
 Vibration    23          0.792              1.403              0.855
 Vibration    24          0.808              1.363              0.798
 Vibration    25          0.824              1.325              0.748
 Vibration    26          0.847              1.270              0.681
 Vibration    27          0.863              1.233              0.639
 Vibration    28          0.885              1.184              0.588
 Vibration    29          0.950              1.047              0.462
 Vibration    30          0.966              1.017              0.438
 Vibration    31          0.972              1.005              0.429

 Optimization completed.
    -- Stationary point found.
 Normal termination of Gaussian 16 at Mon Dec 14 14:21:11 2020.

 ----------------------------------------------------------------------
 # B3LYP/6-311++G(d,p) empiricaldispersion=gd3bj scf=xqc pop=npa geom=c
 heck
 ----------------------------------------------------------------------

 ---------------------------------------
 CID_80159392_JID_10812_Energie_neutraal
 ---------------------------------------
 Structure from the checkpoint file:  "JID_10812.chk"
 Charge =  0 Multiplicity = 1

 SCF Done:  E(RB3LYP) =  -900.471821369     A.U. after   16 cycles
 Normal termination of Gaussian 16 at Mon Dec 14 14:31:17 2020.

 ----------------------------------------------------------------------
 # B3LYP/6-311++G(d,p) empiricaldispersion=gd3bj scf=xqc pop=npa geom=c
 heck
 ----------------------------------------------------------------------

 -------------------------------------
 CID_80159392_JID_10812_Energie_kation
 -------------------------------------
 Structure from the checkpoint file:  "JID_10812.chk"
 Charge =  1 Multiplicity = 2

 SCF Done:  E(UB3LYP) =  -900.228489802     A.U. after   22 cycles
 Normal termination of Gaussian 16 at Mon Dec 14 14:50:32 2020.
 Gaussian 16:  ES64L-G16RevA.03 25-Dec-2016

 ----------------------------------------------------------------------
 # B3LYP/6-311++G(d,p) empiricaldispersion=gd3bj scf=xqc pop=npa geom=c
 heck
 ----------------------------------------------------------------------

 ------------------------------------
 CID_80159392_JID_10812_Energie_anion
 ------------------------------------
 Structure from the checkpoint file:  "JID_10812.chk"
 Charge = -1 Multiplicity = 2

                         Standard orientation:
 ---------------------------------------------------------------------
 Center     Atomic      Atomic             Coordinates (Angstroms)
 Number     Number       Type             X           Y           Z
 ---------------------------------------------------------------------
      1          6           0        4.984945   -0.463528    1.059783
      2          6           0        4.474648   -0.558223   -0.383062
      3          6           0        3.203058   -1.421690   -0.630614
      4          6           0        3.286464   -2.773726    0.092157
      5          7           0        1.891140   -0.811568   -0.404985
      6          6           0        1.526869   -0.294646    0.907018
      7          6           0        1.778186    1.220480    1.055211
      8          7           0        1.213526    2.024743   -0.025023
      9          6           0        1.539798    1.493224   -1.348350
     10          6           0        1.295938   -0.021900   -1.477732
     11          6           0       -0.113396    2.590004    0.173726
     12          6           0       -1.289551    1.626172    0.176547
     13          7           0       -1.794984    1.295366   -1.026944
     14          6           0       -2.790946    0.410774   -1.068448
     15          6           0       -3.345566   -0.189544    0.069812
     16          6           0       -2.832082    0.170383    1.320276
     17          6           0       -1.793875    1.091836    1.369690
     18          6           0       -4.448324   -1.161962   -0.106400
     19          8           0       -4.922349   -1.491815   -1.174510
     20          8           0       -4.894633   -1.667819    1.072607
     21          1           0        5.277754   -1.445747    1.445182
     22          1           0        4.239629   -0.050416    1.745712
     23          1           0        5.867650    0.183945    1.109290
     24          1           0        4.297639    0.447061   -0.782170
     25          1           0        5.281189   -0.987592   -0.994314
     26          1           0        3.208581   -1.642936   -1.705286
     27          1           0        3.214621   -2.663243    1.179301
     28          1           0        2.466645   -3.419861   -0.233830
     29          1           0        4.238620   -3.272910   -0.123467
     30          1           0        0.456887   -0.490565    1.068969
     31          1           0        2.071831   -0.842019    1.682137
     32          1           0        2.861153    1.403498    1.071874
     33          1           0        1.375172    1.580932    2.009947
     34          1           0        2.602007    1.706169   -1.542377
     35          1           0        0.949164    2.032413   -2.095896
     36          1           0        1.682664   -0.379731   -2.438578
     37          1           0        0.212706   -0.197667   -1.477776
     38          1           0       -0.098189    3.133908    1.126679
     39          1           0       -0.287345    3.318082   -0.625875
     40          1           0       -3.185054    0.153431   -2.048119
     41          1           0       -3.244041   -0.264098    2.224414
     42          1           0       -1.369217    1.397705    2.321135
     43          1           0       -5.608976   -2.288998    0.839242
 ---------------------------------------------------------------------

 SCF Done:  E(UB3LYP) =  -900.486845273     A.U. after   33 cycles
 SCF Done:  E(UB3LYP) =  -900.486859956     a.u. after    5 cycles

 The electronic state is 2-A.
 Alpha  occ. eigenvalues --  -19.02027 -18.94226 -14.19182 -14.18191 -14.15221
 Alpha  occ. eigenvalues --  -10.12676 -10.11194 -10.08417 -10.08248 -10.08244
 Alpha  occ. eigenvalues --  -10.08184 -10.07850 -10.07613 -10.07301 -10.06691
 Alpha  occ. eigenvalues --  -10.05033 -10.03709 -10.02998 -10.02653 -10.01624
 Alpha  occ. eigenvalues --   -0.95477  -0.85964  -0.83277  -0.79715  -0.78207
 Alpha  occ. eigenvalues --   -0.70137  -0.65660  -0.65137  -0.64673  -0.63196
 Alpha  occ. eigenvalues --   -0.58974  -0.56744  -0.53646  -0.53499  -0.50633
 Alpha  occ. eigenvalues --   -0.48433  -0.47100  -0.44982  -0.43421  -0.39120
 Alpha  occ. eigenvalues --   -0.38538  -0.37468  -0.36670  -0.36026  -0.34991
 Alpha  occ. eigenvalues --   -0.34411  -0.33911  -0.33570  -0.32214  -0.31962
 Alpha  occ. eigenvalues --   -0.31361  -0.30353  -0.30301  -0.30281  -0.29269
 Alpha  occ. eigenvalues --   -0.28551  -0.27810  -0.26793  -0.26454  -0.25886
 Alpha  occ. eigenvalues --   -0.25631  -0.25221  -0.24588  -0.24203  -0.22978
 Alpha  occ. eigenvalues --   -0.22594  -0.22061  -0.21733  -0.18044  -0.14357
 Alpha  occ. eigenvalues --   -0.13105  -0.12367  -0.11700  -0.10400  -0.07050
 Alpha  occ. eigenvalues --    0.04400
 Alpha virt. eigenvalues --    0.05591   0.07358   0.07675   0.08457   0.09374
 Alpha virt. eigenvalues --    0.09768   0.09976   0.10405   0.10647   0.11179
 Alpha virt. eigenvalues --    0.11527   0.11995   0.12455   0.12639   0.13338

  Beta  occ. eigenvalues --  -19.01966 -18.93897 -14.19180 -14.18123 -14.15226
  Beta  occ. eigenvalues --  -10.12404 -10.11193 -10.08416 -10.08250 -10.08243
  Beta  occ. eigenvalues --  -10.08183 -10.07850 -10.07613 -10.07300 -10.06727
  Beta  occ. eigenvalues --  -10.04955 -10.03217 -10.03107 -10.02379 -10.01412
  Beta  occ. eigenvalues --   -0.95175  -0.85475  -0.83237  -0.79526  -0.77987
  Beta  occ. eigenvalues --   -0.70130  -0.65360  -0.64914  -0.64611  -0.62824
  Beta  occ. eigenvalues --   -0.58797  -0.56685  -0.53612  -0.53276  -0.50312
  Beta  occ. eigenvalues --   -0.48315  -0.46799  -0.44705  -0.43319  -0.39057
  Beta  occ. eigenvalues --   -0.38530  -0.37321  -0.36626  -0.35936  -0.34903
  Beta  occ. eigenvalues --   -0.34333  -0.33676  -0.33387  -0.32135  -0.31787
  Beta  occ. eigenvalues --   -0.31174  -0.30335  -0.30291  -0.29134  -0.28939
  Beta  occ. eigenvalues --   -0.28514  -0.27762  -0.26713  -0.26281  -0.25719
  Beta  occ. eigenvalues --   -0.25348  -0.25155  -0.24395  -0.23957  -0.22928
  Beta  occ. eigenvalues --   -0.22489  -0.21876  -0.21468  -0.16736  -0.13188
  Beta  occ. eigenvalues --   -0.12859  -0.12175  -0.10345  -0.09970  -0.06886
  Beta virt. eigenvalues --    0.05538   0.07275   0.07585   0.08365   0.09339
  Beta virt. eigenvalues --    0.09612   0.09831   0.10303   0.10467   0.11071
  Beta virt. eigenvalues --    0.11110   0.11805   0.11941   0.12465   0.12596

 Mulliken charges and spin densities:
               1          2
     1  C   -0.499986  -0.053375
     2  C   -0.202042  -0.006886
     3  C   -0.165288   0.042053
     4  C   -0.567303  -0.035066
     5  N    0.175688  -0.001344
     6  C   -0.116738  -0.067665
     7  C   -0.751652   0.006875
     8  N    0.282117  -0.004257
     9  C   -0.311729  -0.068715
    10  C   -0.164011   0.005953
    11  C   -1.032553  -0.000003
    12  C    0.316958   0.358117
    13  N    0.002734  -0.004166
    14  C   -0.458130   0.115128
    15  C    0.185068   0.037000
    16  C   -0.147037   0.256535
    17  C   -0.268652  -0.120070
    18  C    0.041040   0.174446
    19  O   -0.426145   0.115810
    20  O   -0.233463   0.014745
    21  H    0.124928   0.007071
    22  H    0.133891   0.005325
    23  H    0.101519   0.036289
    24  H    0.114833  -0.013337
    25  H    0.117761   0.017753
    26  H    0.148265   0.008612
    27  H    0.143055   0.004824
    28  H    0.159141  -0.002253
    29  H    0.106079   0.017572
    30  H    0.295456   0.006205
    31  H    0.077188  -0.001152
    32  H    0.130409   0.031273
    33  H    0.137108   0.007580
    34  H    0.102525   0.021031
    35  H    0.157951  -0.003992
    36  H    0.107569  -0.001476
    37  H    0.271816   0.001578
    38  H    0.092478   0.035630
    39  H    0.113578   0.057821
    40  H    0.191201  -0.002827
    41  H    0.176974  -0.014079
    42  H    0.076789   0.016664
    43  H    0.260612  -0.001224
 Sum of Mulliken charges =  -1.00000   1.00000

 Dipole moment (field-independent basis, Debye):
    X=             10.4007    Y=             -0.9227    Z=              2.3192  Tot=             10.6960
 Quadrupole moment (field-independent basis, Debye-Ang):
   XX=           -190.1394   YY=           -144.7378   ZZ=           -135.9012
   XY=             -6.5122   XZ=            -11.1556   YZ=             -1.3540

 Summary of Natural Population Analysis:

                                       Natural Population
                Natural  -----------------------------------------------
    Atom  No    Charge         Core      Valence    Rydberg      Total
 -----------------------------------------------------------------------
      C    1   -0.29119      0.99967     2.28648    0.00504     3.29119
      C    2   -0.20132      0.99962     2.19380    0.00790     3.20132
      C    3    0.00392      0.99959     1.98572    0.01077     2.99608
      C    4   -0.29041      0.99965     2.28573    0.00503     3.29041
      N    5   -0.28948      0.99971     2.77405    0.01572     3.78948
      C    6   -0.09736      0.99962     2.08912    0.00863     3.09736
      C    7   -0.09205      0.99962     2.08053    0.01190     3.09205
      N    8   -0.27555      0.99973     2.76175    0.01407     3.77555
      C    9   -0.08960      0.99962     2.08009    0.00989     3.08960
      C   10   -0.09294      0.99961     2.08461    0.00872     3.09294
      C   11   -0.09484      0.99958     2.08108    0.01417     3.09484
      C   12    0.17370      0.99953     1.81161    0.01516     2.82630
      N   13   -0.26613      0.99969     2.75343    0.01301     3.76613
      C   14    0.06713      0.99957     1.92070    0.01260     2.93287
      C   15   -0.07700      0.99945     2.06457    0.01298     3.07700
      C   16   -0.01568      0.99955     2.00783    0.00831     3.01568
      C   17   -0.15870      0.99952     2.15134    0.00784     3.15870
      C   18    0.42844      0.99967     1.54806    0.02383     2.57156
      O   19   -0.30238      0.99987     3.29545    0.00705     4.30238
      O   20   -0.35527      0.99988     3.34940    0.00599     4.35527
      H   21    0.09466      0.00000     0.40421    0.00113     0.40534
      H   22    0.09832      0.00000     0.40043    0.00125     0.40168
      H   23    0.09629      0.00000     0.40246    0.00126     0.40371
      H   24    0.09972      0.00000     0.39830    0.00197     0.40028
      H   25    0.09040      0.00000     0.40800    0.00160     0.40960
      H   26    0.09293      0.00000     0.40603    0.00104     0.40707
      H   27    0.09605      0.00000     0.40309    0.00085     0.40395
      H   28    0.10479      0.00000     0.39409    0.00112     0.39521
      H   29    0.09232      0.00000     0.40682    0.00086     0.40768
      H   30    0.10608      0.00000     0.39287    0.00105     0.39392
      H   31    0.08954      0.00000     0.40944    0.00102     0.41046
      H   32    0.08321      0.00000     0.41551    0.00128     0.41679
      H   33    0.09475      0.00000     0.40394    0.00131     0.40525
      H   34    0.07882      0.00000     0.41954    0.00163     0.42118
      H   35    0.10313      0.00000     0.39582    0.00105     0.39687
      H   36    0.08756      0.00000     0.41140    0.00104     0.41244
      H   37    0.10893      0.00000     0.38974    0.00133     0.39107
      H   38    0.08948      0.00000     0.40958    0.00094     0.41052
      H   39    0.09919      0.00000     0.39941    0.00140     0.40081
      H   40    0.09126      0.00000     0.40756    0.00118     0.40874
      H   41    0.09757      0.00000     0.40142    0.00100     0.40243
      H   42    0.09157      0.00000     0.40710    0.00133     0.40843
      H   43    0.23015      0.00000     0.26678    0.00307     0.26985
 =======================================================================
   * Total *   -0.00000     19.99273    54.75892    0.24835    75.00000

 Normal termination of Gaussian 16 at Mon Dec 14 16:46:22 2020.
