 Gaussian 16, Revision A.03,

 -----------------------------------------------------------
 # opt freq B3LYP/6-31G(d) empiricaldispersion=gd3bj scf=xqc
 -----------------------------------------------------------

 -------------------------------
 CID_106576000_JID_7267_neutraal
 -------------------------------
 Symbolic Z-matrix:
 Charge =  0 Multiplicity = 1

 SCF Done:  E(RB3LYP) =  -742.524516286     A.U. after   14 cycles
 SCF Done:  E(RB3LYP) =  -742.531259800     A.U. after   12 cycles
 SCF Done:  E(RB3LYP) =  -742.532011803     A.U. after   11 cycles
 SCF Done:  E(RB3LYP) =  -742.532268583     A.U. after   11 cycles
 SCF Done:  E(RB3LYP) =  -742.532580453     A.U. after   12 cycles
 SCF Done:  E(RB3LYP) =  -742.532736193     A.U. after   11 cycles
 SCF Done:  E(RB3LYP) =  -742.532959427     A.U. after   11 cycles
 SCF Done:  E(RB3LYP) =  -742.533270138     A.U. after   11 cycles
 SCF Done:  E(RB3LYP) =  -742.533350995     A.U. after   11 cycles
 SCF Done:  E(RB3LYP) =  -742.533377676     A.U. after    9 cycles
 SCF Done:  E(RB3LYP) =  -742.533625161     A.U. after    7 cycles
 SCF Done:  E(RB3LYP) =  -742.533625602     A.U. after    8 cycles
 SCF Done:  E(RB3LYP) =  -742.533625935     A.U. after    8 cycles
 SCF Done:  E(RB3LYP) =  -742.533626107     A.U. after    7 cycles
 SCF Done:  E(RB3LYP) =  -742.533626158     A.U. after    6 cycles
 Optimization completed.
    -- Stationary point found.
 Normal termination of Gaussian 16 at Fri Dec 11 12:14:36 2020.

 --------------------------------------------------------------------
 #N Geom=AllCheck Guess=TCheck SCRF=Check GenChk RB3LYP/6-31G(d) Freq
 --------------------------------------------------------------------

 Structure from the checkpoint file:  "JID_7267.chk"
 -------------------------------
 CID_106576000_JID_7267_neutraal
 -------------------------------
 Charge =  0 Multiplicity = 1

 SCF Done:  E(RB3LYP) =  -742.533626158     A.U. after    1 cycles

  Exact polarizability: 204.963  -9.344 156.587  -7.417  -4.791 110.805
 Approx polarizability: 260.261  -6.976 236.135 -16.725 -13.952 174.101

                      1                      2                      3
                      A                      A                      A
 Frequencies --     20.8922                27.6425                53.3416
 Red. masses --      3.4716                 3.7889                 1.4448
 Frc consts  --      0.0009                 0.0017                 0.0024
 IR Inten    --      0.5419                 0.1266                 0.2705

                      4                      5                      6
                      A                      A                      A
 Frequencies --     55.7744                84.1985               108.9971
 Red. masses --      2.1737                 3.0881                 1.6657
 Frc consts  --      0.0040                 0.0129                 0.0117
 IR Inten    --      0.3468                 5.5155                 0.5212

                      7                      8                      9
                      A                      A                      A
 Frequencies --    116.6881               119.0272               123.2394
 Red. masses --      1.0601                 1.0598                 1.4812
 Frc consts  --      0.0085                 0.0088                 0.0133
 IR Inten    --      0.2465                 0.5596                 0.3554

                     10                     11                     12
                      A                      A                      A
 Frequencies --    151.9039               156.1099               165.6676
 Red. masses --      1.8210                 2.0003                 2.0275
 Frc consts  --      0.0248                 0.0287                 0.0328
 IR Inten    --      0.6936                 1.0736                 0.6990

                     13                     14                     15
                      A                      A                      A
 Frequencies --    176.4759               218.5857               254.6872
 Red. masses --      2.5249                 2.8869                 2.8990
 Frc consts  --      0.0463                 0.0813                 0.1108
 IR Inten    --      8.5694                 4.6227                 1.2596

                     16                     17                     18
                      A                      A                      A
 Frequencies --    268.4343               273.0074               284.6879
 Red. masses --      2.8289                 2.6706                 2.5344
 Frc consts  --      0.1201                 0.1173                 0.1210
 IR Inten    --      2.4796                 3.9291                 1.7401

                     19                     20                     21
                      A                      A                      A
 Frequencies --    305.7367               325.5627               349.6012
 Red. masses --      3.1223                 3.8097                 4.7222
 Frc consts  --      0.1720                 0.2379                 0.3400
 IR Inten    --      0.9701                 0.1924                 0.3695

                     22                     23                     24
                      A                      A                      A
 Frequencies --    398.7008               503.2347               543.0354
 Red. masses --      5.2862                 2.7931                 2.9504
 Frc consts  --      0.4951                 0.4167                 0.5126
 IR Inten    --      2.8039                 9.0080                 4.4906

                     25                     26                     27
                      A                      A                      A
 Frequencies --    588.0185               609.5088               635.0323
 Red. masses --      4.3117                 4.1971                 4.3141
 Frc consts  --      0.8784                 0.9187                 1.0250
 IR Inten    --      1.9382                 2.3339                 1.9179

                     28                     29                     30
                      A                      A                      A
 Frequencies --    646.5744               649.7994               684.7743
 Red. masses --      5.9836                 3.5399                 3.7830
 Frc consts  --      1.4738                 0.8807                 1.0451
 IR Inten    --      4.4565                 1.1305                 8.0548

                     31                     32                     33
                      A                      A                      A
 Frequencies --    695.6025               717.8587               726.6445
 Red. masses --      1.5996                 4.9723                 4.6859
 Frc consts  --      0.4560                 1.5097                 1.4578
 IR Inten    --     23.1651                 4.7008                 0.2994

                     34                     35                     36
                      A                      A                      A
 Frequencies --    770.0638               831.0883               848.5509
 Red. masses --      3.2044                 1.7462                 4.0610
 Frc consts  --      1.1196                 0.7106                 1.7228
 IR Inten    --     31.6757                44.0572                 9.1572

                     37                     38                     39
                      A                      A                      A
 Frequencies --    905.6594               972.9749              1006.3250
 Red. masses --      2.7490                 1.9548                 2.2080
 Frc consts  --      1.3285                 1.0903                 1.3174
 IR Inten    --      7.5155                 1.1503                 8.4615

                     40                     41                     42
                      A                      A                      A
 Frequencies --   1024.2399              1034.6202              1063.3218
 Red. masses --      1.7039                 2.4241                 1.7608
 Frc consts  --      1.0532                 1.5288                 1.1730
 IR Inten    --     12.9962                 7.7769                 5.9549

                     43                     44                     45
                      A                      A                      A
 Frequencies --   1068.7966              1077.2254              1079.1581
 Red. masses --      2.3489                 1.4587                 1.5334
 Frc consts  --      1.5809                 0.9973                 1.0522
 IR Inten    --     13.3305                 1.4985                 2.9587

                     46                     47                     48
                      A                      A                      A
 Frequencies --   1080.0194              1082.9758              1103.3663
 Red. masses --      1.4798                 2.0381                 2.3612
 Frc consts  --      1.0170                 1.4084                 1.6936
 IR Inten    --      3.0582                 2.8083                65.2842

                     49                     50                     51
                      A                      A                      A
 Frequencies --   1157.3462              1160.2773              1177.7778
 Red. masses --      1.2963                 1.2997                 2.8473
 Frc consts  --      1.0230                 1.0309                 2.3271
 IR Inten    --      0.5461                 4.8079                 7.4346

                     52                     53                     54
                      A                      A                      A
 Frequencies --   1201.4061              1251.3276              1264.8254
 Red. masses --      1.6416                 2.4562                 3.2621
 Frc consts  --      1.3960                 2.2660                 3.0747
 IR Inten    --      6.6286                17.8896                 0.7202

                     55                     56                     57
                      A                      A                      A
 Frequencies --   1280.2726              1342.4390              1343.4945
 Red. masses --      1.3907                 5.1294                 5.0015
 Frc consts  --      1.3431                 5.4463                 5.3189
 IR Inten    --      3.7332                59.8198                 5.9345

                     58                     59                     60
                      A                      A                      A
 Frequencies --   1371.7980              1392.7377              1423.7152
 Red. masses --      1.8561                 2.6282                 3.0482
 Frc consts  --      2.0579                 3.0037                 3.6403
 IR Inten    --     14.0756                22.4149                29.6993

                     61                     62                     63
                      A                      A                      A
 Frequencies --   1437.0565              1440.1456              1441.9054
 Red. masses --      1.3654                 1.2666                 1.6321
 Frc consts  --      1.6613                 1.5478                 1.9993
 IR Inten    --      8.4476                 3.6690                57.1419

                     64                     65                     66
                      A                      A                      A
 Frequencies --   1447.5457              1471.4297              1471.8706
 Red. masses --      1.4609                 1.2661                 1.3330
 Frc consts  --      1.8036                 1.6151                 1.7014
 IR Inten    --     11.1014                 1.2849                11.2629

                     67                     68                     69
                      A                      A                      A
 Frequencies --   1498.5591              1506.2598              1513.2170
 Red. masses --      1.3398                 1.0445                 1.0639
 Frc consts  --      1.7728                 1.3962                 1.4354
 IR Inten    --     38.1354                 4.7581                 1.8748

                     70                     71                     72
                      A                      A                      A
 Frequencies --   1513.5598              1515.4423              1519.2573
 Red. masses --      1.0840                 1.2570                 1.4959
 Frc consts  --      1.4631                 1.7009                 2.0343
 IR Inten    --      9.1454                39.4248                12.1834

                     73                     74                     75
                      A                      A                      A
 Frequencies --   1521.3245              1523.6749              1527.2956
 Red. masses --      1.1206                 1.1326                 1.3765
 Frc consts  --      1.5281                 1.5493                 1.8918
 IR Inten    --      2.6888                 6.3488                14.2288

                     76                     77                     78
                      A                      A                      A
 Frequencies --   1532.3401              1535.3702              1548.4334
 Red. masses --      1.1501                 1.7764                 1.5366
 Frc consts  --      1.5912                 2.4672                 2.1707
 IR Inten    --      8.6033                 8.9219                60.2382

                     79                     80                     81
                      A                      A                      A
 Frequencies --   1550.4854              1555.4820              1590.8997
 Red. masses --      1.2957                 1.8566                 4.4683
 Frc consts  --      1.8352                 2.6467                 6.6631
 IR Inten    --     11.0314                26.9955               195.8422

                     82                     83                     84
                      A                      A                      A
 Frequencies --   1624.8987              1625.8271              3019.0015
 Red. masses --      5.9554                 5.0020                 1.0640
 Frc consts  --      9.2644                 7.7901                 5.7139
 IR Inten    --     15.6362                 9.9693                31.4839

                     85                     86                     87
                      A                      A                      A
 Frequencies --   3036.6219              3044.7139              3046.4855
 Red. masses --      1.0429                 1.0363                 1.0389
 Frc consts  --      5.6660                 5.6601                 5.6810
 IR Inten    --     30.2147                53.3822                36.1502

                     88                     89                     90
                      A                      A                      A
 Frequencies --   3049.9068              3053.4105              3060.3929
 Red. masses --      1.0413                 1.0372                 1.0970
 Frc consts  --      5.7071                 5.6972                 6.0537
 IR Inten    --     36.7872                55.0372                40.5622

                     91                     92                     93
                      A                      A                      A
 Frequencies --   3088.6264              3095.4809              3097.2039
 Red. masses --      1.0977                 1.1010                 1.1012
 Frc consts  --      6.1699                 6.2157                 6.2238
 IR Inten    --     18.7008                19.4998                22.0544

                     94                     95                     96
                      A                      A                      A
 Frequencies --   3108.9563              3118.4632              3123.7000
 Red. masses --      1.1052                 1.0966                 1.1016
 Frc consts  --      6.2941                 6.2835                 6.3330
 IR Inten    --     23.0093                22.4317                23.2396

                     97                     98                     99
                      A                      A                      A
 Frequencies --   3144.1899              3153.0860              3157.7897
 Red. masses --      1.0995                 1.0975                 1.1035
 Frc consts  --      6.4041                 6.4289                 6.4832
 IR Inten    --     12.8372                 4.9134                 6.7846

                    100                    101                    102
                      A                      A                      A
 Frequencies --   3185.8958              3275.9852              3527.8939
 Red. masses --      1.0994                 1.0977                 1.0738
 Frc consts  --      6.5748                 6.9406                 7.8739
 IR Inten    --      2.3470                 2.7687                 9.6078

 - Thermochemistry -
 -------------------
 Temperature   298.150 Kelvin.  Pressure   1.00000 Atm.
 Atom     1 has atomic number  6 and mass  12.00000

 Molecular mass:   233.16405 amu.
 Principal axes and moments of inertia in atomic units:
                           1         2         3
     Eigenvalues --  1810.131348426.961599478.79271
           X            0.99996  -0.00801  -0.00359
           Y            0.00802   0.99996   0.00312
           Z            0.00356  -0.00315   0.99999
 This molecule is an asymmetric top.
 Rotational symmetry number  1.
 Warning -- assumption of classical behavior for rotation
           may cause significant error
 Rotational temperatures (Kelvin)      0.04785     0.01028     0.00914
 Rotational constants (GHZ):           0.99702     0.21416     0.19040
 Zero-point vibrational energy     811396.7 (Joules/Mol)
                                  193.92846 (Kcal/Mol)
 Warning -- explicit consideration of  26 degrees of freedom as
           vibrations may cause significant error
 Vibrational temperatures:     30.06    39.77    76.75    80.25   121.14
          (Kelvin)            156.82   167.89   171.25   177.31   218.56
                              224.61   238.36   253.91   314.50   366.44
                              386.22   392.80   409.60   439.89   468.41
                              503.00   573.64   724.04   781.31   846.03
                              876.95   913.67   930.28   934.92   985.24
                             1000.82  1032.84  1045.48  1107.95  1195.75
                             1220.88  1303.04  1399.89  1447.88  1473.65
                             1488.59  1529.88  1537.76  1549.89  1552.67
                             1553.91  1558.16  1587.50  1665.16  1669.38
                             1694.56  1728.56  1800.38  1819.80  1842.03
                             1931.47  1932.99  1973.71  2003.84  2048.41
                             2067.60  2072.05  2074.58  2082.70  2117.06
                             2117.69  2156.09  2167.17  2177.18  2177.67
                             2180.38  2185.87  2188.85  2192.23  2197.44
                             2204.70  2209.06  2227.85  2230.80  2237.99
                             2288.95  2337.87  2339.20  4343.67  4369.02
                             4380.66  4383.21  4388.14  4393.18  4403.22
                             4443.84  4453.71  4456.19  4473.09  4486.77
                             4494.31  4523.79  4536.59  4543.36  4583.79
                             4713.41  5075.85

 Zero-point correction=                           0.309045 (Hartree/Particle)
 Thermal correction to Energy=                    0.327675
 Thermal correction to Enthalpy=                  0.328619
 Thermal correction to Gibbs Free Energy=         0.260339
 Sum of electronic and zero-point Energies=           -742.224581
 Sum of electronic and thermal Energies=              -742.205951
 Sum of electronic and thermal Enthalpies=            -742.205007
 Sum of electronic and thermal Free Energies=         -742.273287

                     E (Thermal)             CV                S
                      KCal/Mol        Cal/Mol-Kelvin    Cal/Mol-Kelvin
 Total                  205.619             66.295            143.708
 Electronic               0.000              0.000              0.000
 Translational            0.889              2.981             42.241
 Rotational               0.889              2.981             33.336
 Vibrational            203.842             60.333             68.131
 Vibration     1          0.593              1.986              6.548
 Vibration     2          0.593              1.984              5.992
 Vibration     3          0.596              1.976              4.689
 Vibration     4          0.596              1.975              4.601
 Vibration     5          0.601              1.960              3.791
 Vibration     6          0.606              1.942              3.287
 Vibration     7          0.608              1.936              3.155
 Vibration     8          0.609              1.933              3.116
 Vibration     9          0.610              1.930              3.049
 Vibration    10          0.619              1.901              2.648
 Vibration    11          0.620              1.896              2.596
 Vibration    12          0.624              1.885              2.484
 Vibration    13          0.628              1.871              2.365
 Vibration    14          0.646              1.813              1.971
 Vibration    15          0.665              1.755              1.698
 Vibration    16          0.673              1.731              1.606
 Vibration    17          0.676              1.723              1.577
 Vibration    18          0.683              1.702              1.505
 Vibration    19          0.696              1.663              1.385
 Vibration    20          0.710              1.624              1.282
 Vibration    21          0.727              1.576              1.168
 Vibration    22          0.765              1.473              0.967
 Vibration    23          0.859              1.243              0.650
 Vibration    24          0.898              1.155              0.559
 Vibration    25          0.945              1.057              0.471
 Vibration    26          0.968              1.012              0.434

                           ! Non-Optimized Parameters !
 Normal termination of Gaussian 16 at Fri Dec 11 12:27:01 2020.

 ----------------------------------------------------------------------
 # B3LYP/6-311++G(d,p) empiricaldispersion=gd3bj scf=xqc pop=npa geom=c
 heck
 ----------------------------------------------------------------------

 ---------------------------------------
 CID_106576000_JID_7267_Energie_neutraal
 ---------------------------------------
 Structure from the checkpoint file:  "JID_7267.chk"
 Charge =  0 Multiplicity = 1

 SCF Done:  E(RB3LYP) =  -742.732827866     A.U. after   15 cycles
 Normal termination of Gaussian 16 at Fri Dec 11 12:33:28 2020.

 ----------------------------------------------------------------------
 # B3LYP/6-311++G(d,p) empiricaldispersion=gd3bj scf=xqc pop=npa geom=c
 heck
 ----------------------------------------------------------------------

 -------------------------------------
 CID_106576000_JID_7267_Energie_kation
 -------------------------------------
 Structure from the checkpoint file:  "JID_7267.chk"
 Charge =  1 Multiplicity = 2

 SCF Done:  E(UB3LYP) =  -742.462401232     A.U. after   33 cycles
 SCF Done:  E(UB3LYP) =  -742.462408882     a.u. after    3 cycles
 Normal termination of Gaussian 16 at Fri Dec 11 13:33:21 2020.
 Gaussian 16:  ES64L-G16RevA.03 25-Dec-2016

 ----------------------------------------------------------------------
 # B3LYP/6-311++G(d,p) empiricaldispersion=gd3bj scf=xqc pop=npa geom=c
 heck
 ----------------------------------------------------------------------

 ------------------------------------
 CID_106576000_JID_7267_Energie_anion
 ------------------------------------
 Structure from the checkpoint file:  "JID_7267.chk"
 Charge = -1 Multiplicity = 2

                         Standard orientation:
 ---------------------------------------------------------------------
 Center     Atomic      Atomic             Coordinates (Angstroms)
 Number     Number       Type             X           Y           Z
 ---------------------------------------------------------------------
      1          6           0       -5.245216    1.311561   -0.871565
      2          6           0       -4.068177    0.504755   -0.427080
      3          6           0       -4.041525   -0.582661    0.408731
      4          7           0       -2.710256   -0.973834    0.491875
      5          6           0       -2.002241   -0.091151   -0.281580
      6          7           0       -2.782963    0.810449   -0.845319
      7          7           0       -0.616128   -0.208382   -0.447003
      8          6           0        0.201495    0.260439    0.702339
      9          6           0        1.653550    0.304354    0.345757
     10          6           0        2.439894   -0.734806   -0.138685
     11          7           0        3.685449   -0.213693   -0.316116
     12          7           0        3.756495    1.101905    0.016875
     13          6           0        2.525814    1.422971    0.417701
     14          6           0        2.215926    2.816576    0.870777
     15          6           0        4.862454   -0.886113   -0.822916
     16          6           0        2.106339   -2.160543   -0.434195
     17          6           0       -2.183909   -2.126624    1.191897
     18          1           0       -5.349461    1.288299   -1.963007
     19          1           0       -5.135945    2.363443   -0.581538
     20          1           0       -6.172225    0.930031   -0.431451
     21          1           0       -4.818151   -1.108166    0.944529
     22          1           0       -0.358848    0.330019   -1.270800
     23          1           0       -0.124973    1.254904    1.040042
     24          1           0        0.020015   -0.428619    1.536473
     25          1           0        3.097795    3.448814    0.739756
     26          1           0        1.389634    3.253184    0.297007
     27          1           0        1.927906    2.845771    1.928827
     28          1           0        5.116443   -1.752952   -0.203354
     29          1           0        4.713254   -1.220722   -1.855903
     30          1           0        5.679496   -0.165837   -0.791823
     31          1           0        2.515972   -2.481118   -1.399576
     32          1           0        2.501095   -2.842782    0.330794
     33          1           0        1.021035   -2.273283   -0.478540
     34          1           0       -1.260539   -2.439852    0.699644
     35          1           0       -1.969733   -1.903718    2.244223
     36          1           0       -2.907373   -2.945083    1.145438
 ---------------------------------------------------------------------

 SCF Done:  E(UB3LYP) =  -742.723655728     A.U. after   32 cycles

 The electronic state is 2-A.
 Alpha  occ. eigenvalues --  -14.28965 -14.27266 -14.22986 -14.22754 -14.19433
 Alpha  occ. eigenvalues --  -10.15714 -10.11761 -10.11587 -10.11575 -10.11542
 Alpha  occ. eigenvalues --  -10.10074 -10.09821 -10.09727 -10.08311 -10.08231
 Alpha  occ. eigenvalues --  -10.07739 -10.07162  -0.95102  -0.93117  -0.82856
 Alpha  occ. eigenvalues --   -0.79354  -0.75688  -0.71441  -0.67098  -0.65226
 Alpha  occ. eigenvalues --   -0.63870  -0.62954  -0.60054  -0.58302  -0.56031
 Alpha  occ. eigenvalues --   -0.49437  -0.48041  -0.47507  -0.45418  -0.43182
 Alpha  occ. eigenvalues --   -0.40829  -0.38878  -0.38828  -0.37919  -0.36831
 Alpha  occ. eigenvalues --   -0.35011  -0.34807  -0.33912  -0.33506  -0.33118
 Alpha  occ. eigenvalues --   -0.32536  -0.32225  -0.32075  -0.31266  -0.30440
 Alpha  occ. eigenvalues --   -0.30032  -0.29568  -0.28861  -0.28437  -0.28145
 Alpha  occ. eigenvalues --   -0.27262  -0.19850  -0.19093  -0.18368  -0.17159
 Alpha  occ. eigenvalues --   -0.14764  -0.14254  -0.11695   0.03841
 Alpha virt. eigenvalues --    0.05544   0.06636   0.06959   0.07890   0.08128
 Alpha virt. eigenvalues --    0.08593   0.09175   0.09630   0.09952   0.10143
 Alpha virt. eigenvalues --    0.10320   0.11069   0.11178   0.11549   0.11890

  Beta  occ. eigenvalues --  -14.28963 -14.27263 -14.22981 -14.22747 -14.19429
  Beta  occ. eigenvalues --  -10.15714 -10.11748 -10.11541 -10.11539 -10.11519
  Beta  occ. eigenvalues --  -10.10074 -10.09819 -10.09714 -10.08306 -10.08226
  Beta  occ. eigenvalues --  -10.07691 -10.07162  -0.95094  -0.93110  -0.82847
  Beta  occ. eigenvalues --   -0.79344  -0.75673  -0.71422  -0.67084  -0.65200
  Beta  occ. eigenvalues --   -0.63823  -0.62914  -0.60005  -0.58267  -0.55987
  Beta  occ. eigenvalues --   -0.49422  -0.48027  -0.47476  -0.45387  -0.43137
  Beta  occ. eigenvalues --   -0.40786  -0.38849  -0.38802  -0.37894  -0.36798
  Beta  occ. eigenvalues --   -0.34978  -0.34774  -0.33884  -0.33491  -0.33099
  Beta  occ. eigenvalues --   -0.32508  -0.32183  -0.32041  -0.31238  -0.30414
  Beta  occ. eigenvalues --   -0.30013  -0.29550  -0.28834  -0.28416  -0.28117
  Beta  occ. eigenvalues --   -0.27240  -0.19824  -0.19080  -0.18358  -0.17144
  Beta  occ. eigenvalues --   -0.14750  -0.14242  -0.11684
  Beta virt. eigenvalues --    0.05980   0.06429   0.07125   0.07282   0.08453
  Beta virt. eigenvalues --    0.08520   0.09123   0.09576   0.09804   0.09967
  Beta virt. eigenvalues --    0.10370   0.10517   0.11171   0.11484   0.11674

 Mulliken charges and spin densities:
               1          2
     1  C    0.165770  -0.657662
     2  C    0.315447  -0.199886
     3  C   -0.364440   0.187231
     4  N   -0.105040   0.156211
     5  C   -0.609856   0.173148
     6  N   -0.155732   0.037532
     7  N    0.025651   0.006020
     8  C   -0.778177  -0.027301
     9  C    2.238490  -0.813184
    10  C   -1.834623   1.160123
    11  N    0.020921   0.111103
    12  N   -0.253049   0.182332
    13  C   -0.335697  -0.041243
    14  C   -0.585033  -0.140460
    15  C    0.661879  -0.982193
    16  C    1.031723  -1.483081
    17  C    1.230021  -1.542215
    18  H    0.115401   0.030804
    19  H    0.113701   0.032592
    20  H    0.060500   0.071982
    21  H   -0.450021   0.613010
    22  H    0.259478   0.006591
    23  H    0.143113   0.037161
    24  H    0.110993   0.037611
    25  H    0.142789   0.010661
    26  H    0.115835   0.035323
    27  H    0.058637   0.097909
    28  H   -0.376413   0.548297
    29  H   -0.258658   0.433313
    30  H   -0.043100   0.204617
    31  H   -0.210854   0.351864
    32  H   -0.382133   0.574689
    33  H    0.084731   0.133858
    34  H   -0.298424   0.428693
    35  H   -0.374990   0.579748
    36  H   -0.478843   0.644800
 Sum of Mulliken charges =  -1.00000   1.00000

 Dipole moment (field-independent basis, Debye):
    X=             -2.2214    Y=              6.4038    Z=             -0.9112  Tot=              6.8391
 Quadrupole moment (field-independent basis, Debye-Ang):
   XX=           -196.3166   YY=           -157.6806   ZZ=           -138.8314
   XY=              3.8759   XZ=              8.1135   YZ=              6.6569

 Summary of Natural Population Analysis:

                                       Natural Population
                Natural  -----------------------------------------------
    Atom  No    Charge         Core      Valence    Rydberg      Total
 -----------------------------------------------------------------------
      C    1   -0.29448      0.99963     2.28987    0.00498     3.29448
      C    2    0.05125      0.99956     1.93681    0.01238     2.94875
      C    3   -0.04044      0.99948     2.02966    0.01129     3.04044
      N    4   -0.21100      0.99962     2.70164    0.00974     3.71100
      C    5    0.28449      0.99958     1.69754    0.01839     2.71551
      N    6   -0.28035      0.99967     2.77177    0.00890     3.78035
      N    7   -0.33541      0.99970     2.82635    0.00937     3.83541
      C    8   -0.08979      0.99957     2.08028    0.00994     3.08979
      C    9   -0.08717      0.99941     2.07726    0.01050     3.08717
      C   10    0.10486      0.99948     1.88410    0.01156     2.89514
      N   11   -0.10848      0.99962     2.59642    0.01244     3.60848
      N   12   -0.16596      0.99970     2.65515    0.01111     3.66596
      C   13    0.07845      0.99955     1.90880    0.01321     2.92155
      C   14   -0.29952      0.99963     2.29521    0.00468     3.29952
      C   15   -0.17531      0.99964     2.16776    0.00791     3.17531
      C   16   -0.30738      0.99963     2.30197    0.00578     3.30738
      C   17   -0.17638      0.99964     2.16844    0.00831     3.17638
      H   18    0.10184      0.00000     0.39674    0.00142     0.39816
      H   19    0.10169      0.00000     0.39687    0.00144     0.39831
      H   20    0.10021      0.00000     0.39905    0.00074     0.39979
      H   21    0.10293      0.00000     0.39606    0.00102     0.39707
      H   22    0.18787      0.00000     0.30940    0.00274     0.31213
      H   23    0.09171      0.00000     0.40667    0.00163     0.40829
      H   24    0.09839      0.00000     0.40019    0.00142     0.40161
      H   25    0.10814      0.00000     0.39089    0.00097     0.39186
      H   26    0.10272      0.00000     0.39620    0.00108     0.39728
      H   27    0.10200      0.00000     0.39680    0.00120     0.39800
      H   28    0.10142      0.00000     0.39674    0.00184     0.39858
      H   29    0.09896      0.00000     0.39956    0.00148     0.40104
      H   30    0.10871      0.00000     0.38977    0.00152     0.39129
      H   31    0.10815      0.00000     0.39022    0.00163     0.39185
      H   32    0.11046      0.00000     0.38767    0.00186     0.38954
      H   33    0.11718      0.00000     0.38110    0.00172     0.38282
      H   34    0.10864      0.00000     0.38922    0.00214     0.39136
      H   35    0.09872      0.00000     0.39921    0.00207     0.40128
      H   36    0.10289      0.00000     0.39516    0.00195     0.39711
 =======================================================================
   * Total *    0.00000     16.99309    45.80654    0.20037    63.00000

 Normal termination of Gaussian 16 at Fri Dec 11 13:53:01 2020.
