 Gaussian 16, Revision A.03,

 ----------------------------------------------------------------------
 # opt=(cartesian,calcfc) freq B3LYP/6-31G(d) empiricaldispersion=gd3bj
  scf=xqc
 ----------------------------------------------------------------------

 -------------------------------
 CID_144731895_JID_5136_neutraal
 -------------------------------
 Symbolic Z-matrix:
 Charge =  0 Multiplicity = 1

 SCF Done:  E(RB3LYP) =  -614.571817917     A.U. after   14 cycles
 SCF Done:  E(RB3LYP) =  -614.571817919     A.U. after    7 cycles
 Optimization completed on the basis of negligible forces.
    -- Stationary point found.
 Normal termination of Gaussian 16 at Mon Jan  4 09:28:30 2021.

 --------------------------------------------------------------------
 #N Geom=AllCheck Guess=TCheck SCRF=Check GenChk RB3LYP/6-31G(d) Freq
 --------------------------------------------------------------------

 Structure from the checkpoint file:  "JID_5136.chk"
 -------------------------------
 CID_144731895_JID_5136_neutraal
 -------------------------------
 Charge =  0 Multiplicity = 1

 SCF Done:  E(RB3LYP) =  -614.571817919     A.U. after    1 cycles

  Exact polarizability: 233.902 -26.362 103.839   8.356  26.336 120.657
 Approx polarizability: 341.423 -43.940 157.423  16.405  55.063 214.547

                      1                      2                      3
                      A                      A                      A
 Frequencies --     21.9836                33.5111                47.4937
 Red. masses --      4.7116                 3.3082                 1.8214
 Frc consts  --      0.0013                 0.0022                 0.0024
 IR Inten    --      0.0477                 1.1323                 5.7823

                      4                      5                      6
                      A                      A                      A
 Frequencies --     53.6652                64.5145                72.6297
 Red. masses --      1.3034                 2.8881                 3.1241
 Frc consts  --      0.0022                 0.0071                 0.0097
 IR Inten    --      9.9584                 1.0283                 0.5611

                      7                      8                      9
                      A                      A                      A
 Frequencies --     78.2759                85.1520               114.8909
 Red. masses --      3.5337                 4.3637                 4.3230
 Frc consts  --      0.0128                 0.0186                 0.0336
 IR Inten    --      0.5157                 2.1773                 0.4013

                     10                     11                     12
                      A                      A                      A
 Frequencies --    203.5665               294.2321               298.5310
 Red. masses --      4.5100                 5.2216                 1.1118
 Frc consts  --      0.1101                 0.2663                 0.0584
 IR Inten    --      1.4711                 1.0878                19.4352

                     13                     14                     15
                      A                      A                      A
 Frequencies --    308.8005               339.3413               377.3970
 Red. masses --      3.7758                 1.0355                 3.7487
 Frc consts  --      0.2121                 0.0703                 0.3146
 IR Inten    --      2.4208                33.8154                 1.9315

                     16                     17                     18
                      A                      A                      A
 Frequencies --    416.5657               423.4343               435.4140
 Red. masses --      3.0633                 3.1516                 3.5288
 Frc consts  --      0.3132                 0.3329                 0.3942
 IR Inten    --      0.9180                 0.9503                 6.8296

                     19                     20                     21
                      A                      A                      A
 Frequencies --    515.5071               555.2051               573.3498
 Red. masses --      2.9320                 2.4089                 5.8191
 Frc consts  --      0.4591                 0.4375                 1.1270
 IR Inten    --     34.2057                53.4981                53.0143

                     22                     23                     24
                      A                      A                      A
 Frequencies --    621.9921               635.2385               661.1850
 Red. masses --      1.4839                 6.1674                 6.7491
 Frc consts  --      0.3382                 1.4663                 1.7384
 IR Inten    --    342.0497                 3.2731                 0.5159

                     25                     26                     27
                      A                      A                      A
 Frequencies --    714.1227               729.2968               732.6949
 Red. masses --      1.9282                 3.9638                 3.9181
 Frc consts  --      0.5794                 1.2422                 1.2393
 IR Inten    --     23.4520                 2.6671                 9.1379

                     28                     29                     30
                      A                      A                      A
 Frequencies --    778.2648               824.9952               838.0006
 Red. masses --      1.9893                 1.2573                 1.8433
 Frc consts  --      0.7099                 0.5042                 0.7626
 IR Inten    --     55.7657                 0.6617                39.3447

                     31                     32                     33
                      A                      A                      A
 Frequencies --    851.9529               860.0759               877.6341
 Red. masses --      3.1590                 1.3980                 1.2477
 Frc consts  --      1.3509                 0.6093                 0.5662
 IR Inten    --      7.6383                 3.5427               171.7480

                     34                     35                     36
                      A                      A                      A
 Frequencies --    922.5134               947.9873               953.2760
 Red. masses --      1.3968                 1.3116                 1.3116
 Frc consts  --      0.7004                 0.6945                 0.7022
 IR Inten    --      1.8195                 0.4101                 0.5800

                     37                     38                     39
                      A                      A                      A
 Frequencies --    967.3581               988.1855               990.6614
 Red. masses --      1.3455                 1.0525                 1.2383
 Frc consts  --      0.7418                 0.6056                 0.7161
 IR Inten    --      0.1680                 0.0710                 0.2027

                     40                     41                     42
                      A                      A                      A
 Frequencies --   1020.4953              1023.4138              1048.8439
 Red. masses --      5.9194                 5.2290                 2.9028
 Frc consts  --      3.6320                 3.2268                 1.8814
 IR Inten    --      0.4413                 1.8152                 0.7351

                     43                     44                     45
                      A                      A                      A
 Frequencies --   1070.2677              1073.0416              1100.5676
 Red. masses --      3.2498                 1.8822                 1.4952
 Frc consts  --      2.1933                 1.2768                 1.0670
 IR Inten    --     11.9294                 1.3506                 1.8315

                     46                     47                     48
                      A                      A                      A
 Frequencies --   1115.0751              1167.8821              1192.5409
 Red. masses --      1.5724                 1.1990                 1.3965
 Frc consts  --      1.1520                 0.9635                 1.1702
 IR Inten    --      2.2502                 6.3169                 6.6886

                     49                     50                     51
                      A                      A                      A
 Frequencies --   1193.4957              1215.0662              1223.6890
 Red. masses --      1.0947                 1.1262                 1.1279
 Frc consts  --      0.9187                 0.9796                 0.9951
 IR Inten    --      0.4000                 9.2837                20.3371

                     52                     53                     54
                      A                      A                      A
 Frequencies --   1318.0509              1323.5363              1329.8055
 Red. masses --      2.2717                 2.5205                 4.7176
 Frc consts  --      2.3252                 2.6014                 4.9152
 IR Inten    --      9.1626                 4.9476                92.0572

                     55                     56                     57
                      A                      A                      A
 Frequencies --   1354.3224              1365.2776              1368.7966
 Red. masses --      3.3061                 1.6224                 1.3428
 Frc consts  --      3.5728                 1.7818                 1.4823
 IR Inten    --      2.0247                 1.0223                 0.4802

                     58                     59                     60
                      A                      A                      A
 Frequencies --   1381.4662              1473.4475              1486.2412
 Red. masses --      2.1384                 2.5850                 1.1615
 Frc consts  --      2.4045                 3.3066                 1.5117
 IR Inten    --      1.9062                 2.5779                 1.2910

                     61                     62                     63
                      A                      A                      A
 Frequencies --   1504.1333              1523.7037              1542.1745
 Red. masses --      2.5346                 1.0588                 2.1747
 Frc consts  --      3.3786                 1.4484                 3.0473
 IR Inten    --      1.5923                 6.3350                72.8108

                     64                     65                     66
                      A                      A                      A
 Frequencies --   1544.2202              1576.3600              1625.3122
 Red. masses --      1.0342                 2.7806                 5.3093
 Frc consts  --      1.4530                 4.0710                 8.2635
 IR Inten    --      1.8384                47.8675                 0.5571

                     67                     68                     69
                      A                      A                      A
 Frequencies --   1641.8383              1664.2603              1677.0886
 Red. masses --      6.0232                 5.4726                 2.8098
 Frc consts  --      9.5661                 8.9307                 4.6563
 IR Inten    --      2.4459                43.7751                20.2794

                     70                     71                     72
                      A                      A                      A
 Frequencies --   1696.7971              1702.4604              2966.2757
 Red. masses --      1.4534                 1.0849                 1.0620
 Frc consts  --      2.4655                 1.8526                 5.5056
 IR Inten    --    152.4041                18.1958                99.9591

                     73                     74                     75
                      A                      A                      A
 Frequencies --   3094.9582              3139.5419              3174.7368
 Red. masses --      1.0719                 1.1034                 1.0880
 Frc consts  --      6.0492                 6.4077                 6.4610
 IR Inten    --     25.2509                16.8230                13.2097

                     76                     77                     78
                      A                      A                      A
 Frequencies --   3174.8655              3179.9676              3186.6254
 Red. masses --      1.0876                 1.0846                 1.0874
 Frc consts  --      6.4592                 6.4622                 6.5060
 IR Inten    --     38.6456                 2.4523                 6.4593

                     79                     80                     81
                      A                      A                      A
 Frequencies --   3196.5763              3198.7578              3203.2499
 Red. masses --      1.0912                 1.0932                 1.0929
 Frc consts  --      6.5695                 6.5905                 6.6072
 IR Inten    --     14.9108                 8.7464                 8.1860

                     82                     83                     84
                      A                      A                      A
 Frequencies --   3204.6044              3211.7123              3462.8780
 Red. masses --      1.0926                 1.0977                 1.0496
 Frc consts  --      6.6110                 6.6711                 7.4160
 IR Inten    --     45.0886                18.4570                 4.5210

                     85                     86                     87
                      A                      A                      A
 Frequencies --   3546.2488              3551.0304              3650.1706
 Red. masses --      1.0922                 1.0478                 1.0982
 Frc consts  --      8.0927                 7.7846                 8.6210
 IR Inten    --      1.2170                18.3248                 8.4653

 - Thermochemistry -
 -------------------
 Temperature   298.150 Kelvin.  Pressure   1.00000 Atm.
 Atom     1 has atomic number  6 and mass  12.00000

 Molecular mass:   200.13135 amu.
 Principal axes and moments of inertia in atomic units:
                           1         2         3
     Eigenvalues --  2149.704495417.381696560.14539
           X            0.99993   0.01218   0.00012
           Y           -0.01218   0.99964   0.02409
           Z            0.00018  -0.02409   0.99971
 This molecule is an asymmetric top.
 Rotational symmetry number  1.
 Warning -- assumption of classical behavior for rotation
           may cause significant error
 Rotational temperatures (Kelvin)      0.04029     0.01599     0.01320
 Rotational constants (GHZ):           0.83953     0.33314     0.27511
 Zero-point vibrational energy     693204.7 (Joules/Mol)
                                  165.67989 (Kcal/Mol)
 Warning -- explicit consideration of  21 degrees of freedom as
           vibrations may cause significant error
 Vibrational temperatures:     31.63    48.22    68.33    77.21    92.82
          (Kelvin)            104.50   112.62   122.51   165.30   292.89
                              423.33   429.52   444.30   488.24   542.99
                              599.35   609.23   626.46   741.70   798.82
                              824.92   894.91   913.97   951.30  1027.46
                             1049.30  1054.18  1119.75  1186.98  1205.70
                             1225.77  1237.46  1262.72  1327.29  1363.94
                             1371.55  1391.81  1421.78  1425.34  1468.27
                             1472.46  1509.05  1539.88  1543.87  1583.47
                             1604.34  1680.32  1715.80  1717.17  1748.21
                             1760.62  1896.38  1904.27  1913.29  1948.57
                             1964.33  1969.39  1987.62  2119.96  2138.37
                             2164.11  2192.27  2218.85  2221.79  2268.03
                             2338.46  2362.24  2394.50  2412.96  2441.31
                             2449.46  4267.81  4452.95  4517.10  4567.74
                             4567.92  4575.26  4584.84  4599.16  4602.30
                             4608.76  4610.71  4620.94  4982.31  5102.26
                             5109.14  5251.78

 Zero-point correction=                           0.264028 (Hartree/Particle)
 Thermal correction to Energy=                    0.279877
 Thermal correction to Enthalpy=                  0.280821
 Thermal correction to Gibbs Free Energy=         0.217618
 Sum of electronic and zero-point Energies=           -614.307790
 Sum of electronic and thermal Energies=              -614.291941
 Sum of electronic and thermal Enthalpies=            -614.290997
 Sum of electronic and thermal Free Energies=         -614.354200

                     E (Thermal)             CV                S
                      KCal/Mol        Cal/Mol-Kelvin    Cal/Mol-Kelvin
 Total                  175.625             57.444            133.023
 Electronic               0.000              0.000              0.000
 Translational            0.889              2.981             41.786
 Rotational               0.889              2.981             32.702
 Vibrational            173.848             51.483             58.535
 Vibration     1          0.593              1.985              6.446
 Vibration     2          0.594              1.983              5.610
 Vibration     3          0.595              1.979              4.919
 Vibration     4          0.596              1.976              4.678
 Vibration     5          0.597              1.971              4.314
 Vibration     6          0.599              1.967              4.081
 Vibration     7          0.600              1.964              3.934
 Vibration     8          0.601              1.959              3.768
 Vibration     9          0.608              1.937              3.185
 Vibration    10          0.639              1.835              2.101
 Vibration    11          0.689              1.684              1.449
 Vibration    12          0.692              1.676              1.425
 Vibration    13          0.698              1.657              1.369
 Vibration    14          0.719              1.597              1.215
 Vibration    15          0.748              1.518              1.050
 Vibration    16          0.780              1.434              0.904
 Vibration    17          0.786              1.419              0.880
 Vibration    18          0.796              1.393              0.841
 Vibration    19          0.871              1.216              0.620
 Vibration    20          0.911              1.128              0.533
 Vibration    21          0.930              1.089              0.498

 Optimization completed.
    -- Stationary point found.
 Normal termination of Gaussian 16 at Mon Jan  4 09:37:05 2021.

 ----------------------------------------------------------------------
 # B3LYP/6-311++G(d,p) empiricaldispersion=gd3bj scf=xqc pop=npa geom=c
 heck
 ----------------------------------------------------------------------

 ---------------------------------------
 CID_144731895_JID_5136_Energie_neutraal
 ---------------------------------------
 Structure from the checkpoint file:  "JID_5136.chk"
 Charge =  0 Multiplicity = 1

 SCF Done:  E(RB3LYP) =  -614.751113210     A.U. after   14 cycles
 Normal termination of Gaussian 16 at Mon Jan  4 09:40:23 2021.

 ----------------------------------------------------------------------
 # B3LYP/6-311++G(d,p) empiricaldispersion=gd3bj scf=xqc pop=npa geom=c
 heck
 ----------------------------------------------------------------------

 -------------------------------------
 CID_144731895_JID_5136_Energie_kation
 -------------------------------------
 Structure from the checkpoint file:  "JID_5136.chk"
 Charge =  1 Multiplicity = 2

 SCF Done:  E(UB3LYP) =  -614.485401291     A.U. after   26 cycles
 Normal termination of Gaussian 16 at Mon Jan  4 09:48:33 2021.
 Gaussian 16:  ES64L-G16RevA.03 25-Dec-2016

 ----------------------------------------------------------------------
 # B3LYP/6-311++G(d,p) empiricaldispersion=gd3bj scf=xqc pop=npa geom=c
 heck
 ----------------------------------------------------------------------

 ------------------------------------
 CID_144731895_JID_5136_Energie_anion
 ------------------------------------
 Structure from the checkpoint file:  "JID_5136.chk"
 Charge = -1 Multiplicity = 2

                         Standard orientation:
 ---------------------------------------------------------------------
 Center     Atomic      Atomic             Coordinates (Angstroms)
 Number     Number       Type             X           Y           Z
 ---------------------------------------------------------------------
      1          6           0        1.898511    2.336810   -0.244674
      2          7           0        2.382617    3.608429   -0.789735
      3          6           0        3.500327   -1.443817    0.184429
      4          6           0        2.790781   -1.519418   -1.015638
      5          6           0        1.427687   -1.233664   -1.044803
      6          6           0        0.739272   -0.870323    0.124429
      7          6           0        1.464803   -0.808140    1.325607
      8          6           0        2.829365   -1.087274    1.355263
      9          6           0       -0.703018   -0.544377    0.087271
     10          6           0       -1.587906   -1.234048   -0.756697
     11          6           0       -2.942562   -0.928786   -0.797026
     12          6           0       -3.470933    0.090756    0.011546
     13          6           0       -2.594271    0.788094    0.858508
     14          6           0       -1.241523    0.473019    0.891527
     15          7           0       -4.820189    0.441871   -0.068094
     16          1           0        0.926088    2.099182   -0.686989
     17          1           0        1.781877    2.300774    0.853191
     18          1           0        2.585177    1.533480   -0.526480
     19          1           0        1.750929    4.359827   -0.517271
     20          1           0        3.282074    3.838360   -0.370241
     21          1           0        4.564306   -1.661616    0.206742
     22          1           0        3.303449   -1.787130   -1.935520
     23          1           0        0.893554   -1.256505   -1.990046
     24          1           0        0.946752   -0.556802    2.246490
     25          1           0        3.368424   -1.034596    2.297379
     26          1           0       -1.211984   -2.045379   -1.373300
     27          1           0       -3.604176   -1.486125   -1.456180
     28          1           0       -2.978893    1.592520    1.481239
     29          1           0       -0.582326    1.046353    1.536565
     30          1           0       -5.431621   -0.293303   -0.400749
     31          1           0       -5.193826    0.885868    0.761525
 ---------------------------------------------------------------------

 SCF Done:  E(UB3LYP) =  -614.741094958     A.U. after   33 cycles
 SCF Done:  E(UB3LYP) =  -614.741094958     a.u. after    1 cycles

 The electronic state is 2-A.
 Alpha  occ. eigenvalues --  -14.21167 -14.20124 -10.10938 -10.08530 -10.08312
 Alpha  occ. eigenvalues --  -10.08238 -10.08192 -10.07870 -10.07806 -10.07617
 Alpha  occ. eigenvalues --  -10.07355 -10.07247 -10.07196 -10.06728 -10.06655
 Alpha  occ. eigenvalues --   -0.81604  -0.78255  -0.76882  -0.73820  -0.67098
 Alpha  occ. eigenvalues --   -0.65506  -0.64506  -0.61161  -0.56087  -0.52574
 Alpha  occ. eigenvalues --   -0.52342  -0.50026  -0.48092  -0.43576  -0.41115
 Alpha  occ. eigenvalues --   -0.40683  -0.39577  -0.38099  -0.35921  -0.34742
 Alpha  occ. eigenvalues --   -0.34536  -0.33344  -0.33077  -0.32670  -0.31871
 Alpha  occ. eigenvalues --   -0.30540  -0.28986  -0.28201  -0.27613  -0.26454
 Alpha  occ. eigenvalues --   -0.25681  -0.24740  -0.23745  -0.21680  -0.16490
 Alpha  occ. eigenvalues --   -0.16280  -0.15538  -0.14944  -0.10104   0.04088
 Alpha virt. eigenvalues --    0.05518   0.06061   0.06648   0.07347   0.07637
 Alpha virt. eigenvalues --    0.07943   0.08088   0.08640   0.09596   0.10202
 Alpha virt. eigenvalues --    0.10232   0.11182   0.11626   0.11957   0.12004

  Beta  occ. eigenvalues --  -14.21087 -14.20104 -10.10870 -10.08478 -10.08306
  Beta  occ. eigenvalues --  -10.08227 -10.08192 -10.07818 -10.07802 -10.07591
  Beta  occ. eigenvalues --  -10.07335 -10.07225 -10.07173 -10.06725 -10.06655
  Beta  occ. eigenvalues --   -0.81493  -0.78219  -0.76808  -0.73760  -0.66992
  Beta  occ. eigenvalues --   -0.65455  -0.64461  -0.61061  -0.56051  -0.52539
  Beta  occ. eigenvalues --   -0.52201  -0.49983  -0.48008  -0.43531  -0.41016
  Beta  occ. eigenvalues --   -0.40611  -0.39555  -0.38022  -0.35870  -0.34696
  Beta  occ. eigenvalues --   -0.34499  -0.33289  -0.33055  -0.32606  -0.31831
  Beta  occ. eigenvalues --   -0.30515  -0.28882  -0.28099  -0.27523  -0.26369
  Beta  occ. eigenvalues --   -0.25646  -0.24690  -0.23703  -0.21499  -0.16374
  Beta  occ. eigenvalues --   -0.16033  -0.15456  -0.14914  -0.09917
  Beta virt. eigenvalues --    0.05822   0.06527   0.06852   0.07223   0.07615
  Beta virt. eigenvalues --    0.07675   0.08454   0.08618   0.08691   0.09879
  Beta virt. eigenvalues --    0.10440   0.10757   0.11177   0.11828   0.12023

 Mulliken charges and spin densities:
               1          2
     1  C   -0.209253  -0.372028
     2  N   -0.372179   0.008509
     3  C    0.446061  -0.708548
     4  C   -0.577968   0.063770
     5  C   -0.457756   0.168279
     6  C    1.657667  -0.351963
     7  C   -0.777341  -0.016550
     8  C   -0.263125  -0.051772
     9  C    1.454593  -0.803938
    10  C   -0.355725   0.200256
    11  C   -0.561946   0.387359
    12  C    1.243279  -1.557746
    13  C   -0.425185  -0.022287
    14  C   -0.530758   0.331745
    15  N   -0.291171  -0.007955
    16  H    0.181086  -0.005690
    17  H   -0.082890   0.215207
    18  H    0.178459   0.013044
    19  H    0.105879   0.107832
    20  H    0.035559   0.176138
    21  H   -0.031769   0.165807
    22  H    0.032865   0.125202
    23  H    0.158534  -0.009342
    24  H    0.004473   0.147392
    25  H   -0.211217   0.378717
    26  H    0.020536   0.105168
    27  H   -0.335332   0.498820
    28  H   -0.554923   0.726618
    29  H    0.102601   0.007515
    30  H   -0.327515   0.575036
    31  H   -0.255540   0.505405
 Sum of Mulliken charges =  -1.00000   1.00000

 Dipole moment (field-independent basis, Debye):
    X=              7.0039    Y=             -1.9741    Z=             -0.7400  Tot=              7.3143
 Quadrupole moment (field-independent basis, Debye-Ang):
   XX=           -195.2804   YY=           -129.6490   ZZ=           -118.4222
   XY=             -2.4477   XZ=              3.3391   YZ=              5.0238

 Summary of Natural Population Analysis:

                                       Natural Population
                Natural  -----------------------------------------------
    Atom  No    Charge         Core      Valence    Rydberg      Total
 -----------------------------------------------------------------------
      C    1   -0.18489      0.99968     2.17651    0.00870     3.18489
      N    2   -0.42040      0.99979     2.91060    0.01001     3.92040
      C    3   -0.10554      0.99957     2.09561    0.01037     3.10554
      C    4   -0.10202      0.99957     2.09300    0.00945     3.10202
      C    5   -0.09827      0.99953     2.09111    0.00764     3.09827
      C    6   -0.01034      0.99949     2.00024    0.01061     3.01034
      C    7   -0.09541      0.99953     2.08648    0.00941     3.09541
      C    8   -0.10318      0.99957     2.09333    0.01029     3.10318
      C    9   -0.05183      0.99948     2.04203    0.01032     3.05183
      C   10   -0.08030      0.99953     2.07256    0.00821     3.08030
      C   11   -0.12651      0.99952     2.11690    0.01009     3.12651
      C   12    0.09725      0.99949     1.89172    0.01155     2.90275
      C   13   -0.12555      0.99952     2.11584    0.01019     3.12555
      C   14   -0.07922      0.99953     2.07107    0.00862     3.07922
      N   15   -0.39224      0.99972     2.88192    0.01061     3.89224
      H   16    0.09469      0.00000     0.40417    0.00114     0.40531
      H   17    0.07706      0.00000     0.42106    0.00188     0.42294
      H   18    0.09509      0.00000     0.40293    0.00197     0.40491
      H   19    0.16966      0.00000     0.32883    0.00152     0.33034
      H   20    0.16942      0.00000     0.32892    0.00167     0.33058
      H   21    0.09818      0.00000     0.40106    0.00076     0.40182
      H   22    0.09795      0.00000     0.40130    0.00075     0.40205
      H   23    0.10056      0.00000     0.39817    0.00126     0.39944
      H   24    0.10157      0.00000     0.39696    0.00148     0.39843
      H   25    0.09925      0.00000     0.39990    0.00085     0.40075
      H   26    0.09799      0.00000     0.40061    0.00140     0.40201
      H   27    0.09997      0.00000     0.39905    0.00098     0.40003
      H   28    0.10074      0.00000     0.39819    0.00106     0.39926
      H   29    0.09918      0.00000     0.39890    0.00192     0.40082
      H   30    0.18845      0.00000     0.30475    0.00680     0.31155
      H   31    0.18871      0.00000     0.30430    0.00698     0.31129
 =======================================================================
   * Total *   -0.00000     14.99351    38.82800    0.17849    54.00000

 Normal termination of Gaussian 16 at Mon Jan  4 09:59:00 2021.
