 Gaussian 16, Revision A.03,

 -----------------------------------------------------------
 # opt freq B3LYP/6-31G(d) empiricaldispersion=gd3bj scf=xqc
 -----------------------------------------------------------

 ------------------------------
 CID_62307804_JID_2651_neutraal
 ------------------------------
 Symbolic Z-matrix:
 Charge =  0 Multiplicity = 1

 SCF Done:  E(RB3LYP) =  -520.104894890     A.U. after   14 cycles
 SCF Done:  E(RB3LYP) =  -520.107648130     A.U. after   12 cycles
 SCF Done:  E(RB3LYP) =  -520.108370471     A.U. after   12 cycles
 SCF Done:  E(RB3LYP) =  -520.109319798     A.U. after   13 cycles
 SCF Done:  E(RB3LYP) =  -520.110119601     A.U. after   12 cycles
 SCF Done:  E(RB3LYP) =  -520.110367531     A.U. after   11 cycles
 SCF Done:  E(RB3LYP) =  -520.110381247     A.U. after   10 cycles
 SCF Done:  E(RB3LYP) =  -520.110385348     A.U. after   10 cycles
 SCF Done:  E(RB3LYP) =  -520.110396526     A.U. after   10 cycles
 SCF Done:  E(RB3LYP) =  -520.110398803     A.U. after    7 cycles
 SCF Done:  E(RB3LYP) =  -520.110423976     A.U. after    9 cycles
 SCF Done:  E(RB3LYP) =  -520.110428452     A.U. after    9 cycles
 SCF Done:  E(RB3LYP) =  -520.110429743     A.U. after    9 cycles
 SCF Done:  E(RB3LYP) =  -520.110429912     A.U. after    7 cycles
 SCF Done:  E(RB3LYP) =  -520.110429989     A.U. after    7 cycles
 Optimization completed.
    -- Stationary point found.
 Normal termination of Gaussian 16 at Wed Dec  9 17:30:39 2020.

 --------------------------------------------------------------------
 #N Geom=AllCheck Guess=TCheck SCRF=Check GenChk RB3LYP/6-31G(d) Freq
 --------------------------------------------------------------------

 Structure from the checkpoint file:  "JID_2651.chk"
 ------------------------------
 CID_62307804_JID_2651_neutraal
 ------------------------------
 Charge =  0 Multiplicity = 1

 SCF Done:  E(RB3LYP) =  -520.110429989     A.U. after    1 cycles

  Exact polarizability: 147.200   3.325 130.312  -0.881  -5.425  67.538
 Approx polarizability: 204.563   2.590 195.317  -2.456 -10.160 100.577

                      1                      2                      3
                      A                      A                      A
 Frequencies --     29.5907                55.7209                82.8662
 Red. masses --      1.0386                 3.4913                 3.6949
 Frc consts  --      0.0005                 0.0064                 0.0149
 IR Inten    --      0.1318                 0.4117                 3.5192

                      4                      5                      6
                      A                      A                      A
 Frequencies --    102.5849               115.3535               137.5153
 Red. masses --      2.8651                 1.8504                 2.7778
 Frc consts  --      0.0178                 0.0145                 0.0309
 IR Inten    --      1.0703                 0.6666                 0.9257

                      7                      8                      9
                      A                      A                      A
 Frequencies --    222.8295               228.9395               255.0240
 Red. masses --      3.1158                 2.9794                 1.5934
 Frc consts  --      0.0912                 0.0920                 0.0611
 IR Inten    --      1.7242                 3.8493                13.8308

                     10                     11                     12
                      A                      A                      A
 Frequencies --    269.1538               293.4203               326.7434
 Red. masses --      1.6054                 1.4362                 2.6338
 Frc consts  --      0.0685                 0.0729                 0.1657
 IR Inten    --      2.4129                43.0565                 4.2287

                     13                     14                     15
                      A                      A                      A
 Frequencies --    361.0750               399.9525               458.7312
 Red. masses --      3.3243                 3.9137                 3.4030
 Frc consts  --      0.2554                 0.3689                 0.4219
 IR Inten    --      1.2435                 3.2324                 2.1862

                     16                     17                     18
                      A                      A                      A
 Frequencies --    510.6105               537.3145               605.3043
 Red. masses --      3.2797                 4.0521                 5.0553
 Frc consts  --      0.5038                 0.6893                 1.0913
 IR Inten    --      2.6209                 1.9450                 4.9922

                     19                     20                     21
                      A                      A                      A
 Frequencies --    611.0037               723.1270               753.3916
 Red. masses --      4.0233                 4.1919                 4.1544
 Frc consts  --      0.8849                 1.2915                 1.3893
 IR Inten    --      3.6614                 2.1434                 3.2689

                     22                     23                     24
                      A                      A                      A
 Frequencies --    789.7128               827.2215               839.7757
 Red. masses --      3.3855                 1.2963                 1.2112
 Frc consts  --      1.2440                 0.5226                 0.5033
 IR Inten    --      2.4742                39.3188                 0.4646

                     25                     26                     27
                      A                      A                      A
 Frequencies --    868.5917               892.8184               914.9945
 Red. masses --      1.3025                 1.3250                 2.3537
 Frc consts  --      0.5790                 0.6223                 1.1610
 IR Inten    --      1.8240               100.4358                 6.7256

                     28                     29                     30
                      A                      A                      A
 Frequencies --    944.7047               986.7752              1027.5115
 Red. masses --      1.3142                 2.3272                 2.8287
 Frc consts  --      0.6910                 1.3351                 1.7596
 IR Inten    --      3.7879                22.7808                37.2398

                     31                     32                     33
                      A                      A                      A
 Frequencies --   1043.2937              1067.7544              1074.5821
 Red. masses --      1.6547                 1.7768                 1.5028
 Frc consts  --      1.0612                 1.1935                 1.0224
 IR Inten    --      3.2165                15.5221                 3.6326

                     34                     35                     36
                      A                      A                      A
 Frequencies --   1083.0897              1143.2327              1159.9152
 Red. masses --      3.0381                 1.8717                 2.0674
 Frc consts  --      2.0998                 1.4413                 1.6388
 IR Inten    --     42.3810                 5.0366                48.2748

                     37                     38                     39
                      A                      A                      A
 Frequencies --   1192.1927              1197.3715              1204.0321
 Red. masses --      1.6005                 1.5202                 1.6776
 Frc consts  --      1.3403                 1.2842                 1.4329
 IR Inten    --      3.3959                 7.5819                89.6724

                     40                     41                     42
                      A                      A                      A
 Frequencies --   1246.0993              1298.4976              1315.6091
 Red. masses --      1.8304                 3.7130                 1.1109
 Frc consts  --      1.6745                 3.6886                 1.1329
 IR Inten    --      0.3687               138.4758                 0.3931

                     43                     44                     45
                      A                      A                      A
 Frequencies --   1326.4883              1332.8374              1377.6660
 Red. masses --      1.3667                 1.4583                 3.8321
 Frc consts  --      1.4168                 1.5263                 4.2853
 IR Inten    --     35.0515                 9.3941                15.8336

                     46                     47                     48
                      A                      A                      A
 Frequencies --   1420.6142              1441.4174              1447.0479
 Red. masses --      1.2620                 1.2571                 1.4841
 Frc consts  --      1.5005                 1.5388                 1.8310
 IR Inten    --     14.6600                 1.1126                23.3417

                     49                     50                     51
                      A                      A                      A
 Frequencies --   1452.3429              1469.4345              1515.3464
 Red. masses --      1.3837                 2.6505                 1.0404
 Frc consts  --      1.7196                 3.3719                 1.4076
 IR Inten    --     42.0322                46.3871                 4.4525

                     52                     53                     54
                      A                      A                      A
 Frequencies --   1515.4416              1526.4140              1530.4657
 Red. masses --      1.0445                 1.1199                 1.0519
 Frc consts  --      1.4133                 1.5374                 1.4517
 IR Inten    --      7.3540                25.9035                 4.2001

                     55                     56                     57
                      A                      A                      A
 Frequencies --   1535.0201              1551.0713              1565.0729
 Red. masses --      1.1084                 1.4050                 1.8490
 Frc consts  --      1.5387                 1.9915                 2.6684
 IR Inten    --      0.9397                32.7714                17.2381

                     58                     59                     60
                      A                      A                      A
 Frequencies --   1644.2279              1672.6355              1697.9505
 Red. masses --      5.8762                 4.9336                 1.1423
 Frc consts  --      9.3599                 8.1323                 1.9404
 IR Inten    --     24.2505                67.7149                 8.0636

                     61                     62                     63
                      A                      A                      A
 Frequencies --   2965.2339              3018.2618              3041.8628
 Red. masses --      1.0725                 1.0555                 1.0378
 Frc consts  --      5.5558                 5.6652                 5.6575
 IR Inten    --     73.4625                32.0460                37.7036

                     64                     65                     66
                      A                      A                      A
 Frequencies --   3055.5634              3062.5156              3078.6439
 Red. masses --      1.1086                 1.0352                 1.0892
 Frc consts  --      6.0982                 5.7206                 6.0824
 IR Inten    --     33.7528                18.1388                37.0709

                     67                     68                     69
                      A                      A                      A
 Frequencies --   3092.3227              3127.1901              3134.6441
 Red. masses --      1.1009                 1.1004                 1.1027
 Frc consts  --      6.2023                 6.3401                 6.3836
 IR Inten    --     22.8277                18.6422                26.2336

                     70                     71                     72
                      A                      A                      A
 Frequencies --   3139.5640              3179.7927              3197.2579
 Red. masses --      1.1039                 1.0870                 1.0942
 Frc consts  --      6.4108                 6.4756                 6.5903
 IR Inten    --     27.5633                12.3466                29.6049

                     73                     74                     75
                      A                      A                      A
 Frequencies --   3212.6824              3454.9996              3544.4498
 Red. masses --      1.0892                 1.0504                 1.0907
 Frc consts  --      6.6235                 7.3874                 8.0735
 IR Inten    --      9.9254                10.8919                 0.8919

 - Thermochemistry -
 -------------------
 Temperature   298.150 Kelvin.  Pressure   1.00000 Atm.
 Atom     1 has atomic number  6 and mass  12.00000

 Molecular mass:   165.11536 amu.
 Principal axes and moments of inertia in atomic units:
                           1         2         3
     Eigenvalues --  1543.342142533.881923912.71973
           X            0.99999   0.00301  -0.00249
           Y           -0.00304   0.99996  -0.00817
           Z            0.00247   0.00817   0.99996
 This molecule is an asymmetric top.
 Rotational symmetry number  1.
 Warning -- assumption of classical behavior for rotation
           may cause significant error
 Rotational temperatures (Kelvin)      0.05612     0.03418     0.02214
 Rotational constants (GHZ):           1.16937     0.71224     0.46125
 Zero-point vibrational energy     619214.1 (Joules/Mol)
                                  147.99571 (Kcal/Mol)
 Warning -- explicit consideration of  19 degrees of freedom as
           vibrations may cause significant error
 Vibrational temperatures:     42.57    80.17   119.23   147.60   165.97
          (Kelvin)            197.85   320.60   329.39   366.92   387.25
                              422.17   470.11   519.51   575.44   660.01
                              734.65   773.08   870.90   879.10  1040.42
                             1083.96  1136.22  1190.19  1208.25  1249.71
                             1284.57  1316.47  1359.22  1419.75  1478.36
                             1501.07  1536.26  1546.08  1558.32  1644.86
                             1668.86  1715.30  1722.75  1732.33  1792.86
                             1868.25  1892.87  1908.52  1917.66  1982.15
                             2043.95  2073.88  2081.98  2089.60  2114.19
                             2180.25  2180.38  2196.17  2202.00  2208.55
                             2231.65  2251.79  2365.68  2406.55  2442.97
                             4266.31  4342.61  4376.56  4396.27  4406.28
                             4429.48  4449.16  4499.33  4510.05  4517.13
                             4575.01  4600.14  4622.33  4970.97  5099.67

 Zero-point correction=                           0.235846 (Hartree/Particle)
 Thermal correction to Energy=                    0.248726
 Thermal correction to Enthalpy=                  0.249670
 Thermal correction to Gibbs Free Energy=         0.195759
 Sum of electronic and zero-point Energies=           -519.874584
 Sum of electronic and thermal Energies=              -519.861704
 Sum of electronic and thermal Enthalpies=            -519.860760
 Sum of electronic and thermal Free Energies=         -519.914671

                     E (Thermal)             CV                S
                      KCal/Mol        Cal/Mol-Kelvin    Cal/Mol-Kelvin
 Total                  156.078             47.184            113.464
 Electronic               0.000              0.000              0.000
 Translational            0.889              2.981             41.213
 Rotational               0.889              2.981             31.104
 Vibrational            154.300             41.222             41.147
 Vibration     1          0.593              1.984              5.857
 Vibration     2          0.596              1.975              4.603
 Vibration     3          0.600              1.961              3.822
 Vibration     4          0.605              1.947              3.405
 Vibration     5          0.608              1.937              3.177
 Vibration     6          0.614              1.916              2.838
 Vibration     7          0.649              1.806              1.936
 Vibration     8          0.652              1.797              1.887
 Vibration     9          0.665              1.754              1.696
 Vibration    10          0.674              1.730              1.602
 Vibration    11          0.688              1.686              1.454
 Vibration    12          0.710              1.622              1.276
 Vibration    13          0.735              1.552              1.117
 Vibration    14          0.766              1.470              0.963
 Vibration    15          0.817              1.342              0.770
 Vibration    16          0.866              1.226              0.632
 Vibration    17          0.892              1.168              0.571
 Vibration    18          0.964              1.021              0.441
 Vibration    19          0.970              1.009              0.431

                           ! Non-Optimized Parameters !
 Normal termination of Gaussian 16 at Wed Dec  9 17:37:12 2020.

 ----------------------------------------------------------------------
 # B3LYP/6-311++G(d,p) empiricaldispersion=gd3bj scf=xqc pop=npa geom=c
 heck
 ----------------------------------------------------------------------

 --------------------------------------
 CID_62307804_JID_2651_Energie_neutraal
 --------------------------------------
 Structure from the checkpoint file:  "JID_2651.chk"
 Charge =  0 Multiplicity = 1

 SCF Done:  E(RB3LYP) =  -520.260563002     A.U. after   15 cycles
 Normal termination of Gaussian 16 at Wed Dec  9 17:41:03 2020.

 ----------------------------------------------------------------------
 # B3LYP/6-311++G(d,p) empiricaldispersion=gd3bj scf=xqc pop=npa geom=c
 heck
 ----------------------------------------------------------------------

 ------------------------------------
 CID_62307804_JID_2651_Energie_kation
 ------------------------------------
 Structure from the checkpoint file:  "JID_2651.chk"
 Charge =  1 Multiplicity = 2

 SCF Done:  E(UB3LYP) =  -519.971675971     A.U. after   26 cycles
 Normal termination of Gaussian 16 at Wed Dec  9 17:49:40 2020.
 Gaussian 16:  ES64L-G16RevA.03 25-Dec-2016

 ----------------------------------------------------------------------
 # B3LYP/6-311++G(d,p) empiricaldispersion=gd3bj scf=xqc pop=npa geom=c
 heck
 ----------------------------------------------------------------------

 -----------------------------------
 CID_62307804_JID_2651_Energie_anion
 -----------------------------------
 Structure from the checkpoint file:  "JID_2651.chk"
 Charge = -1 Multiplicity = 2

                         Standard orientation:
 ---------------------------------------------------------------------
 Center     Atomic      Atomic             Coordinates (Angstroms)
 Number     Number       Type             X           Y           Z
 ---------------------------------------------------------------------
      1          6           0        3.313858   -1.913491   -0.091156
      2          6           0        1.799823   -1.836740   -0.023090
      3          8           0        1.437577   -0.463346   -0.129191
      4          6           0        0.107540   -0.126525   -0.105529
      5          6           0       -0.164588    1.249647   -0.243113
      6          6           0       -1.495683    1.650707   -0.217277
      7          6           0       -2.538280    0.731247   -0.068802
      8          6           0       -2.262912   -0.628307    0.063013
      9          6           0       -0.924526   -1.051484    0.043206
     10          6           0       -3.368749   -1.642180    0.230495
     11          6           0        0.968906    2.232627   -0.412149
     12          7           0        1.741984    2.374838    0.835245
     13          1           0        3.676993   -1.496097   -1.035360
     14          1           0        3.643458   -2.955326   -0.020115
     15          1           0        3.765142   -1.350218    0.731887
     16          1           0        1.338670   -2.406208   -0.842133
     17          1           0        1.426581   -2.248431    0.925128
     18          1           0       -1.722403    2.709323   -0.315858
     19          1           0       -3.568197    1.077144   -0.054170
     20          1           0       -0.707155   -2.108759    0.147781
     21          1           0       -3.336218   -2.404482   -0.557773
     22          1           0       -3.286840   -2.168048    1.190013
     23          1           0       -4.352883   -1.165422    0.194721
     24          1           0        1.583885    1.915518   -1.272504
     25          1           0        0.549271    3.213598   -0.661497
     26          1           0        2.522332    3.008899    0.663021
     27          1           0        2.160536    1.468396    1.040082
 ---------------------------------------------------------------------

 SCF Done:  E(UB3LYP) =  -520.245733154     A.U. after   33 cycles
 SCF Done:  E(UB3LYP) =  -520.245733154     a.u. after    1 cycles

 The electronic state is 2-A.
 Alpha  occ. eigenvalues --  -19.05111 -14.18769 -10.13237 -10.12275 -10.09460
 Alpha  occ. eigenvalues --  -10.08378 -10.07420 -10.07350 -10.07010 -10.06815
 Alpha  occ. eigenvalues --  -10.06651 -10.06035  -0.96681  -0.78275  -0.75428
 Alpha  occ. eigenvalues --   -0.68691  -0.66611  -0.62975  -0.60679  -0.54967
 Alpha  occ. eigenvalues --   -0.53615  -0.48935  -0.47971  -0.42437  -0.39813
 Alpha  occ. eigenvalues --   -0.38682  -0.38184  -0.35982  -0.34627  -0.33853
 Alpha  occ. eigenvalues --   -0.32342  -0.31049  -0.30479  -0.29361  -0.29034
 Alpha  occ. eigenvalues --   -0.28616  -0.27211  -0.26128  -0.25296  -0.24962
 Alpha  occ. eigenvalues --   -0.22467  -0.21487  -0.14816  -0.14147  -0.12327
 Alpha  occ. eigenvalues --    0.04502
 Alpha virt. eigenvalues --    0.06326   0.06804   0.07985   0.08331   0.08709
 Alpha virt. eigenvalues --    0.09325   0.09696   0.10280   0.10679   0.10762
 Alpha virt. eigenvalues --    0.11417   0.12268   0.13087   0.13435   0.13760

  Beta  occ. eigenvalues --  -19.05099 -14.18744 -10.13235 -10.12246 -10.09450
  Beta  occ. eigenvalues --  -10.08358 -10.07409 -10.07339 -10.06980 -10.06805
  Beta  occ. eigenvalues --  -10.06649 -10.05984  -0.96661  -0.78237  -0.75399
  Beta  occ. eigenvalues --   -0.68649  -0.66571  -0.62939  -0.60630  -0.54900
  Beta  occ. eigenvalues --   -0.53557  -0.48870  -0.47931  -0.42396  -0.39779
  Beta  occ. eigenvalues --   -0.38649  -0.38155  -0.35940  -0.34589  -0.33821
  Beta  occ. eigenvalues --   -0.32289  -0.30989  -0.30443  -0.29325  -0.28980
  Beta  occ. eigenvalues --   -0.28570  -0.27179  -0.26079  -0.25250  -0.24931
  Beta  occ. eigenvalues --   -0.22420  -0.21449  -0.14751  -0.14115  -0.12284
  Beta virt. eigenvalues --    0.06632   0.07064   0.07591   0.08313   0.08803
  Beta virt. eigenvalues --    0.09168   0.09749   0.09835   0.10761   0.11120
  Beta virt. eigenvalues --    0.11304   0.11682   0.12659   0.13431   0.13681

 Mulliken charges and spin densities:
               1          2
     1  C    2.375801  -3.083766
     2  C   -0.996101   1.020789
     3  O   -0.149086   0.078739
     4  C   -1.946990   0.928128
     5  C    1.521352  -0.376136
     6  C    0.191521  -0.545189
     7  C   -0.426638  -0.544993
     8  C   -0.160754   1.027658
     9  C   -0.941899   1.196665
    10  C    2.164396  -2.659649
    11  C    0.050584  -0.733521
    12  N   -0.411602   0.028838
    13  H   -0.250599   0.403993
    14  H   -0.625346   0.776984
    15  H   -0.297967   0.439181
    16  H   -0.359746   0.523023
    17  H   -0.118176   0.277860
    18  H    0.073574   0.040596
    19  H   -0.120643   0.222911
    20  H   -0.163400   0.334872
    21  H   -0.256830   0.418110
    22  H   -0.030468   0.183305
    23  H   -0.285358   0.434098
    24  H   -0.038822   0.177563
    25  H    0.002106   0.167032
    26  H   -0.052134   0.269861
    27  H    0.253226  -0.006951
 Sum of Mulliken charges =  -1.00000   1.00000

 Dipole moment (field-independent basis, Debye):
    X=             -3.3031    Y=              4.4484    Z=              0.0524  Tot=              5.5409
 Quadrupole moment (field-independent basis, Debye-Ang):
   XX=           -142.2843   YY=           -127.2450   ZZ=           -103.3093
   XY=              2.3345   XZ=             -0.9312   YZ=             -6.2111

 Summary of Natural Population Analysis:

                                       Natural Population
                Natural  -----------------------------------------------
    Atom  No    Charge         Core      Valence    Rydberg      Total
 -----------------------------------------------------------------------
      C    1   -0.28877      0.99966     2.28424    0.00486     3.28877
      C    2   -0.01050      0.99958     1.99872    0.01220     3.01050
      O    3   -0.28387      0.99985     3.27350    0.01052     4.28387
      C    4    0.17283      0.99934     1.81517    0.01267     2.82717
      C    5   -0.03906      0.99947     2.02958    0.01000     3.03906
      C    6   -0.08555      0.99952     2.07743    0.00860     3.08555
      C    7   -0.11890      0.99951     2.11032    0.00906     3.11890
      C    8   -0.00613      0.99953     1.99611    0.01049     3.00613
      C    9   -0.14213      0.99947     2.13343    0.00924     3.14213
      C   10   -0.29296      0.99964     2.28770    0.00562     3.29296
      C   11   -0.09503      0.99960     2.08286    0.01257     3.09503
      N   12   -0.42161      0.99977     2.91170    0.01013     3.92161
      H   13    0.10134      0.00000     0.39673    0.00193     0.39866
      H   14    0.10412      0.00000     0.39332    0.00256     0.39588
      H   15    0.09951      0.00000     0.39857    0.00192     0.40049
      H   16    0.08584      0.00000     0.41193    0.00223     0.41416
      H   17    0.08312      0.00000     0.41513    0.00175     0.41688
      H   18    0.09699      0.00000     0.40198    0.00104     0.40301
      H   19    0.09735      0.00000     0.40178    0.00087     0.40265
      H   20    0.10578      0.00000     0.39245    0.00177     0.39422
      H   21    0.10648      0.00000     0.39192    0.00161     0.39352
      H   22    0.10326      0.00000     0.39575    0.00099     0.39674
      H   23    0.10055      0.00000     0.39837    0.00108     0.39945
      H   24    0.08826      0.00000     0.40997    0.00177     0.41174
      H   25    0.08888      0.00000     0.40984    0.00128     0.41112
      H   26    0.17086      0.00000     0.32727    0.00187     0.32914
      H   27    0.17933      0.00000     0.31813    0.00253     0.32067
 =======================================================================
   * Total *   -0.00000     11.99495    32.86389    0.14116    45.00000

 Normal termination of Gaussian 16 at Wed Dec  9 17:59:51 2020.
