 Gaussian 16, Revision A.03,

 -----------------------------------------------------------
 # opt freq B3LYP/6-31G(d) empiricaldispersion=gd3bj scf=xqc
 -----------------------------------------------------------

 ------------------------------
 CID_21718585_JID_2752_neutraal
 ------------------------------
 Symbolic Z-matrix:
 Charge =  0 Multiplicity = 1

 SCF Done:  E(RB3LYP) =  -612.993024500     A.U. after   14 cycles
 SCF Done:  E(RB3LYP) =  -612.994641451     A.U. after   13 cycles
 SCF Done:  E(RB3LYP) =  -612.994908287     A.U. after   12 cycles
 SCF Done:  E(RB3LYP) =  -612.995023745     A.U. after   12 cycles
 SCF Done:  E(RB3LYP) =  -612.994999531     A.U. after   12 cycles
 SCF Done:  E(RB3LYP) =  -612.994969605     A.U. after   13 cycles
 SCF Done:  E(RB3LYP) =  -612.995081132     A.U. after   12 cycles
 SCF Done:  E(RB3LYP) =  -612.995110346     A.U. after   11 cycles
 SCF Done:  E(RB3LYP) =  -612.995140569     A.U. after   11 cycles
 SCF Done:  E(RB3LYP) =  -612.995220265     A.U. after   13 cycles
 SCF Done:  E(RB3LYP) =  -612.995873283     A.U. after   12 cycles
 SCF Done:  E(RB3LYP) =  -612.995972885     A.U. after   13 cycles
 SCF Done:  E(RB3LYP) =  -612.995995069     A.U. after   11 cycles
 SCF Done:  E(RB3LYP) =  -612.996000335     A.U. after    9 cycles
 SCF Done:  E(RB3LYP) =  -612.996001754     A.U. after    9 cycles
 SCF Done:  E(RB3LYP) =  -612.996001806     A.U. after    8 cycles
 Optimization completed.
    -- Stationary point found.

 1\1\GINC-NODE203\FOpt\RB3LYP\6-31G(d)\C8H12O4\VSC10255\09-Dec-2020\0\\
 # opt freq B3LYP/6-31G(d) empiricaldispersion=gd3bj scf=xqc\\CID_21718
 585_JID_2752_neutraal\\0,1\C,1.909154114,0.2454745654,0.4802881515\C,1
 .1538939006,1.294379982,1.289104363\C,0.4253203249,2.3285274684,0.4086
 283353\C,-0.826805382,1.7863632641,-0.2888219769\C,-2.0673745358,1.780
 720155,0.5908787801\O,-2.0564186837,2.1627556554,1.7551406105\C,-3.360
 1729957,1.315420272,0.0185279002\C,-3.5263268299,0.8604089569,-1.23154
 37825\C,-4.8197247066,0.3935669839,-1.7825638089\O,-4.9555790208,-0.01

 Normal termination of Gaussian 16 at Wed Dec  9 17:36:00 2020.

 --------------------------------------------------------------------
 #N Geom=AllCheck Guess=TCheck SCRF=Check GenChk RB3LYP/6-31G(d) Freq
 --------------------------------------------------------------------

 Structure from the checkpoint file:  "JID_2752.chk"
 ------------------------------
 CID_21718585_JID_2752_neutraal
 ------------------------------
 Charge =  0 Multiplicity = 1

 SCF Done:  E(RB3LYP) =  -612.996001806     A.U. after    1 cycles

  Exact polarizability: 130.864  11.667  95.962   4.907  -4.480  65.277
 Approx polarizability: 161.575  39.311 172.705   4.551 -11.249  96.110

                      1                      2                      3
                      A                      A                      A
 Frequencies --     24.4511                37.6540                69.6761
 Red. masses --      4.7089                 7.7224                 3.7430
 Frc consts  --      0.0017                 0.0065                 0.0107
 IR Inten    --      1.5910                 2.6242                 3.5195

                      4                      5                      6
                      A                      A                      A
 Frequencies --    106.9376               125.8281               137.9223
 Red. masses --      4.7457                 4.4912                 2.9680
 Frc consts  --      0.0320                 0.0419                 0.0333
 IR Inten    --      2.3013                 1.4149                 2.0837

                      7                      8                      9
                      A                      A                      A
 Frequencies --    166.2311               208.2941               231.3602
 Red. masses --      4.5780                 4.3033                 1.1802
 Frc consts  --      0.0745                 0.1100                 0.0372
 IR Inten    --      7.0295                 1.2312                 1.1547

                     10                     11                     12
                      A                      A                      A
 Frequencies --    247.5601               289.2442               375.1887
 Red. masses --      3.0899                 3.6260                 2.0449
 Frc consts  --      0.1116                 0.1787                 0.1696
 IR Inten    --      4.5901                12.8139                 3.3366

                     13                     14                     15
                      A                      A                      A
 Frequencies --    408.7791               435.7500               489.5888
 Red. masses --      4.9067                 3.3060                 2.1009
 Frc consts  --      0.4831                 0.3699                 0.2967
 IR Inten    --     11.1824                 8.5391                21.5780

                     16                     17                     18
                      A                      A                      A
 Frequencies --    506.7597               551.1443               592.2048
 Red. masses --      3.5373                 1.1703                 1.3723
 Frc consts  --      0.5352                 0.2094                 0.2836
 IR Inten    --     22.2555               282.6828                54.3672

                     19                     20                     21
                      A                      A                      A
 Frequencies --    609.2043               624.6905               664.6913
 Red. masses --      3.8748                 2.4780                 3.0870
 Frc consts  --      0.8473                 0.5697                 0.8036
 IR Inten    --     48.3239                45.7327                11.3543

                     22                     23                     24
                      A                      A                      A
 Frequencies --    723.2787               777.9361               814.0414
 Red. masses --      3.0800                 3.2447                 2.7257
 Frc consts  --      0.9493                 1.1570                 1.0642
 IR Inten    --     42.9579                 2.8873                 5.7503

                     25                     26                     27
                      A                      A                      A
 Frequencies --    887.7696               918.9002               933.6216
 Red. masses --      2.3354                 2.8656                 2.5838
 Frc consts  --      1.0845                 1.4256                 1.3269
 IR Inten    --     13.7082                 5.3918                 1.6125

                     28                     29                     30
                      A                      A                      A
 Frequencies --    955.2523               990.9663              1018.9276
 Red. masses --      2.6283                 1.8840                 1.8446
 Frc consts  --      1.4130                 1.0900                 1.1284
 IR Inten    --     16.8342                 6.7814                 3.1306

                     31                     32                     33
                      A                      A                      A
 Frequencies --   1037.9870              1076.8080              1123.5826
 Red. masses --      1.0940                 2.0209                 1.8918
 Frc consts  --      0.6944                 1.3806                 1.4071
 IR Inten    --     28.0391                29.5176                12.5125

                     34                     35                     36
                      A                      A                      A
 Frequencies --   1162.7856              1184.8560              1226.2448
 Red. masses --      2.3168                 2.3501                 1.5910
 Frc consts  --      1.8456                 1.9439                 1.4096
 IR Inten    --    100.7209               335.0482                12.4323

                     37                     38                     39
                      A                      A                      A
 Frequencies --   1231.3516              1268.8969              1285.7851
 Red. masses --      1.3689                 1.2546                 1.3118
 Frc consts  --      1.2229                 1.1902                 1.2777
 IR Inten    --     25.4592                12.9608                10.6236

                     40                     41                     42
                      A                      A                      A
 Frequencies --   1329.9195              1331.0054              1378.9764
 Red. masses --      1.3744                 1.1205                 1.4216
 Frc consts  --      1.4323                 1.1695                 1.5928
 IR Inten    --      0.6398                45.3640                 9.8516

                     43                     44                     45
                      A                      A                      A
 Frequencies --   1396.8462              1404.5480              1417.5927
 Red. masses --      1.8060                 2.3616                 1.5129
 Frc consts  --      2.0762                 2.7449                 1.7913
 IR Inten    --    100.4546                30.7687                 4.8944

                     46                     47                     48
                      A                      A                      A
 Frequencies --   1429.1243              1478.0454              1482.7741
 Red. masses --      1.2455                 1.4097                 1.1511
 Frc consts  --      1.4987                 1.8145                 1.4912
 IR Inten    --      4.4459                31.2762                22.1238

                     49                     50                     51
                      A                      A                      A
 Frequencies --   1510.8408              1517.1938              1534.5354
 Red. masses --      1.0986                 1.0683                 1.0492
 Frc consts  --      1.4775                 1.4489                 1.4556
 IR Inten    --      0.9177                 5.5563                 4.6915

                     52                     53                     54
                      A                      A                      A
 Frequencies --   1703.7407              1759.1055              1827.6430
 Red. masses --      6.7909                10.1712                 9.2875
 Frc consts  --     11.6140                18.5441                18.2781
 IR Inten    --      2.8238               151.5764               300.3573

                     55                     56                     57
                      A                      A                      A
 Frequencies --   2970.3660              3044.6961              3055.0468
 Red. masses --      1.0838                 1.0641                 1.0403
 Frc consts  --      5.6339                 5.8119                 5.7209
 IR Inten    --     83.7528                21.7068                17.3828

                     58                     59                     60
                      A                      A                      A
 Frequencies --   3062.6271              3084.6538              3099.1408
 Red. masses --      1.0570                 1.0962                 1.1026
 Frc consts  --      5.8415                 6.1456                 6.2394
 IR Inten    --     17.3464                 9.6217                19.1493

                     61                     62                     63
                      A                      A                      A
 Frequencies --   3123.6607              3136.4302              3220.0683
 Red. masses --      1.1019                 1.1022                 1.0940
 Frc consts  --      6.3349                 6.3884                 6.6834
 IR Inten    --     47.2316                23.5820                 0.0845

                     64                     65                     66
                      A                      A                      A
 Frequencies --   3230.6854              3698.5176              3700.9085
 Red. masses --      1.0880                 1.0659                 1.0643
 Frc consts  --      6.6907                 8.5908                 8.5889
 IR Inten    --      1.4136               103.4928                67.5840

 - Thermochemistry -
 -------------------
 Temperature   298.150 Kelvin.  Pressure   1.00000 Atm.
 Atom     1 has atomic number  6 and mass  12.00000

 Molecular mass:   172.07356 amu.
 Principal axes and moments of inertia in atomic units:
                           1         2         3
     Eigenvalues --   910.058555038.506025431.42355
           X            0.99983  -0.01819   0.00280
           Y            0.01820   0.99983  -0.00198
           Z           -0.00277   0.00203   0.99999
 This molecule is an asymmetric top.
 Rotational symmetry number  1.
 Warning -- assumption of classical behavior for rotation
           may cause significant error
 Rotational temperatures (Kelvin)      0.09517     0.01719     0.01595
 Rotational constants (GHZ):           1.98310     0.35819     0.33228
 Zero-point vibrational energy     517090.9 (Joules/Mol)
                                  123.58769 (Kcal/Mol)
 Warning -- explicit consideration of  19 degrees of freedom as
           vibrations may cause significant error
 Vibrational temperatures:     35.18    54.18   100.25   153.86   181.04
          (Kelvin)            198.44   239.17   299.69   332.88   356.18
                              416.16   539.81   588.14   626.95   704.41
                              729.11   792.97   852.05   876.51   898.79
                              956.34  1040.64  1119.28  1171.22  1277.30
                             1322.09  1343.27  1374.40  1425.78  1466.01
                             1493.43  1549.29  1616.58  1672.99  1704.74
                             1764.29  1771.64  1825.66  1849.96  1913.46
                             1915.02  1984.04  2009.75  2020.83  2039.60
                             2056.19  2126.58  2133.38  2173.76  2182.90
                             2207.85  2451.30  2530.96  2629.57  4273.69
                             4380.64  4395.53  4406.44  4438.13  4458.97
                             4494.25  4512.62  4632.96  4648.24  5321.34
                             5324.78

 Zero-point correction=                           0.196950 (Hartree/Particle)
 Thermal correction to Energy=                    0.209937
 Thermal correction to Enthalpy=                  0.210882
 Thermal correction to Gibbs Free Energy=         0.155821
 Sum of electronic and zero-point Energies=           -612.799052
 Sum of electronic and thermal Energies=              -612.786064
 Sum of electronic and thermal Enthalpies=            -612.785120
 Sum of electronic and thermal Free Energies=         -612.840180

                     E (Thermal)             CV                S
                      KCal/Mol        Cal/Mol-Kelvin    Cal/Mol-Kelvin
 Total                  131.738             46.604            115.884
 Electronic               0.000              0.000              0.000
 Translational            0.889              2.981             41.336
 Rotational               0.889              2.981             31.588
 Vibrational            129.960             40.643             42.960
 Vibration     1          0.593              1.985              6.235
 Vibration     2          0.594              1.982              5.379
 Vibration     3          0.598              1.969              4.162
 Vibration     4          0.606              1.944              3.324
 Vibration     5          0.611              1.927              3.009
 Vibration     6          0.614              1.915              2.832
 Vibration     7          0.624              1.884              2.478
 Vibration     8          0.642              1.828              2.059
 Vibration     9          0.653              1.793              1.868
 Vibration    10          0.661              1.767              1.748
 Vibration    11          0.686              1.694              1.478
 Vibration    12          0.746              1.523              1.059
 Vibration    13          0.773              1.451              0.931
 Vibration    14          0.796              1.392              0.840
 Vibration    15          0.845              1.273              0.685
 Vibration    16          0.862              1.235              0.641
 Vibration    17          0.906              1.137              0.542
 Vibration    18          0.950              1.048              0.463
 Vibration    19          0.968              1.012              0.434

                           ! Non-Optimized Parameters !

 1\1\GINC-NODE203\Freq\RB3LYP\6-31G(d)\C8H12O4\VSC10255\09-Dec-2020\0\\
 #N Geom=AllCheck Guess=TCheck SCRF=Check GenChk RB3LYP/6-31G(d) Freq\\
 CID_21718585_JID_2752_neutraal\\0,1\C,1.909154114,0.2454745654,0.48028
 81515\C,1.1538939006,1.294379982,1.289104363\C,0.4253203249,2.32852746
 84,0.4086283353\C,-0.826805382,1.7863632641,-0.2888219769\C,-2.0673745
 358,1.780720155,0.5908787801\O,-2.0564186837,2.1627556554,1.7551406105
 \C,-3.3601729957,1.315420272,0.0185279002\C,-3.5263268299,0.8604089569
 ,-1.2315437825\C,-4.8197247066,0.3935669839,-1.7825638089\O,-4.9555790

 Normal termination of Gaussian 16 at Wed Dec  9 17:40:41 2020.

 ----------------------------------------------------------------------
 # B3LYP/6-311++G(d,p) empiricaldispersion=gd3bj scf=xqc pop=npa geom=c
 heck
 ----------------------------------------------------------------------

 --------------------------------------
 CID_21718585_JID_2752_Energie_neutraal
 --------------------------------------
 Structure from the checkpoint file:  "JID_2752.chk"
 Charge =  0 Multiplicity = 1

 SCF Done:  E(RB3LYP) =  -613.195856455     A.U. after   16 cycles
 Normal termination of Gaussian 16 at Wed Dec  9 17:43:50 2020.

 ----------------------------------------------------------------------
 # B3LYP/6-311++G(d,p) empiricaldispersion=gd3bj scf=xqc pop=npa geom=c
 heck
 ----------------------------------------------------------------------

 ------------------------------------
 CID_21718585_JID_2752_Energie_kation
 ------------------------------------
 Structure from the checkpoint file:  "JID_2752.chk"
 Charge =  1 Multiplicity = 2

 SCF Done:  E(UB3LYP) =  -612.850009501     A.U. after   28 cycles
 Normal termination of Gaussian 16 at Wed Dec  9 17:49:50 2020.
 Gaussian 16:  ES64L-G16RevA.03 25-Dec-2016

 -----------------------------------
 CID_21718585_JID_2752_Energie_anion
 -----------------------------------
 Structure from the checkpoint file:  "JID_2752.chk"
 Charge = -1 Multiplicity = 2

                         Standard orientation:
 ---------------------------------------------------------------------
 Center     Atomic      Atomic             Coordinates (Angstroms)
 Number     Number       Type             X           Y           Z
 ---------------------------------------------------------------------
      1          6           0       -3.535927    1.562591    0.649346
      2          6           0       -3.309025    0.153646    0.112507
      3          6           0       -2.402177    0.119370   -1.133274
      4          6           0       -0.921038    0.377953   -0.837374
      5          6           0       -0.166621   -0.850720   -0.353500
      6          8           0       -0.703697   -1.941714   -0.202306
      7          6           0        1.290535   -0.742072   -0.070110
      8          6           0        2.011581    0.382883   -0.179154
      9          6           0        3.460583    0.474787    0.114767
     10          8           0        4.101159    1.499956    0.007516
     11          8           0        4.005831   -0.698780    0.514951
     12          8           0       -2.766438   -0.607689    1.185755
     13          1           0       -2.588507    2.038935    0.925038
     14          1           0       -4.158351    1.518804    1.548026
     15          1           0       -4.039387    2.188212   -0.095608
     16          1           0       -4.288150   -0.258115   -0.186779
     17          1           0       -2.493169   -0.858266   -1.620203
     18          1           0       -2.765693    0.864779   -1.850247
     19          1           0       -0.408580    0.736505   -1.740337
     20          1           0       -0.796582    1.171909   -0.090604
     21          1           0        1.755320   -1.668863    0.252845
     22          1           0        1.576026    1.324783   -0.494963
     23          1           0        4.949420   -0.515624    0.678100
     24          1           0       -2.404657   -1.427882    0.808160
 ---------------------------------------------------------------------

 SCF Done:  E(UB3LYP) =  -613.242100538     A.U. after   23 cycles

 The electronic state is 2-A.
 Alpha  occ. eigenvalues --  -19.02114 -18.99084 -18.94619 -18.93187 -10.13278
 Alpha  occ. eigenvalues --  -10.11016 -10.07556 -10.05787 -10.05184 -10.03976
 Alpha  occ. eigenvalues --  -10.00476 -10.00132  -0.95661  -0.89892  -0.87150
 Alpha  occ. eigenvalues --   -0.86287  -0.67557  -0.63795  -0.61687  -0.54869
 Alpha  occ. eigenvalues --   -0.50761  -0.46539  -0.43947  -0.39208  -0.37062
 Alpha  occ. eigenvalues --   -0.36363  -0.34692  -0.33638  -0.32270  -0.30233
 Alpha  occ. eigenvalues --   -0.30057  -0.29156  -0.28050  -0.26945  -0.26585
 Alpha  occ. eigenvalues --   -0.24760  -0.24122  -0.22840  -0.22385  -0.20944
 Alpha  occ. eigenvalues --   -0.19760  -0.18199  -0.15189  -0.13125  -0.12845
 Alpha  occ. eigenvalues --   -0.09326   0.02372
 Alpha virt. eigenvalues --    0.07638   0.09638   0.09776   0.10114   0.11500
 Alpha virt. eigenvalues --    0.12854   0.13016   0.13497   0.14040   0.14742
 Alpha virt. eigenvalues --    0.15730   0.16152   0.17314   0.17487   0.17997

  Beta  occ. eigenvalues --  -19.02071 -18.99081 -18.94291 -18.92632 -10.13135
  Beta  occ. eigenvalues --  -10.11016 -10.07308 -10.05786 -10.05184 -10.04000
  Beta  occ. eigenvalues --  -10.00175  -9.99870  -0.95428  -0.89849  -0.86198
  Beta  occ. eigenvalues --   -0.85818  -0.67508  -0.63190  -0.61416  -0.54548
  Beta  occ. eigenvalues --   -0.50141  -0.46457  -0.43354  -0.39089  -0.36761
  Beta  occ. eigenvalues --   -0.36210  -0.34422  -0.33392  -0.31969  -0.30101
  Beta  occ. eigenvalues --   -0.29087  -0.28800  -0.27908  -0.26592  -0.26365
  Beta  occ. eigenvalues --   -0.24612  -0.23888  -0.22461  -0.21314  -0.20584
  Beta  occ. eigenvalues --   -0.18884  -0.17008  -0.15080  -0.12756  -0.10217
  Beta  occ. eigenvalues --   -0.08799
  Beta virt. eigenvalues --    0.07617   0.09485   0.09642   0.09849   0.10155
  Beta virt. eigenvalues --    0.11489   0.12844   0.13062   0.13494   0.14128
  Beta virt. eigenvalues --    0.14742   0.15775   0.16786   0.17443   0.17979

 Mulliken charges and spin densities:
               1          2
     1  C   -0.532346  -0.005655
     2  C   -0.097520   0.002121
     3  C   -0.492490   0.001517
     4  C    0.083069  -0.043065
     5  C   -0.578618   0.242294
     6  O   -0.388559   0.176347
     7  C    0.016226   0.130521
     8  C   -0.031719   0.217728
     9  C   -0.001529   0.154964
    10  O   -0.402193   0.106725
    11  O   -0.223762   0.010134
    12  O   -0.248156  -0.002849
    13  H    0.140967   0.004147
    14  H    0.138436   0.001034
    15  H    0.106426  -0.000631
    16  H    0.117104   0.002706
    17  H    0.178661  -0.000333
    18  H    0.128584  -0.000812
    19  H    0.103840   0.018960
    20  H    0.054307   0.012509
    21  H    0.200846  -0.016421
    22  H    0.198998  -0.014938
    23  H    0.246198  -0.000107
    24  H    0.283229   0.003103
 Sum of Mulliken charges =  -1.00000   1.00000

 Dipole moment (field-independent basis, Debye):
    X=             -4.8180    Y=              1.2384    Z=             -1.2245  Tot=              5.1231
 Quadrupole moment (field-independent basis, Debye-Ang):
   XX=           -110.9980   YY=            -91.9323   ZZ=            -81.0211
   XY=            -14.6188   XZ=              6.8718   YZ=             -0.2547

 Summary of Natural Population Analysis:

                                       Natural Population
                Natural  -----------------------------------------------
    Atom  No    Charge         Core      Valence    Rydberg      Total
 -----------------------------------------------------------------------
      C    1   -0.29218      0.99965     2.28719    0.00534     3.29218
      C    2    0.06740      0.99959     1.92063    0.01237     2.93260
      C    3   -0.20283      0.99962     2.19520    0.00802     3.20283
      C    4   -0.24133      0.99959     2.23375    0.00798     3.24133
      C    5    0.29772      0.99966     1.68235    0.02027     2.70228
      O    6   -0.26665      0.99987     3.25948    0.00730     4.26665
      C    7   -0.06105      0.99951     2.05088    0.01066     3.06105
      C    8   -0.09041      0.99948     2.08185    0.00908     3.09041
      C    9    0.40083      0.99970     1.57492    0.02455     2.59917
      O   10   -0.29931      0.99987     3.29214    0.00730     4.29931
      O   11   -0.35554      0.99988     3.34703    0.00863     4.35554
      O   12   -0.38600      0.99989     3.37804    0.00808     4.38600
      H   13    0.10035      0.00000     0.39854    0.00111     0.39965
      H   14    0.09871      0.00000     0.40032    0.00097     0.40129
      H   15    0.09193      0.00000     0.40724    0.00083     0.40807
      H   16    0.06447      0.00000     0.43349    0.00204     0.43553
      H   17    0.10424      0.00000     0.39431    0.00145     0.39576
      H   18    0.09213      0.00000     0.40673    0.00114     0.40787
      H   19    0.10669      0.00000     0.39207    0.00124     0.39331
      H   20    0.10786      0.00000     0.39090    0.00124     0.39214
      H   21    0.09727      0.00000     0.40084    0.00189     0.40273
      H   22    0.09060      0.00000     0.40827    0.00113     0.40940
      H   23    0.22945      0.00000     0.26745    0.00310     0.27055
      H   24    0.24564      0.00000     0.25153    0.00283     0.25436
 =======================================================================
   * Total *   -0.00000     11.99631    33.85516    0.14854    46.00000

 Normal termination of Gaussian 16 at Wed Dec  9 17:55:04 2020.
