 Gaussian 16, Revision A.03,

 -----------------------------------------------------------
 # opt freq B3LYP/6-31G(d) empiricaldispersion=gd3bj scf=xqc
 -----------------------------------------------------------

 ------------------------------
 CID_43528986_JID_8613_neutraal
 ------------------------------
 Symbolic Z-matrix:
 Charge =  0 Multiplicity = 1

 SCF Done:  E(RB3LYP) =  -1088.98549730     A.U. after   14 cycles
 SCF Done:  E(RB3LYP) =  -1088.99032300     A.U. after   13 cycles
 SCF Done:  E(RB3LYP) =  -1088.99167280     A.U. after   12 cycles
 SCF Done:  E(RB3LYP) =  -1088.99343163     A.U. after   15 cycles
 SCF Done:  E(RB3LYP) =  -1088.99487066     A.U. after   13 cycles
 SCF Done:  E(RB3LYP) =  -1088.99617892     A.U. after   13 cycles
 SCF Done:  E(RB3LYP) =  -1088.99728119     A.U. after   13 cycles
 SCF Done:  E(RB3LYP) =  -1088.99737907     A.U. after   12 cycles
 SCF Done:  E(RB3LYP) =  -1088.99753815     A.U. after   11 cycles
 SCF Done:  E(RB3LYP) =  -1088.99760028     A.U. after   11 cycles
 SCF Done:  E(RB3LYP) =  -1088.99766048     A.U. after    9 cycles
 SCF Done:  E(RB3LYP) =  -1088.99766140     A.U. after    8 cycles
 SCF Done:  E(RB3LYP) =  -1088.99766169     A.U. after    8 cycles
 SCF Done:  E(RB3LYP) =  -1088.99766170     A.U. after    7 cycles
 Optimization completed.
    -- Stationary point found.
 Normal termination of Gaussian 16 at Fri Dec 11 21:22:15 2020.

 --------------------------------------------------------------------
 #N Geom=AllCheck Guess=TCheck SCRF=Check GenChk RB3LYP/6-31G(d) Freq
 --------------------------------------------------------------------

 Structure from the checkpoint file:  "JID_8613.chk"
 ------------------------------
 CID_43528986_JID_8613_neutraal
 ------------------------------
 Charge =  0 Multiplicity = 1

 SCF Done:  E(RB3LYP) =  -1088.99766170     A.U. after    1 cycles

  Exact polarizability: 245.079  18.077 169.513   8.408  -1.648 137.310
 Approx polarizability: 333.450  33.143 278.427  17.225  -1.061 233.010

                      1                      2                      3
                      A                      A                      A
 Frequencies --     15.2118                22.7500                34.1605
 Red. masses --      4.2811                 4.3185                 4.4365
 Frc consts  --      0.0006                 0.0013                 0.0031
 IR Inten    --      0.2858                 0.2558                 0.1877

                      4                      5                      6
                      A                      A                      A
 Frequencies --     64.2360               111.1099               142.7440
 Red. masses --      2.6641                 3.6611                 3.1246
 Frc consts  --      0.0065                 0.0266                 0.0375
 IR Inten    --      2.3907                 0.4532                 1.2495

                      7                      8                      9
                      A                      A                      A
 Frequencies --    157.6830               171.7314               198.3674
 Red. masses --      3.3919                 2.8513                 2.8981
 Frc consts  --      0.0497                 0.0495                 0.0672
 IR Inten    --      2.3422                 0.1314                 4.1458

                     10                     11                     12
                      A                      A                      A
 Frequencies --    230.2573               235.0819               284.0856
 Red. masses --      3.0519                 4.6214                 1.5943
 Frc consts  --      0.0953                 0.1505                 0.0758
 IR Inten    --      2.5133                 0.8740                34.8033

                     13                     14                     15
                      A                      A                      A
 Frequencies --    296.2578               313.4076               405.6958
 Red. masses --      3.2422                 3.5175                 4.4784
 Frc consts  --      0.1677                 0.2036                 0.4343
 IR Inten    --      9.1809                 1.6773                 2.6357

                     16                     17                     18
                      A                      A                      A
 Frequencies --    416.2327               432.2921               435.7231
 Red. masses --      4.7140                 4.4499                 4.4583
 Frc consts  --      0.4812                 0.4900                 0.4987
 IR Inten    --      3.1636                 0.7069                 1.9849

                     19                     20                     21
                      A                      A                      A
 Frequencies --    447.1218               457.3711               539.4919
 Red. masses --      3.1143                 4.6297                 4.0303
 Frc consts  --      0.3668                 0.5706                 0.6911
 IR Inten    --      6.1917                 4.2245                 6.3111

                     22                     23                     24
                      A                      A                      A
 Frequencies --    560.6492               572.5143               597.7598
 Red. masses --      4.2278                 3.4106                 4.8105
 Frc consts  --      0.7830                 0.6586                 1.0127
 IR Inten    --      3.3615                 5.6618                11.3340

                     25                     26                     27
                      A                      A                      A
 Frequencies --    632.3348               679.6980               724.3116
 Red. masses --      2.4701                 5.7049                 3.6767
 Frc consts  --      0.5819                 1.5528                 1.1365
 IR Inten    --      1.6922                 2.7473                 4.0981

                     28                     29                     30
                      A                      A                      A
 Frequencies --    732.9782               750.1230               774.4858
 Red. masses --      6.0442                 4.7322                 3.0363
 Frc consts  --      1.9133                 1.5688                 1.0731
 IR Inten    --      7.4818                 0.8386                 0.5183

                     31                     32                     33
                      A                      A                      A
 Frequencies --    828.9334               836.7842               866.3151
 Red. masses --      1.2388                 1.3483                 1.7438
 Frc consts  --      0.5015                 0.5562                 0.7711
 IR Inten    --     20.2216                10.3858               138.6059

                     34                     35                     36
                      A                      A                      A
 Frequencies --    873.9461               883.5800               888.2586
 Red. masses --      2.4747                 2.3939                 2.1373
 Frc consts  --      1.1136                 1.1012                 0.9936
 IR Inten    --      0.9866                 5.9762                 8.8062

                     37                     38                     39
                      A                      A                      A
 Frequencies --    905.5997               918.2938               925.5994
 Red. masses --      1.8663                 1.6905                 1.3561
 Frc consts  --      0.9018                 0.8399                 0.6845
 IR Inten    --      2.5290                 2.9909                 5.0043

                     40                     41                     42
                      A                      A                      A
 Frequencies --    928.3114               960.6029               974.1135
 Red. masses --      1.9719                 1.3039                 1.3437
 Frc consts  --      1.0012                 0.7089                 0.7512
 IR Inten    --      1.2712                 0.4477                 0.1346

                     43                     44                     45
                      A                      A                      A
 Frequencies --   1007.1729              1017.1581              1019.4000
 Red. masses --      6.9721                 2.1931                 1.8856
 Frc consts  --      4.1670                 1.3369                 1.1545
 IR Inten    --      6.5325                 0.4155                 7.7587

                     46                     47                     48
                      A                      A                      A
 Frequencies --   1074.4825              1081.8402              1104.5003
 Red. masses --      1.7012                 2.5753                 2.3471
 Frc consts  --      1.1572                 1.7758                 1.6870
 IR Inten    --      2.3472                 2.5965                 0.7988

                     49                     50                     51
                      A                      A                      A
 Frequencies --   1121.6899              1130.5808              1153.2812
 Red. masses --      1.8959                 2.1212                 1.6371
 Frc consts  --      1.4055                 1.5975                 1.2829
 IR Inten    --     24.1319                 1.8667                26.5254

                     52                     53                     54
                      A                      A                      A
 Frequencies --   1162.3964              1188.3848              1192.3496
 Red. masses --      1.2581                 1.2590                 1.5003
 Frc consts  --      1.0015                 1.0476                 1.2567
 IR Inten    --      0.4482                 5.4837                 1.1205

                     55                     56                     57
                      A                      A                      A
 Frequencies --   1211.6412              1238.0086              1246.9466
 Red. masses --      1.4806                 1.8501                 2.9277
 Frc consts  --      1.2807                 1.6707                 2.6820
 IR Inten    --      2.0543                 0.5680                30.6179

                     58                     59                     60
                      A                      A                      A
 Frequencies --   1257.9568              1293.2073              1299.4545
 Red. masses --      1.5775                 2.4176                 1.3334
 Frc consts  --      1.4708                 2.3822                 1.3265
 IR Inten    --      6.0884                13.9204                 1.9945

                     61                     62                     63
                      A                      A                      A
 Frequencies --   1315.3754              1326.3599              1334.0884
 Red. masses --      2.5621                 1.7318                 1.3484
 Frc consts  --      2.6118                 1.7950                 1.4140
 IR Inten    --      0.3123                 2.0396                 3.1983

                     64                     65                     66
                      A                      A                      A
 Frequencies --   1338.6642              1358.5445              1368.1948
 Red. masses --      1.5589                 1.3701                 2.9475
 Frc consts  --      1.6459                 1.4899                 3.2509
 IR Inten    --      3.1247                 0.3789                 5.4399

                     67                     68                     69
                      A                      A                      A
 Frequencies --   1418.4312              1447.3336              1452.4916
 Red. masses --      2.2365                 1.6187                 3.6892
 Frc consts  --      2.6511                 1.9978                 4.5858
 IR Inten    --    102.4450                43.9282                 4.7691

                     70                     71                     72
                      A                      A                      A
 Frequencies --   1508.4385              1509.4271              1510.8016
 Red. masses --      1.2896                 2.1005                 1.0960
 Frc consts  --      1.7289                 2.8197                 1.4740
 IR Inten    --      6.3289                40.5079                 2.0736

                     73                     74                     75
                      A                      A                      A
 Frequencies --   1527.1122              1527.9192              1532.8175
 Red. masses --      1.9577                 1.1219                 1.1077
 Frc consts  --      2.6899                 1.5431                 1.5334
 IR Inten    --     21.7473                 1.7392                 0.1586

                     76                     77                     78
                      A                      A                      A
 Frequencies --   1612.7740              1625.9182              1644.2871
 Red. masses --      6.8084                 6.7666                 5.2116
 Frc consts  --     10.4337                10.5395                 8.3019
 IR Inten    --    103.7178                 3.1940                95.1671

                     79                     80                     81
                      A                      A                      A
 Frequencies --   1659.3361              1694.8684              2962.7900
 Red. masses --      6.7555                 1.0994                 1.0734
 Frc consts  --     10.9591                 1.8608                 5.5514
 IR Inten    --      0.9301                36.3494                78.2837

                     82                     83                     84
                      A                      A                      A
 Frequencies --   3027.2218              3029.9755              3045.9618
 Red. masses --      1.0701                 1.0696                 1.0873
 Frc consts  --      5.7777                 5.7857                 5.9434
 IR Inten    --     29.4559                25.6828                21.9874

                     85                     86                     87
                      A                      A                      A
 Frequencies --   3063.2760              3090.7684              3094.2703
 Red. masses --      1.0664                 1.0933                 1.0906
 Frc consts  --      5.8956                 6.1536                 6.1524
 IR Inten    --     24.2224                31.3811                42.9619

                     88                     89                     90
                      A                      A                      A
 Frequencies --   3119.2186              3170.8986              3185.2407
 Red. masses --      1.1037                 1.0881                 1.0889
 Frc consts  --      6.3269                 6.4461                 6.5094
 IR Inten    --     42.5378                30.0051                15.4357

                     91                     92                     93
                      A                      A                      A
 Frequencies --   3198.0068              3201.7066              3213.5387
 Red. masses --      1.0942                 1.0912                 1.0934
 Frc consts  --      6.5932                 6.5903                 6.6529
 IR Inten    --     30.9524                 4.1676                 7.4643

                     94                     95                     96
                      A                      A                      A
 Frequencies --   3254.8744              3474.8492              3563.4749
 Red. masses --      1.0899                 1.0500                 1.0928
 Frc consts  --      6.8033                 7.4700                 8.1757
 IR Inten    --      1.0186                 0.3820                 0.1778

 - Thermochemistry -
 -------------------
 Temperature   298.150 Kelvin.  Pressure   1.00000 Atm.
 Atom     1 has atomic number  6 and mass  12.00000

 Molecular mass:   256.10342 amu.
 Principal axes and moments of inertia in atomic units:
                           1         2         3
     Eigenvalues --  2767.131207944.564329428.10573
           X            0.99997  -0.00620  -0.00405
           Y            0.00621   0.99998   0.00238
           Z            0.00403  -0.00240   0.99999
 This molecule is an asymmetric top.
 Rotational symmetry number  1.
 Warning -- assumption of classical behavior for rotation
           may cause significant error
 Rotational temperatures (Kelvin)      0.03130     0.01090     0.00919
 Rotational constants (GHZ):           0.65221     0.22717     0.19142
 Zero-point vibrational energy     738310.7 (Joules/Mol)
                                  176.46050 (Kcal/Mol)
 Warning -- explicit consideration of  24 degrees of freedom as
           vibrations may cause significant error
 Vibrational temperatures:     21.89    32.73    49.15    92.42   159.86
          (Kelvin)            205.38   226.87   247.08   285.41   331.29
                              338.23   408.74   426.25   450.92   583.71
                              598.87   621.97   626.91   643.31   658.05
                              776.21   806.65   823.72   860.04   909.79
                              977.93  1042.12  1054.59  1079.26  1114.31
                             1192.65  1203.95  1246.43  1257.41  1271.27
                             1278.01  1302.96  1321.22  1331.73  1335.63
                             1382.09  1401.53  1449.10  1463.46  1466.69
                             1545.94  1556.53  1589.13  1613.86  1626.65
                             1659.31  1672.43  1709.82  1715.53  1743.28
                             1781.22  1794.08  1809.92  1860.64  1869.63
                             1892.53  1908.34  1919.46  1926.04  1954.64
                             1968.53  2040.81  2082.39  2089.81  2170.31
                             2171.73  2173.71  2197.17  2198.34  2205.38
                             2320.42  2339.33  2365.76  2387.41  2438.54
                             4262.79  4355.50  4359.46  4382.46  4407.37
                             4446.93  4451.96  4487.86  4562.22  4582.85
                             4601.22  4606.54  4623.57  4683.04  4999.53
                             5127.05

 Zero-point correction=                           0.281208 (Hartree/Particle)
 Thermal correction to Energy=                    0.297177
 Thermal correction to Enthalpy=                  0.298121
 Thermal correction to Gibbs Free Energy=         0.235077
 Sum of electronic and zero-point Energies=          -1088.716454
 Sum of electronic and thermal Energies=             -1088.700485
 Sum of electronic and thermal Enthalpies=           -1088.699540
 Sum of electronic and thermal Free Energies=        -1088.762585

                     E (Thermal)             CV                S
                      KCal/Mol        Cal/Mol-Kelvin    Cal/Mol-Kelvin
 Total                  186.481             61.719            132.689
 Electronic               0.000              0.000              0.000
 Translational            0.889              2.981             42.521
 Rotational               0.889              2.981             33.693
 Vibrational            184.704             55.758             56.474
 Vibration     1          0.593              1.986              7.178
 Vibration     2          0.593              1.985              6.378
 Vibration     3          0.594              1.983              5.572
 Vibration     4          0.597              1.971              4.323
 Vibration     5          0.607              1.940              3.249
 Vibration     6          0.616              1.910              2.767
 Vibration     7          0.621              1.894              2.577
 Vibration     8          0.626              1.877              2.416
 Vibration     9          0.637              1.842              2.148
 Vibration    10          0.652              1.795              1.877
 Vibration    11          0.655              1.787              1.840
 Vibration    12          0.682              1.703              1.509
 Vibration    13          0.690              1.681              1.438
 Vibration    14          0.701              1.648              1.344
 Vibration    15          0.771              1.458              0.942
 Vibration    16          0.779              1.435              0.905
 Vibration    17          0.793              1.400              0.851
 Vibration    18          0.796              1.392              0.840
 Vibration    19          0.806              1.367              0.805
 Vibration    20          0.815              1.345              0.774
 Vibration    21          0.895              1.163              0.566
 Vibration    22          0.916              1.116              0.523
 Vibration    23          0.929              1.091              0.499
 Vibration    24          0.956              1.037              0.454

                           ! Non-Optimized Parameters !
 Normal termination of Gaussian 16 at Fri Dec 11 21:37:41 2020.

 ----------------------------------------------------------------------
 # B3LYP/6-311++G(d,p) empiricaldispersion=gd3bj scf=xqc pop=npa geom=c
 heck
 ----------------------------------------------------------------------

 --------------------------------------
 CID_43528986_JID_8613_Energie_neutraal
 --------------------------------------
 Structure from the checkpoint file:  "JID_8613.chk"
 Charge =  0 Multiplicity = 1

 SCF Done:  E(RB3LYP) =  -1089.20634955     A.U. after   16 cycles
 Normal termination of Gaussian 16 at Fri Dec 11 21:45:17 2020.

 ----------------------------------------------------------------------
 # B3LYP/6-311++G(d,p) empiricaldispersion=gd3bj scf=xqc pop=npa geom=c
 heck
 ----------------------------------------------------------------------

 ------------------------------------
 CID_43528986_JID_8613_Energie_kation
 ------------------------------------
 Structure from the checkpoint file:  "JID_8613.chk"
 Charge =  1 Multiplicity = 2

 SCF Done:  E(UB3LYP) =  -1088.92350404     A.U. after   33 cycles
 SCF Done:  E(UB3LYP) =  -1088.92350404     a.u. after    1 cycles
 Normal termination of Gaussian 16 at Fri Dec 11 22:07:27 2020.
 Gaussian 16:  ES64L-G16RevA.03 25-Dec-2016

 ----------------------------------------------------------------------
 # B3LYP/6-311++G(d,p) empiricaldispersion=gd3bj scf=xqc pop=npa geom=c
 heck
 ----------------------------------------------------------------------

 -----------------------------------
 CID_43528986_JID_8613_Energie_anion
 -----------------------------------
 Structure from the checkpoint file:  "JID_8613.chk"
 Charge = -1 Multiplicity = 2

                         Standard orientation:
 ---------------------------------------------------------------------
 Center     Atomic      Atomic             Coordinates (Angstroms)
 Number     Number       Type             X           Y           Z
 ---------------------------------------------------------------------
      1          6           0        4.770693    0.733557   -0.871864
      2          6           0        4.286478    0.928041    0.586451
      3          6           0        3.017417    0.106206    0.636840
      4          6           0        2.558894   -0.163125   -0.660897
      5          6           0        3.482932    0.456846   -1.686769
      6          6           0        1.393058   -0.893871   -0.860657
      7          6           0        0.677803   -1.356323    0.253332
      8          6           0        1.139110   -1.089852    1.549081
      9          6           0        2.311230   -0.355590    1.744153
     10         16           0       -0.817112   -2.314946    0.020918
     11          6           0       -2.071164   -1.041028   -0.104926
     12          7           0       -3.295080   -1.545925   -0.283832
     13          6           0       -4.305554   -0.674783   -0.384116
     14          6           0       -4.147497    0.705384   -0.308852
     15          6           0       -2.859974    1.224299   -0.128534
     16          6           0       -1.796651    0.329696   -0.022270
     17          6           0       -2.632875    2.720714   -0.072280
     18          7           0       -1.392114    3.060433    0.625111
     19          1           0        5.422082   -0.146744   -0.919456
     20          1           0        5.340090    1.587551   -1.249959
     21          1           0        5.031287    0.620078    1.328333
     22          1           0        4.057824    1.985443    0.784643
     23          1           0        3.050535    1.394226   -2.065546
     24          1           0        3.658153   -0.186396   -2.555727
     25          1           0        1.028132   -1.111243   -1.860169
     26          1           0        0.575300   -1.462471    2.398233
     27          1           0        2.665863   -0.154805    2.751999
     28          1           0       -5.293155   -1.110438   -0.525253
     29          1           0       -5.009367    1.362389   -0.385898
     30          1           0       -0.792263    0.704357    0.122101
     31          1           0       -2.543373    3.097696   -1.100539
     32          1           0       -3.538156    3.193480    0.348122
     33          1           0       -1.237167    4.065176    0.582061
     34          1           0       -1.475031    2.818251    1.611270
 ---------------------------------------------------------------------

 SCF Done:  E(UB3LYP) =  -1089.20125884     A.U. after   33 cycles
 SCF Done:  E(UB3LYP) =  -1089.20125884     a.u. after    1 cycles

 The electronic state is 2-A.
 Alpha  occ. eigenvalues --  -88.74099 -14.19137 -14.18534 -10.12257 -10.09633
 Alpha  occ. eigenvalues --  -10.09316 -10.09269 -10.08071 -10.07914 -10.07866
 Alpha  occ. eigenvalues --  -10.07737 -10.07422 -10.07414 -10.07350 -10.06822
 Alpha  occ. eigenvalues --  -10.06713 -10.06560 -10.05863  -7.82710  -5.79095
 Alpha  occ. eigenvalues --   -5.78706  -5.78123  -0.83712  -0.78026  -0.77500
 Alpha  occ. eigenvalues --   -0.72536  -0.69549  -0.68092  -0.65570  -0.63051
 Alpha  occ. eigenvalues --   -0.60304  -0.57946  -0.57371  -0.51995  -0.50818
 Alpha  occ. eigenvalues --   -0.48626  -0.47797  -0.45430  -0.40960  -0.39738
 Alpha  occ. eigenvalues --   -0.38783  -0.38436  -0.37054  -0.36338  -0.35052
 Alpha  occ. eigenvalues --   -0.33827  -0.32351  -0.31652  -0.31538  -0.31209
 Alpha  occ. eigenvalues --   -0.30993  -0.28892  -0.28632  -0.27333  -0.26258
 Alpha  occ. eigenvalues --   -0.25922  -0.25561  -0.24601  -0.23985  -0.23323
 Alpha  occ. eigenvalues --   -0.21648  -0.18603  -0.16871  -0.15756  -0.15024
 Alpha  occ. eigenvalues --   -0.13844  -0.13552  -0.11260   0.04189
 Alpha virt. eigenvalues --    0.06661   0.06735   0.07441   0.07929   0.08275
 Alpha virt. eigenvalues --    0.08495   0.08935   0.09040   0.09443   0.09557
 Alpha virt. eigenvalues --    0.10021   0.10658   0.11114   0.11616   0.11908

  Beta  occ. eigenvalues --  -88.74099 -14.19006 -14.18478 -10.12238 -10.09597
  Beta  occ. eigenvalues --  -10.09277 -10.09257 -10.08064 -10.07911 -10.07860
  Beta  occ. eigenvalues --  -10.07609 -10.07429 -10.07424 -10.07315 -10.06725
  Beta  occ. eigenvalues --  -10.06600 -10.06571 -10.05848  -7.82710  -5.79093
  Beta  occ. eigenvalues --   -5.78708  -5.78123  -0.83531  -0.77912  -0.77394
  Beta  occ. eigenvalues --   -0.72453  -0.69361  -0.67999  -0.65430  -0.62972
  Beta  occ. eigenvalues --   -0.60248  -0.57853  -0.57228  -0.51897  -0.50712
  Beta  occ. eigenvalues --   -0.48548  -0.47659  -0.45360  -0.40887  -0.39672
  Beta  occ. eigenvalues --   -0.38699  -0.38378  -0.36967  -0.36273  -0.34961
  Beta  occ. eigenvalues --   -0.33747  -0.32270  -0.31589  -0.31494  -0.31157
  Beta  occ. eigenvalues --   -0.30790  -0.28749  -0.28394  -0.27195  -0.26147
  Beta  occ. eigenvalues --   -0.25880  -0.25526  -0.24525  -0.23880  -0.23252
  Beta  occ. eigenvalues --   -0.21558  -0.18408  -0.16356  -0.15490  -0.14564
  Beta  occ. eigenvalues --   -0.13686  -0.13361  -0.11124
  Beta virt. eigenvalues --    0.06627   0.07083   0.07449   0.07950   0.08109
  Beta virt. eigenvalues --    0.08517   0.08801   0.09054   0.09135   0.09769
  Beta virt. eigenvalues --    0.09905   0.10264   0.10806   0.11173   0.11755

 Mulliken charges and spin densities:
               1          2
     1  C   -0.389291  -0.001433
     2  C   -0.104375  -0.657265
     3  C    0.422298  -0.285463
     4  C    0.289541  -0.322615
     5  C   -0.455053   0.010248
     6  C   -1.052784   0.528982
     7  C    1.711776  -0.305570
     8  C   -0.642311   0.137965
     9  C   -0.647235   0.597566
    10  S    0.257786  -0.040523
    11  C   -1.664165   0.199597
    12  N    0.036434   0.057896
    13  C    0.005566  -0.026422
    14  C   -0.515537  -0.361634
    15  C    0.329684   0.706187
    16  C   -0.140814   0.429772
    17  C    1.113664  -1.621076
    18  N   -0.418460   0.077281
    19  H    0.114834   0.007746
    20  H    0.005028   0.147375
    21  H    0.171958  -0.042437
    22  H   -0.111896   0.291452
    23  H   -0.086009   0.270584
    24  H    0.165627  -0.026390
    25  H    0.146684   0.025560
    26  H    0.124046   0.038798
    27  H    0.062491   0.086340
    28  H    0.150151   0.009812
    29  H    0.044790   0.070610
    30  H    0.831338  -0.553639
    31  H   -0.285781   0.473414
    32  H   -0.203232   0.358921
    33  H   -0.204799   0.457164
    34  H   -0.061954   0.261198
 Sum of Mulliken charges =  -1.00000   1.00000

 Dipole moment (field-independent basis, Debye):
    X=              2.7404    Y=             -4.3866    Z=              0.3821  Tot=              5.1863
 Quadrupole moment (field-independent basis, Debye-Ang):
   XX=           -158.3496   YY=           -175.3453   ZZ=           -132.3765
   XY=             -5.5480   XZ=             -0.8947   YZ=             -0.2452

 Summary of Natural Population Analysis:

                                       Natural Population
                Natural  -----------------------------------------------
    Atom  No    Charge         Core      Valence    Rydberg      Total
 -----------------------------------------------------------------------
      C    1   -0.18405      0.99965     2.17648    0.00791     3.18405
      C    2   -0.19829      0.99961     2.19074    0.00795     3.19829
      C    3   -0.00414      0.99947     1.99552    0.00916     3.00414
      C    4   -0.01445      0.99946     2.00575    0.00923     3.01445
      C    5   -0.19703      0.99961     2.18948    0.00795     3.19703
      C    6   -0.07659      0.99944     2.06682    0.01034     3.07659
      C    7   -0.09292      0.99941     2.07974    0.01377     3.09292
      C    8   -0.10172      0.99949     2.09152    0.01071     3.10172
      C    9   -0.08424      0.99951     2.07576    0.00897     3.08424
      S   10    0.13609      4.99947     2.84464    0.01980     7.86391
      C   11    0.04398      0.99947     1.93631    0.02025     2.95602
      N   12   -0.23919      0.99966     2.72777    0.01176     3.73919
      C   13    0.03507      0.99959     1.95144    0.01390     2.96493
      C   14   -0.14083      0.99951     2.13141    0.00991     3.14083
      C   15    0.02687      0.99951     1.96375    0.00988     2.97313
      C   16   -0.13749      0.99942     2.12840    0.00966     3.13749
      C   17   -0.09676      0.99959     2.08505    0.01212     3.09676
      N   18   -0.41715      0.99978     2.90661    0.01076     3.91715
      H   19    0.09174      0.00000     0.40724    0.00102     0.40826
      H   20    0.09811      0.00000     0.40092    0.00096     0.40189
      H   21    0.09831      0.00000     0.40080    0.00089     0.40169
      H   22    0.10549      0.00000     0.39290    0.00161     0.39451
      H   23    0.10512      0.00000     0.39358    0.00130     0.39488
      H   24    0.09897      0.00000     0.40013    0.00089     0.40103
      H   25    0.10302      0.00000     0.39570    0.00128     0.39698
      H   26    0.10301      0.00000     0.39603    0.00096     0.39699
      H   27    0.09656      0.00000     0.40222    0.00123     0.40344
      H   28    0.08431      0.00000     0.41455    0.00114     0.41569
      H   29    0.09900      0.00000     0.39993    0.00107     0.40100
      H   30    0.12313      0.00000     0.37422    0.00265     0.37687
      H   31    0.10244      0.00000     0.39528    0.00227     0.39756
      H   32    0.08058      0.00000     0.41787    0.00156     0.41942
      H   33    0.18009      0.00000     0.31433    0.00558     0.31991
      H   34    0.17295      0.00000     0.32484    0.00221     0.32705
 =======================================================================
   * Total *    0.00000     21.99164    45.77772    0.23064    68.00000

 Normal termination of Gaussian 16 at Fri Dec 11 22:30:05 2020.
