 Gaussian 16, Revision A.03,

 -----------------------------------------------------------
 # opt freq B3LYP/6-31G(d) empiricaldispersion=gd3bj scf=xqc
 -----------------------------------------------------------

 -----------------------------
 CID_91229500_JID_738_neutraal
 -----------------------------
 Symbolic Z-matrix:
 Charge =  0 Multiplicity = 1

 SCF Done:  E(RB3LYP) =  -390.726469509     A.U. after   13 cycles
 SCF Done:  E(RB3LYP) =  -390.728629323     A.U. after   12 cycles
 SCF Done:  E(RB3LYP) =  -390.728822407     A.U. after   10 cycles
 SCF Done:  E(RB3LYP) =  -390.728957440     A.U. after   11 cycles
 SCF Done:  E(RB3LYP) =  -390.728985972     A.U. after   10 cycles
 SCF Done:  E(RB3LYP) =  -390.728994564     A.U. after    9 cycles
 SCF Done:  E(RB3LYP) =  -390.728996897     A.U. after    8 cycles
 SCF Done:  E(RB3LYP) =  -390.728997599     A.U. after    7 cycles
 SCF Done:  E(RB3LYP) =  -390.728997669     A.U. after    7 cycles
 Optimization completed.
    -- Stationary point found.
 Normal termination of Gaussian 16 at Tue Dec  8 12:32:37 2020.

 --------------------------------------------------------------------
 #N Geom=AllCheck Guess=TCheck SCRF=Check GenChk RB3LYP/6-31G(d) Freq
 --------------------------------------------------------------------

 Structure from the checkpoint file:  "JID_738.chk"
 -----------------------------
 CID_91229500_JID_738_neutraal
 -----------------------------
 Charge =  0 Multiplicity = 1

 SCF Done:  E(RB3LYP) =  -390.728997669     A.U. after    1 cycles

  Exact polarizability: 119.323  -2.946 105.058   8.212   7.169  83.237
 Approx polarizability: 163.894  -4.811 158.949  17.132  16.734 122.933

                      1                      2                      3
                      A                      A                      A
 Frequencies --     75.0478               123.4879               156.4765
 Red. masses --      2.8612                 2.1029                 1.3127
 Frc consts  --      0.0095                 0.0189                 0.0189
 IR Inten    --      0.0157                 0.1168                 0.6822

                      4                      5                      6
                      A                      A                      A
 Frequencies --    170.7935               196.9556               219.1852
 Red. masses --      1.0885                 2.0139                 2.1780
 Frc consts  --      0.0187                 0.0460                 0.0617
 IR Inten    --      0.8549                 2.3378                 0.0193

                      7                      8                      9
                      A                      A                      A
 Frequencies --    254.7844               272.2175               288.3316
 Red. masses --      2.1818                 2.3983                 1.4804
 Frc consts  --      0.0834                 0.1047                 0.0725
 IR Inten    --      0.5871                 0.1913                 0.4937

                     10                     11                     12
                      A                      A                      A
 Frequencies --    304.9788               358.0123               404.3258
 Red. masses --      1.5616                 2.5912                 2.5521
 Frc consts  --      0.0856                 0.1957                 0.2458
 IR Inten    --      0.3702                 0.2817                 0.5482

                     13                     14                     15
                      A                      A                      A
 Frequencies --    498.0543               527.6711               537.4431
 Red. masses --      4.3946                 3.3108                 3.4067
 Frc consts  --      0.6423                 0.5431                 0.5798
 IR Inten    --      0.8788                 3.5668                 0.3745

                     16                     17                     18
                      A                      A                      A
 Frequencies --    610.8196               665.1298               767.4691
 Red. masses --      2.6498                 3.6322                 1.4097
 Frc consts  --      0.5825                 0.9468                 0.4892
 IR Inten    --      3.3420                 0.0536                 3.3988

                     19                     20                     21
                      A                      A                      A
 Frequencies --    803.7332               843.2507               875.0662
 Red. masses --      1.3153                 1.8568                 1.9052
 Frc consts  --      0.5006                 0.7779                 0.8596
 IR Inten    --     14.2026                 1.7770                 1.7693

                     22                     23                     24
                      A                      A                      A
 Frequencies --    882.6293               909.1600               960.7684
 Red. masses --      1.3580                 2.7694                 2.0122
 Frc consts  --      0.6233                 1.3487                 1.0943
 IR Inten    --      5.2225                 3.0346                 1.0160

                     25                     26                     27
                      A                      A                      A
 Frequencies --    999.4283              1031.2066              1042.8736
 Red. masses --      1.9122                 1.6240                 1.6411
 Frc consts  --      1.1253                 1.0175                 1.0516
 IR Inten    --      3.3734                 5.1394                 1.5468

                     28                     29                     30
                      A                      A                      A
 Frequencies --   1062.0929              1073.3071              1082.1967
 Red. masses --      2.5786                 1.5127                 1.5319
 Frc consts  --      1.7138                 1.0267                 1.0571
 IR Inten    --      1.0282                 4.4505                 1.8842

                     31                     32                     33
                      A                      A                      A
 Frequencies --   1097.7426              1121.4716              1139.9718
 Red. masses --      1.6394                 1.7397                 1.9528
 Frc consts  --      1.1640                 1.2892                 1.4952
 IR Inten    --      2.1651                 3.5605                 0.8893

                     34                     35                     36
                      A                      A                      A
 Frequencies --   1175.3528              1228.6652              1249.9652
 Red. masses --      1.5117                 2.4026                 1.3566
 Frc consts  --      1.2304                 2.1370                 1.2488
 IR Inten    --      1.5314                 5.6329                 2.1029

                     37                     38                     39
                      A                      A                      A
 Frequencies --   1292.6124              1307.0038              1345.7716
 Red. masses --      1.5763                 1.2851                 1.3052
 Frc consts  --      1.5517                 1.2934                 1.3927
 IR Inten    --      0.0448                 0.4003                 2.9088

                     40                     41                     42
                      A                      A                      A
 Frequencies --   1368.1506              1389.6728              1406.3369
 Red. masses --      1.4529                 1.3819                 1.9619
 Frc consts  --      1.6024                 1.5724                 2.2861
 IR Inten    --      3.9362                 0.2575                 1.3495

                     43                     44                     45
                      A                      A                      A
 Frequencies --   1420.7281              1437.4404              1442.2402
 Red. masses --      1.7016                 1.2532                 1.2688
 Frc consts  --      2.0236                 1.5257                 1.5550
 IR Inten    --      1.9426                 3.9611                 2.1535

                     46                     47                     48
                      A                      A                      A
 Frequencies --   1445.4645              1500.9323              1505.7111
 Red. masses --      1.3029                 1.0914                 1.0484
 Frc consts  --      1.6039                 1.4486                 1.4004
 IR Inten    --      1.1447                 1.9188                 6.0045

                     49                     50                     51
                      A                      A                      A
 Frequencies --   1509.0649              1519.3715              1520.2354
 Red. masses --      1.0451                 1.0702                 1.0715
 Frc consts  --      1.4022                 1.4556                 1.4590
 IR Inten    --      5.2397                 1.2241                 7.3487

                     52                     53                     54
                      A                      A                      A
 Frequencies --   1523.8645              1532.4851              1543.9416
 Red. masses --      1.0636                 1.0540                 1.0535
 Frc consts  --      1.4552                 1.4585                 1.4796
 IR Inten    --      6.9633                 1.5367                 5.9319

                     55                     56                     57
                      A                      A                      A
 Frequencies --   1684.1935              1743.5605              2988.1091
 Red. masses --      6.7303                 6.2997                 1.0714
 Frc consts  --     11.2479                11.2836                 5.6363
 IR Inten    --      3.3759                10.1514                40.5629

                     58                     59                     60
                      A                      A                      A
 Frequencies --   3026.2725              3030.1993              3030.6827
 Red. masses --      1.0688                 1.0535                 1.0450
 Frc consts  --      5.7670                 5.6992                 5.6554
 IR Inten    --      3.4947                52.5081                45.5798

                     61                     62                     63
                      A                      A                      A
 Frequencies --   3033.0547              3044.1020              3065.7435
 Red. masses --      1.0627                 1.0385                 1.0892
 Frc consts  --      5.7598                 5.6700                 6.0314
 IR Inten    --     33.5806                30.2662                34.8337

                     64                     65                     66
                      A                      A                      A
 Frequencies --   3076.7247              3081.9762              3084.3181
 Red. masses --      1.1000                 1.0961                 1.0913
 Frc consts  --      6.1353                 6.1344                 6.1166
 IR Inten    --     24.8843                15.2504                25.7053

                     67                     68                     69
                      A                      A                      A
 Frequencies --   3107.4589              3120.3649              3123.2116
 Red. masses --      1.1007                 1.1020                 1.0998
 Frc consts  --      6.2625                 6.3218                 6.3207
 IR Inten    --     45.3633                57.8467                20.4955

                     70                     71                     72
                      A                      A                      A
 Frequencies --   3124.0598              3154.2115              3173.3032
 Red. masses --      1.1014                 1.0893                 1.0906
 Frc consts  --      6.3336                 6.3855                 6.4703
 IR Inten    --      9.7166                32.1255                22.6520

 - Thermochemistry -
 -------------------
 Temperature   298.150 Kelvin.  Pressure   1.00000 Atm.
 Atom     1 has atomic number  6 and mass  12.00000

 Molecular mass:   136.12520 amu.
 Principal axes and moments of inertia in atomic units:
                           1         2         3
     Eigenvalues --   981.931331817.245772111.57333
           X            0.99998  -0.00326   0.00517
           Y            0.00325   0.99999   0.00320
           Z           -0.00518  -0.00318   0.99998
 This molecule is an asymmetric top.
 Rotational symmetry number  1.
 Warning -- assumption of classical behavior for rotation
           may cause significant error
 Rotational temperatures (Kelvin)      0.08821     0.04766     0.04102
 Rotational constants (GHZ):           1.83795     0.99312     0.85469
 Zero-point vibrational energy     620339.4 (Joules/Mol)
                                  148.26466 (Kcal/Mol)
 Warning -- explicit consideration of  16 degrees of freedom as
           vibrations may cause significant error
 Vibrational temperatures:    107.98   177.67   225.13   245.73   283.38
          (Kelvin)            315.36   366.58   391.66   414.84   438.80
                              515.10   581.73   716.59   759.20   773.26
                              878.83   956.97  1104.22  1156.39  1213.25
                             1259.03  1269.91  1308.08  1382.33  1437.95
                             1483.68  1500.46  1528.11  1544.25  1557.04
                             1579.41  1613.55  1640.17  1691.07  1767.78
                             1798.42  1859.78  1880.49  1936.27  1968.46
                             1999.43  2023.41  2044.11  2068.16  2075.06
                             2079.70  2159.51  2166.38  2171.21  2186.04
                             2187.28  2192.50  2204.90  2221.39  2423.18
                             2508.59  4299.22  4354.13  4359.78  4360.48
                             4363.89  4379.78  4410.92  4426.72  4434.28
                             4437.65  4470.94  4489.51  4493.60  4494.83
                             4538.21  4565.68

 Zero-point correction=                           0.236275 (Hartree/Particle)
 Thermal correction to Energy=                    0.247136
 Thermal correction to Enthalpy=                  0.248081
 Thermal correction to Gibbs Free Energy=         0.200756
 Sum of electronic and zero-point Energies=           -390.492723
 Sum of electronic and thermal Energies=              -390.481861
 Sum of electronic and thermal Enthalpies=            -390.480917
 Sum of electronic and thermal Free Energies=         -390.528241

                     E (Thermal)             CV                S
                      KCal/Mol        Cal/Mol-Kelvin    Cal/Mol-Kelvin
 Total                  155.080             41.667             99.602
 Electronic               0.000              0.000              0.000
 Translational            0.889              2.981             40.637
 Rotational               0.889              2.981             29.712
 Vibrational            153.303             35.705             29.253
 Vibration     1          0.599              1.966              4.016
 Vibration     2          0.610              1.929              3.045
 Vibration     3          0.620              1.895              2.592
 Vibration     4          0.626              1.878              2.427
 Vibration     5          0.636              1.844              2.161
 Vibration     6          0.647              1.812              1.966
 Vibration     7          0.665              1.755              1.697
 Vibration     8          0.675              1.725              1.582
 Vibration     9          0.685              1.695              1.484
 Vibration    10          0.696              1.664              1.389
 Vibration    11          0.733              1.559              1.131
 Vibration    12          0.770              1.461              0.947
 Vibration    13          0.854              1.254              0.663
 Vibration    14          0.883              1.189              0.592
 Vibration    15          0.892              1.167              0.571
 Vibration    16          0.970              1.009              0.431

 Optimization completed.
    -- Stationary point found.
 Normal termination of Gaussian 16 at Tue Dec  8 12:43:29 2020.

 ----------------------------------------------------------------------
 # B3LYP/6-311++G(d,p) empiricaldispersion=gd3bj scf=xqc pop=npa geom=c
 heck
 ----------------------------------------------------------------------

 -------------------------------------
 CID_91229500_JID_738_Energie_neutraal
 -------------------------------------
 Structure from the checkpoint file:  "JID_738.chk"
 Charge =  0 Multiplicity = 1

 SCF Done:  E(RB3LYP) =  -390.833678794     A.U. after   13 cycles
 Normal termination of Gaussian 16 at Tue Dec  8 12:52:09 2020.

 ----------------------------------------------------------------------
 # B3LYP/6-311++G(d,p) empiricaldispersion=gd3bj scf=xqc pop=npa geom=c
 heck
 ----------------------------------------------------------------------

 -----------------------------------
 CID_91229500_JID_738_Energie_kation
 -----------------------------------
 Structure from the checkpoint file:  "JID_738.chk"
 Charge =  1 Multiplicity = 2

 SCF Done:  E(UB3LYP) =  -390.558396119     A.U. after   16 cycles
 Normal termination of Gaussian 16 at Tue Dec  8 13:04:41 2020.
 Gaussian 16:  ES64L-G16RevA.03 25-Dec-2016

 ----------------------------------------------------------------------
 # B3LYP/6-311++G(d,p) empiricaldispersion=gd3bj scf=xqc pop=npa geom=c
 heck
 ----------------------------------------------------------------------

 ----------------------------------
 CID_91229500_JID_738_Energie_anion
 ----------------------------------
 Structure from the checkpoint file:  "JID_738.chk"
 Charge = -1 Multiplicity = 2

                         Standard orientation:
 ---------------------------------------------------------------------
 Center     Atomic      Atomic             Coordinates (Angstroms)
 Number     Number       Type             X           Y           Z
 ---------------------------------------------------------------------
      1          6           0       -2.606256   -0.533665    1.267036
      2          6           0       -1.423949   -1.208386    0.569937
      3          6           0       -0.890364   -0.484580   -0.690275
      4          6           0        0.292791   -1.267795   -1.289183
      5          6           0        1.550847   -1.086175   -0.474931
      6          6           0        1.784662    0.068096    0.174158
      7          6           0        0.796012    1.151477    0.066272
      8          6           0       -0.455498    0.942962   -0.381697
      9          6           0       -1.439446    2.058901   -0.587758
     10          6           0        3.035680    0.327506    0.969712
     11          1           0       -2.320069    0.432566    1.694821
     12          1           0       -2.979567   -1.157744    2.086807
     13          1           0       -3.439552   -0.363912    0.573721
     14          1           0       -0.596329   -1.319074    1.280563
     15          1           0       -1.713948   -2.224706    0.268659
     16          1           0       -1.702980   -0.456839   -1.429400
     17          1           0        0.029527   -2.330308   -1.362251
     18          1           0        0.479498   -0.925261   -2.320925
     19          1           0        2.285349   -1.888534   -0.456787
     20          1           0        1.114553    2.156249    0.341935
     21          1           0       -2.374247    1.889926   -0.040187
     22          1           0       -1.026520    3.022798   -0.272534
     23          1           0       -1.714730    2.139794   -1.648986
     24          1           0        3.577736    1.200088    0.580408
     25          1           0        2.801154    0.546461    2.019992
     26          1           0        3.713242   -0.531552    0.944538
 ---------------------------------------------------------------------

 SCF Done:  E(UB3LYP) =  -390.815478063     A.U. after   33 cycles
 SCF Done:  E(UB3LYP) =  -390.815478063     a.u. after    1 cycles

 The electronic state is 2-A.
 Alpha  occ. eigenvalues --  -10.06209 -10.06115 -10.06010 -10.05858 -10.05536
 Alpha  occ. eigenvalues --  -10.05351 -10.05129 -10.04788 -10.04655 -10.04633
 Alpha  occ. eigenvalues --   -0.73948  -0.67794  -0.65306  -0.62781  -0.57681
 Alpha  occ. eigenvalues --   -0.56726  -0.50903  -0.47956  -0.44644  -0.38423
 Alpha  occ. eigenvalues --   -0.35308  -0.34483  -0.33297  -0.31824  -0.31426
 Alpha  occ. eigenvalues --   -0.30327  -0.29396  -0.28856  -0.28566  -0.27301
 Alpha  occ. eigenvalues --   -0.26081  -0.24056  -0.23319  -0.22317  -0.20682
 Alpha  occ. eigenvalues --   -0.19600  -0.17670  -0.09569   0.04963
 Alpha virt. eigenvalues --    0.07118   0.07585   0.07998   0.08483   0.09504
 Alpha virt. eigenvalues --    0.09621   0.10409   0.10624   0.11170   0.12315
 Alpha virt. eigenvalues --    0.12374   0.13190   0.13344   0.14062   0.14730

  Beta  occ. eigenvalues --  -10.06156 -10.06105 -10.05994 -10.05837 -10.05521
  Beta  occ. eigenvalues --  -10.05325 -10.05106 -10.04759 -10.04615 -10.04610
  Beta  occ. eigenvalues --   -0.73876  -0.67736  -0.65232  -0.62730  -0.57622
  Beta  occ. eigenvalues --   -0.56652  -0.50835  -0.47866  -0.44545  -0.38364
  Beta  occ. eigenvalues --   -0.35251  -0.34410  -0.33240  -0.31773  -0.31374
  Beta  occ. eigenvalues --   -0.30279  -0.29344  -0.28804  -0.28517  -0.27259
  Beta  occ. eigenvalues --   -0.26031  -0.24000  -0.23268  -0.22258  -0.20636
  Beta  occ. eigenvalues --   -0.19545  -0.17503  -0.09372
  Beta virt. eigenvalues --    0.07146   0.07847   0.08237   0.08641   0.08916
  Beta virt. eigenvalues --    0.10057   0.10262   0.10786   0.11004   0.11720
  Beta virt. eigenvalues --    0.12664   0.12851   0.13425   0.13766   0.14504

 Mulliken charges and spin densities:
               1          2
     1  C    0.667620  -1.394112
     2  C    0.254434  -0.624398
     3  C   -1.842279   2.663786
     4  C    1.458396  -2.259291
     5  C   -1.347665   1.044155
     6  C    1.097926  -0.714849
     7  C   -2.545150   2.031955
     8  C    0.036994   0.217661
     9  C    2.197694  -2.740341
    10  C    2.005896  -2.608429
    11  H    0.060537   0.085815
    12  H   -0.210460   0.345012
    13  H   -0.258223   0.401354
    14  H    0.046312   0.101905
    15  H   -0.280295   0.410342
    16  H   -0.475949   0.700959
    17  H   -0.212589   0.357604
    18  H   -0.006738   0.149515
    19  H   -0.474643   0.633619
    20  H   -0.244148   0.400112
    21  H    0.158426  -0.015500
    22  H   -0.357586   0.490619
    23  H   -0.386574   0.554987
    24  H   -0.029770   0.162117
    25  H   -0.062234   0.217203
    26  H   -0.249933   0.388201
 Sum of Mulliken charges =  -1.00000   1.00000

 Dipole moment (field-independent basis, Debye):
    X=              1.7120    Y=              0.7435    Z=              1.2257  Tot=              2.2330
 Quadrupole moment (field-independent basis, Debye-Ang):
   XX=           -118.1846   YY=           -106.4930   ZZ=            -99.0814
   XY=             -0.1679   XZ=             -5.2197   YZ=              4.3934

 Summary of Natural Population Analysis:

                                       Natural Population
                Natural  -----------------------------------------------
    Atom  No    Charge         Core      Valence    Rydberg      Total
 -----------------------------------------------------------------------
      C    1   -0.28406      0.99967     2.28005    0.00435     3.28406
      C    2   -0.18544      0.99962     2.17664    0.00918     3.18544
      C    3   -0.11951      0.99955     2.10737    0.01259     3.11951
      C    4   -0.19985      0.99961     2.18990    0.01034     3.19985
      C    5   -0.08513      0.99947     2.07583    0.00982     3.08513
      C    6   -0.02649      0.99948     2.01736    0.00966     3.02649
      C    7   -0.12147      0.99941     2.11148    0.01057     3.12147
      C    8    0.02506      0.99949     1.96304    0.01240     2.97494
      C    9   -0.29706      0.99961     2.29088    0.00657     3.29706
      C   10   -0.28820      0.99963     2.28348    0.00509     3.28820
      H   11    0.09621      0.00000     0.40260    0.00118     0.40379
      H   12    0.09738      0.00000     0.40161    0.00101     0.40262
      H   13    0.09530      0.00000     0.40324    0.00146     0.40470
      H   14    0.09870      0.00000     0.39962    0.00168     0.40130
      H   15    0.09454      0.00000     0.40387    0.00159     0.40546
      H   16    0.10144      0.00000     0.39594    0.00262     0.39856
      H   17    0.10102      0.00000     0.39763    0.00134     0.39898
      H   18    0.10286      0.00000     0.39561    0.00153     0.39714
      H   19    0.09306      0.00000     0.40583    0.00111     0.40694
      H   20    0.09467      0.00000     0.40400    0.00133     0.40533
      H   21    0.10233      0.00000     0.39620    0.00146     0.39767
      H   22    0.09947      0.00000     0.39948    0.00105     0.40053
      H   23    0.10622      0.00000     0.39149    0.00229     0.39378
      H   24    0.09829      0.00000     0.40028    0.00143     0.40171
      H   25    0.09990      0.00000     0.39851    0.00159     0.40010
      H   26    0.10075      0.00000     0.39801    0.00123     0.39925
 =======================================================================
   * Total *   -0.00000      9.99555    27.88995    0.11450    38.00000

 Normal termination of Gaussian 16 at Tue Dec  8 13:17:27 2020.
