 Gaussian 16, Revision A.03,

 -----------------------------------------------------------
 # opt freq B3LYP/6-31G(d) empiricaldispersion=gd3bj scf=xqc
 -----------------------------------------------------------

 -------------------------------
 CID_150283008_JID_6439_neutraal
 -------------------------------
 Symbolic Z-matrix:
 Charge =  0 Multiplicity = 1

 SCF Done:  E(RB3LYP) =  -746.540512630     A.U. after   16 cycles
 SCF Done:  E(RB3LYP) =  -746.542642230     A.U. after   15 cycles
 SCF Done:  E(RB3LYP) =  -746.544760956     A.U. after   13 cycles
 SCF Done:  E(RB3LYP) =  -746.544600750     A.U. after   13 cycles
 SCF Done:  E(RB3LYP) =  -746.545521541     A.U. after   14 cycles
 SCF Done:  E(RB3LYP) =  -746.545975540     A.U. after   13 cycles
 SCF Done:  E(RB3LYP) =  -746.545871028     A.U. after   13 cycles
 SCF Done:  E(RB3LYP) =  -746.546337815     A.U. after   13 cycles
 SCF Done:  E(RB3LYP) =  -746.546564119     A.U. after   13 cycles
 SCF Done:  E(RB3LYP) =  -746.546648957     A.U. after   11 cycles
 SCF Done:  E(RB3LYP) =  -746.546672411     A.U. after   11 cycles
 SCF Done:  E(RB3LYP) =  -746.546675535     A.U. after   10 cycles
 SCF Done:  E(RB3LYP) =  -746.546676646     A.U. after    8 cycles
 SCF Done:  E(RB3LYP) =  -746.546676918     A.U. after    8 cycles
 SCF Done:  E(RB3LYP) =  -746.546676986     A.U. after    7 cycles
 Optimization completed.
    -- Stationary point found.
 Normal termination of Gaussian 16 at Thu Dec 10 22:53:52 2020.

 --------------------------------------------------------------------
 #N Geom=AllCheck Guess=TCheck SCRF=Check GenChk RB3LYP/6-31G(d) Freq
 --------------------------------------------------------------------

 Structure from the checkpoint file:  "JID_6439.chk"
 -------------------------------
 CID_150283008_JID_6439_neutraal
 -------------------------------
 Charge =  0 Multiplicity = 1

 SCF Done:  E(RB3LYP) =  -746.546676986     A.U. after    1 cycles

  Exact polarizability: 155.087  13.126 125.925  10.693   6.579 131.825
 Approx polarizability: 204.375  23.020 180.095  36.346  25.235 237.556

                      1                      2                      3
                      A                      A                      A
 Frequencies --     26.8169                35.4925                42.9664
 Red. masses --      3.3803                 4.9960                 4.4900
 Frc consts  --      0.0014                 0.0037                 0.0049
 IR Inten    --      0.1663                 0.8889                 1.7307

                      4                      5                      6
                      A                      A                      A
 Frequencies --     58.6389                75.6020                93.5879
 Red. masses --      3.1401                 9.3321                 6.6687
 Frc consts  --      0.0064                 0.0314                 0.0344
 IR Inten    --      0.4192                 0.5228                 0.4855

                      7                      8                      9
                      A                      A                      A
 Frequencies --    102.6928               114.8272               163.2688
 Red. masses --      3.1796                 3.6465                 3.2169
 Frc consts  --      0.0198                 0.0283                 0.0505
 IR Inten    --      0.7007                 0.0950                 0.2778

                     10                     11                     12
                      A                      A                      A
 Frequencies --    186.3196               218.2435               221.3008
 Red. masses --      2.1748                 1.0880                 3.2912
 Frc consts  --      0.0445                 0.0305                 0.0950
 IR Inten    --      0.6509                 0.0332                 4.2270

                     13                     14                     15
                      A                      A                      A
 Frequencies --    248.9777               256.1142               271.3752
 Red. masses --      1.7284                 1.7660                 1.2534
 Frc consts  --      0.0631                 0.0683                 0.0544
 IR Inten    --      1.6936                 0.5189                 1.8493

                     16                     17                     18
                      A                      A                      A
 Frequencies --    276.4472               283.3315               292.4866
 Red. masses --      1.3899                 2.1523                 3.1523
 Frc consts  --      0.0626                 0.1018                 0.1589
 IR Inten    --      0.7723                 1.3108                 6.4682

                     19                     20                     21
                      A                      A                      A
 Frequencies --    323.0421               353.1814               374.1101
 Red. masses --      2.1821                 2.4094                 2.5566
 Frc consts  --      0.1342                 0.1771                 0.2108
 IR Inten    --      4.9300                 2.8643                 0.9297

                     22                     23                     24
                      A                      A                      A
 Frequencies --    384.3249               409.5497               429.9191
 Red. masses --      2.5994                 2.4524                 2.0981
 Frc consts  --      0.2262                 0.2424                 0.2285
 IR Inten    --      4.1332                 0.8095                 3.4042

                     25                     26                     27
                      A                      A                      A
 Frequencies --    463.7627               550.1223               556.7385
 Red. masses --      3.0371                 2.9575                 3.3052
 Frc consts  --      0.3849                 0.5273                 0.6036
 IR Inten    --      4.4987                 1.3752                 3.9174

                     28                     29                     30
                      A                      A                      A
 Frequencies --    561.1717               641.7807               649.5710
 Red. masses --     13.1340                 4.7968                 4.5006
 Frc consts  --      2.4369                 1.1641                 1.1188
 IR Inten    --     12.8147                 6.4115                 2.3774

                     31                     32                     33
                      A                      A                      A
 Frequencies --    742.6833               756.1459               776.0513
 Red. masses --      2.5717                 3.5567                 2.0562
 Frc consts  --      0.8357                 1.1982                 0.7296
 IR Inten    --     12.3705                 1.8839                 2.2024

                     34                     35                     36
                      A                      A                      A
 Frequencies --    830.7273               859.5087               884.5539
 Red. masses --      1.9460                 3.1447                 2.2830
 Frc consts  --      0.7913                 1.3687                 1.0524
 IR Inten    --      0.4560                14.4321                 3.2742

                     37                     38                     39
                      A                      A                      A
 Frequencies --    924.8484               941.4909               950.4009
 Red. masses --      2.1759                 2.1325                 2.0646
 Frc consts  --      1.0965                 1.1137                 1.0988
 IR Inten    --      9.4101                 0.2416                 1.6021

                     40                     41                     42
                      A                      A                      A
 Frequencies --    955.4860               971.9764               975.6426
 Red. masses --      1.6107                 1.5779                 1.3873
 Frc consts  --      0.8664                 0.8783                 0.7780
 IR Inten    --      2.1311                 4.6589                 0.3873

                     43                     44                     45
                      A                      A                      A
 Frequencies --    981.8035              1026.0664              1032.1781
 Red. masses --      1.6019                 3.0209                 2.0473
 Frc consts  --      0.9098                 1.8738                 1.2851
 IR Inten    --      1.9027                41.4402                 3.7511

                     46                     47                     48
                      A                      A                      A
 Frequencies --   1059.4143              1069.2266              1076.1495
 Red. masses --      1.9801                 1.7024                 2.0027
 Frc consts  --      1.3094                 1.1467                 1.3665
 IR Inten    --     18.3373                 0.6059                47.4072

                     49                     50                     51
                      A                      A                      A
 Frequencies --   1101.0147              1144.0307              1170.3211
 Red. masses --      1.4791                 1.9061                 2.2402
 Frc consts  --      1.0564                 1.4698                 1.8078
 IR Inten    --      0.2903                65.4867                 1.7086

                     52                     53                     54
                      A                      A                      A
 Frequencies --   1241.0475              1250.2093              1257.8626
 Red. masses --      1.8413                 1.4613                 2.5262
 Frc consts  --      1.6709                 1.3457                 2.3550
 IR Inten    --    117.7921                27.7519                 0.9236

                     55                     56                     57
                      A                      A                      A
 Frequencies --   1265.6785              1286.4879              1299.9509
 Red. masses --      1.7271                 1.8484                 1.4015
 Frc consts  --      1.6301                 1.8024                 1.3954
 IR Inten    --     10.8362               101.4711                11.5895

                     58                     59                     60
                      A                      A                      A
 Frequencies --   1307.4977              1325.9210              1353.1228
 Red. masses --      2.6123                 1.4123                 1.3733
 Frc consts  --      2.6312                 1.4629                 1.4815
 IR Inten    --     18.1072                 6.4004                24.6045

                     61                     62                     63
                      A                      A                      A
 Frequencies --   1357.5903              1376.7226              1402.0440
 Red. masses --      1.3384                 2.8419                 1.5243
 Frc consts  --      1.4534                 3.1736                 1.7654
 IR Inten    --      1.1787               129.5308                 1.5050

                     64                     65                     66
                      A                      A                      A
 Frequencies --   1404.0271              1421.9615              1424.2624
 Red. masses --      1.3388                 1.3514                 1.4501
 Frc consts  --      1.5549                 1.6099                 1.7332
 IR Inten    --     12.3807                 3.2367                12.8628

                     67                     68                     69
                      A                      A                      A
 Frequencies --   1428.2047              1429.4232              1444.4413
 Red. masses --      1.2579                 1.2610                 1.2473
 Frc consts  --      1.5118                 1.5180                 1.5333
 IR Inten    --      8.8495                10.6766                 4.3945

                     70                     71                     72
                      A                      A                      A
 Frequencies --   1461.1225              1507.6271              1509.6423
 Red. masses --      1.2314                 1.0751                 1.0490
 Frc consts  --      1.5489                 1.4398                 1.4086
 IR Inten    --      4.3170                11.6891                 0.8561

                     73                     74                     75
                      A                      A                      A
 Frequencies --   1513.1960              1514.9047              1518.8513
 Red. masses --      1.0732                 1.0792                 1.0480
 Frc consts  --      1.4479                 1.4593                 1.4244
 IR Inten    --      0.8697                 2.3221                 1.6276

                     76                     77                     78
                      A                      A                      A
 Frequencies --   1520.7828              1529.8272              1532.9880
 Red. masses --      1.0561                 1.0557                 1.0530
 Frc consts  --      1.4390                 1.4557                 1.4580
 IR Inten    --      2.0107                 6.7957                 7.8473

                     79                     80                     81
                      A                      A                      A
 Frequencies --   1536.9308              1539.7182              1541.7254
 Red. masses --      1.0597                 1.0658                 1.0738
 Frc consts  --      1.4748                 1.4887                 1.5038
 IR Inten    --      5.3337                 8.9738                 6.9851

                     82                     83                     84
                      A                      A                      A
 Frequencies --   1550.3479              1816.1378              2266.2389
 Red. masses --      1.0643                11.3630                13.6073
 Frc consts  --      1.5072                22.0821                41.1751
 IR Inten    --     13.9874               171.6971               415.3745

                     85                     86                     87
                      A                      A                      A
 Frequencies --   3040.8918              3041.9472              3045.4985
 Red. masses --      1.0349                 1.0819                 1.0353
 Frc consts  --      5.6382                 5.8983                 5.6578
 IR Inten    --     27.1072                 6.9505                27.2233

                     88                     89                     90
                      A                      A                      A
 Frequencies --   3046.8581              3053.3085              3057.2741
 Red. masses --      1.0374                 1.0362                 1.0595
 Frc consts  --      5.6742                 5.6917                 5.8347
 IR Inten    --     19.0288                14.9407                26.1118

                     91                     92                     93
                      A                      A                      A
 Frequencies --   3066.6419              3070.8619              3090.8161
 Red. masses --      1.0630                 1.0643                 1.0587
 Frc consts  --      5.8902                 5.9136                 5.9590
 IR Inten    --     27.1259                27.6143                18.3384

                     94                     95                     96
                      A                      A                      A
 Frequencies --   3092.4347              3105.0228              3106.4256
 Red. masses --      1.1001                 1.1056                 1.1025
 Frc consts  --      6.1983                 6.2800                 6.2686
 IR Inten    --      1.8178                23.7467                 7.4996

                     97                     98                     99
                      A                      A                      A
 Frequencies --   3110.0634              3113.3420              3115.7364
 Red. masses --      1.1020                 1.1022                 1.1019
 Frc consts  --      6.2800                 6.2945                 6.3025
 IR Inten    --     31.9029                 9.5640                56.5283

                    100                    101                    102
                      A                      A                      A
 Frequencies --   3117.1193              3119.3909              3122.4905
 Red. masses --      1.1014                 1.1009                 1.1025
 Frc consts  --      6.3053                 6.3116                 6.3332
 IR Inten    --     51.1213                47.6240                10.6847

                    103                    104                    105
                      A                      A                      A
 Frequencies --   3126.7927              3128.5701              3152.5807
 Red. masses --      1.1016                 1.1021                 1.1080
 Frc consts  --      6.3453                 6.3558                 6.4880
 IR Inten    --     40.5684                33.3362                 9.7745

 - Thermochemistry -
 -------------------
 Temperature   298.150 Kelvin.  Pressure   1.00000 Atm.
 Atom     1 has atomic number  6 and mass  12.00000

 Molecular mass:   227.16338 amu.
 Principal axes and moments of inertia in atomic units:
                           1         2         3
     Eigenvalues --  2422.853915217.086225844.09658
           X            0.99969   0.02493  -0.00242
           Y           -0.02504   0.99739  -0.06769
           Z            0.00072   0.06773   0.99770
 This molecule is an asymmetric top.
 Rotational symmetry number  1.
 Warning -- assumption of classical behavior for rotation
           may cause significant error
 Rotational temperatures (Kelvin)      0.03575     0.01660     0.01482
 Rotational constants (GHZ):           0.74488     0.34593     0.30881
 Zero-point vibrational energy     849085.7 (Joules/Mol)
                                  202.93636 (Kcal/Mol)
 Warning -- explicit consideration of  28 degrees of freedom as
           vibrations may cause significant error
 Vibrational temperatures:     38.58    51.07    61.82    84.37   108.77
          (Kelvin)            134.65   147.75   165.21   234.91   268.07
                              314.00   318.40   358.22   368.49   390.45
                              397.75   407.65   420.82   464.79   508.15
                              538.26   552.96   589.25   618.56   667.25
                              791.50   801.02   807.40   923.38   934.59
                             1068.56  1087.93  1116.56  1195.23  1236.64
                             1272.68  1330.65  1354.60  1367.41  1374.73
                             1398.46  1403.73  1412.60  1476.28  1485.07
                             1524.26  1538.38  1548.34  1584.11  1646.00
                             1683.83  1785.59  1798.77  1809.78  1821.03
                             1850.97  1870.34  1881.20  1907.70  1946.84
                             1953.27  1980.80  2017.23  2020.08  2045.89
                             2049.20  2054.87  2056.62  2078.23  2102.23
                             2169.14  2172.04  2177.15  2179.61  2185.29
                             2188.07  2201.08  2205.63  2211.30  2215.31
                             2218.20  2230.60  2613.02  3260.61  4375.17
                             4376.68  4381.79  4383.75  4393.03  4398.74
                             4412.21  4418.29  4447.00  4449.32  4467.44
                             4469.45  4474.69  4479.40  4482.85  4484.84
                             4488.11  4492.57  4498.76  4501.31  4535.86

 Zero-point correction=                           0.323400 (Hartree/Particle)
 Thermal correction to Energy=                    0.341914
 Thermal correction to Enthalpy=                  0.342858
 Thermal correction to Gibbs Free Energy=         0.275889
 Sum of electronic and zero-point Energies=           -746.223277
 Sum of electronic and thermal Energies=              -746.204763
 Sum of electronic and thermal Enthalpies=            -746.203819
 Sum of electronic and thermal Free Energies=         -746.270788

                     E (Thermal)             CV                S
                      KCal/Mol        Cal/Mol-Kelvin    Cal/Mol-Kelvin
 Total                  214.554             67.530            140.949
 Electronic               0.000              0.000              0.000
 Translational            0.889              2.981             42.164
 Rotational               0.889              2.981             32.668
 Vibrational            212.777             61.568             66.116
 Vibration     1          0.593              1.984              6.052
 Vibration     2          0.594              1.982              5.496
 Vibration     3          0.595              1.980              5.117
 Vibration     4          0.596              1.974              4.502
 Vibration     5          0.599              1.965              4.002
 Vibration     6          0.603              1.954              3.584
 Vibration     7          0.605              1.947              3.403
 Vibration     8          0.608              1.937              3.186
 Vibration     9          0.623              1.888              2.512
 Vibration    10          0.632              1.859              2.264
 Vibration    11          0.646              1.813              1.974
 Vibration    12          0.648              1.809              1.948
 Vibration    13          0.662              1.764              1.738
 Vibration    14          0.666              1.752              1.688
 Vibration    15          0.675              1.726              1.587
 Vibration    16          0.678              1.717              1.556
 Vibration    17          0.682              1.705              1.513
 Vibration    18          0.688              1.688              1.460
 Vibration    19          0.708              1.629              1.295
 Vibration    20          0.729              1.569              1.152
 Vibration    21          0.745              1.525              1.063
 Vibration    22          0.753              1.504              1.022
 Vibration    23          0.774              1.449              0.928
 Vibration    24          0.791              1.405              0.859
 Vibration    25          0.821              1.330              0.755
 Vibration    26          0.905              1.139              0.544
 Vibration    27          0.912              1.125              0.530
 Vibration    28          0.917              1.115              0.521

                           ! Non-Optimized Parameters !
 Normal termination of Gaussian 16 at Thu Dec 10 23:07:25 2020.

 ----------------------------------------------------------------------
 # B3LYP/6-311++G(d,p) empiricaldispersion=gd3bj scf=xqc pop=npa geom=c
 heck
 ----------------------------------------------------------------------

 ---------------------------------------
 CID_150283008_JID_6439_Energie_neutraal
 ---------------------------------------
 Structure from the checkpoint file:  "JID_6439.chk"
 Charge =  0 Multiplicity = 1

 SCF Done:  E(RB3LYP) =  -746.758083682     A.U. after   15 cycles
 Normal termination of Gaussian 16 at Thu Dec 10 23:13:09 2020.

 ----------------------------------------------------------------------
 # B3LYP/6-311++G(d,p) empiricaldispersion=gd3bj scf=xqc pop=npa geom=c
 heck
 ----------------------------------------------------------------------

 -------------------------------------
 CID_150283008_JID_6439_Energie_kation
 -------------------------------------
 Structure from the checkpoint file:  "JID_6439.chk"
 Charge =  1 Multiplicity = 2

 SCF Done:  E(UB3LYP) =  -746.421959003     A.U. after   29 cycles
 Normal termination of Gaussian 16 at Thu Dec 10 23:28:24 2020.
 Gaussian 16:  ES64L-G16RevA.03 25-Dec-2016

 ----------------------------------------------------------------------
 # B3LYP/6-311++G(d,p) empiricaldispersion=gd3bj scf=xqc pop=npa geom=c
 heck
 ----------------------------------------------------------------------

 ------------------------------------
 CID_150283008_JID_6439_Energie_anion
 ------------------------------------
 Structure from the checkpoint file:  "JID_6439.chk"
 Charge = -1 Multiplicity = 2

                         Standard orientation:
 ---------------------------------------------------------------------
 Center     Atomic      Atomic             Coordinates (Angstroms)
 Number     Number       Type             X           Y           Z
 ---------------------------------------------------------------------
      1          6           0       -2.802950   -2.250449    1.432343
      2          6           0       -1.573578   -1.438411    1.015575
      3          6           0       -1.514931   -1.159072   -0.495010
      4          6           0       -2.737671   -0.398110   -1.059293
      5          6           0       -3.072995    0.913892   -0.349090
      6          7           0       -1.983247    1.907737   -0.506194
      7          7           0       -1.393873    2.241891    0.521512
      8          7           0       -0.772546    2.630403    1.398778
      9          6           0       -0.237049   -0.463552   -0.958977
     10          8           0        0.082138   -0.376046   -2.125001
     11          8           0        0.482111    0.030227    0.071327
     12          6           0        1.712923    0.723354   -0.235205
     13          6           0        2.937027   -0.122472    0.139866
     14          6           0        2.946702   -1.432153   -0.664793
     15          6           0        4.182874    0.709984   -0.206530
     16          6           0        2.915631   -0.431807    1.645377
     17          1           0       -3.736175   -1.699131    1.271236
     18          1           0       -2.754690   -2.507835    2.495591
     19          1           0       -2.870959   -3.186851    0.865098
     20          1           0       -1.534380   -0.498783    1.576984
     21          1           0       -0.665884   -1.982515    1.299572
     22          1           0       -1.497413   -2.122722   -1.021581
     23          1           0       -2.554390   -0.196462   -2.119192
     24          1           0       -3.622627   -1.042278   -1.000871
     25          1           0       -3.965245    1.352748   -0.807258
     26          1           0       -3.292128    0.748000    0.711924
     27          1           0        1.714749    0.975045   -1.297559
     28          1           0        1.678249    1.637850    0.363107
     29          1           0        2.907654   -1.238196   -1.741664
     30          1           0        3.855610   -2.005240   -0.448409
     31          1           0        2.088129   -2.061100   -0.406740
     32          1           0        4.190118    1.662467    0.337166
     33          1           0        5.094253    0.164632    0.062940
     34          1           0        4.228418    0.930745   -1.279534
     35          1           0        2.936810    0.490423    2.238371
     36          1           0        2.011930   -0.986155    1.917767
     37          1           0        3.785721   -1.035543    1.928189
 ---------------------------------------------------------------------

 SCF Done:  E(UB3LYP) =  -746.750870172     A.U. after   32 cycles

 The electronic state is 2-A.
 Alpha  occ. eigenvalues --  -19.06394 -19.00456 -14.34977 -14.24988 -14.23900
 Alpha  occ. eigenvalues --  -10.19625 -10.12205 -10.10768 -10.09690 -10.08832
 Alpha  occ. eigenvalues --  -10.07485 -10.07428 -10.06992 -10.06623 -10.06589
 Alpha  occ. eigenvalues --  -10.06176  -1.01662  -1.00298  -0.91764  -0.85977
 Alpha  occ. eigenvalues --   -0.73909  -0.72275  -0.66370  -0.63114  -0.60165
 Alpha  occ. eigenvalues --   -0.59876  -0.59542  -0.54038  -0.50172  -0.47220
 Alpha  occ. eigenvalues --   -0.44287  -0.42980  -0.41360  -0.40570  -0.38984
 Alpha  occ. eigenvalues --   -0.38030  -0.37752  -0.36912  -0.36160  -0.34116
 Alpha  occ. eigenvalues --   -0.33664  -0.33082  -0.32654  -0.32096  -0.30913
 Alpha  occ. eigenvalues --   -0.30170  -0.29166  -0.28375  -0.28030  -0.27705
 Alpha  occ. eigenvalues --   -0.26945  -0.26556  -0.25642  -0.25292  -0.24087
 Alpha  occ. eigenvalues --   -0.23476  -0.23050  -0.22737  -0.19767  -0.18734
 Alpha  occ. eigenvalues --   -0.17441  -0.13823   0.04154
 Alpha virt. eigenvalues --    0.05890   0.06625   0.07851   0.08199   0.08346
 Alpha virt. eigenvalues --    0.08926   0.09252   0.09841   0.10320   0.10732
 Alpha virt. eigenvalues --    0.11143   0.11332   0.11546   0.11911   0.12399

  Beta  occ. eigenvalues --  -19.06391 -19.00439 -14.34788 -14.24712 -14.23949
  Beta  occ. eigenvalues --  -10.19608 -10.12194 -10.10681 -10.09690 -10.08829
  Beta  occ. eigenvalues --  -10.07467 -10.07405 -10.06982 -10.06607 -10.06572
  Beta  occ. eigenvalues --  -10.06135  -1.01296  -1.00267  -0.91740  -0.85783
  Beta  occ. eigenvalues --   -0.73893  -0.72234  -0.66277  -0.63066  -0.60128
  Beta  occ. eigenvalues --   -0.59813  -0.59498  -0.53916  -0.50103  -0.47172
  Beta  occ. eigenvalues --   -0.44252  -0.42879  -0.41283  -0.40317  -0.38592
  Beta  occ. eigenvalues --   -0.37902  -0.37635  -0.36749  -0.36123  -0.34078
  Beta  occ. eigenvalues --   -0.33251  -0.33036  -0.32508  -0.32026  -0.30723
  Beta  occ. eigenvalues --   -0.30147  -0.29106  -0.28311  -0.27952  -0.27669
  Beta  occ. eigenvalues --   -0.26895  -0.26494  -0.25617  -0.25252  -0.24064
  Beta  occ. eigenvalues --   -0.23436  -0.23014  -0.22694  -0.19721  -0.18320
  Beta  occ. eigenvalues --   -0.17419  -0.13731
  Beta virt. eigenvalues --    0.06080   0.06896   0.07849   0.08443   0.08581
  Beta virt. eigenvalues --    0.09051   0.09134   0.09684   0.10065   0.10477
  Beta virt. eigenvalues --    0.11006   0.11409   0.11476   0.11747   0.12102

 Mulliken charges and spin densities:
               1          2
     1  C    1.091633  -1.754372
     2  C   -1.687789   1.314274
     3  C    1.034283  -0.214444
     4  C   -0.317149   0.040215
     5  C    0.985296  -1.482326
     6  N    0.084235  -0.259319
     7  N    0.242359   0.165901
     8  N   -0.592419   0.444980
     9  C   -0.911833  -0.031395
    10  O   -0.170056   0.011420
    11  O    0.202043   0.001980
    12  C    0.481901  -1.091770
    13  C   -0.904456   1.472293
    14  C    0.234490  -0.791132
    15  C   -0.047145  -0.529225
    16  C   -0.132135  -0.316315
    17  H   -0.266512   0.415527
    18  H   -0.236714   0.373218
    19  H   -0.246141   0.388096
    20  H    0.166486  -0.008406
    21  H    0.194644  -0.055720
    22  H    0.006148   0.229535
    23  H    0.117240   0.101725
    24  H   -0.216411   0.398503
    25  H   -0.439794   0.632558
    26  H    0.031994   0.137724
    27  H    0.160585   0.053246
    28  H    0.107975   0.076765
    29  H    0.063244   0.099602
    30  H    0.019188   0.131698
    31  H   -0.006427   0.147456
    32  H   -0.002722   0.142550
    33  H   -0.103391   0.251723
    34  H    0.060648   0.070718
    35  H    0.077907   0.055429
    36  H   -0.014103   0.153759
    37  H   -0.067101   0.223530
 Sum of Mulliken charges =  -1.00000   1.00000

 Dipole moment (field-independent basis, Debye):
    X=              4.1057    Y=              0.4009    Z=             -0.1572  Tot=              4.1282
 Quadrupole moment (field-independent basis, Debye-Ang):
   XX=           -172.8285   YY=           -143.1299   ZZ=           -135.2665
   XY=             -2.0140   XZ=             -0.4979   YZ=              1.3847

 Summary of Natural Population Analysis:

                                       Natural Population
                Natural  -----------------------------------------------
    Atom  No    Charge         Core      Valence    Rydberg      Total
 -----------------------------------------------------------------------
      C    1   -0.28626      0.99967     2.28152    0.00507     3.28626
      C    2   -0.19396      0.99962     2.18487    0.00946     3.19396
      C    3   -0.15291      0.99953     2.14147    0.01191     3.15291
      C    4   -0.19091      0.99960     2.18129    0.01002     3.19091
      C    5   -0.09143      0.99958     2.07989    0.01196     3.09143
      N    6   -0.20289      0.99970     2.68910    0.01409     3.70289
      N    7    0.13280      0.99970     2.35232    0.01518     3.36720
      N    8   -0.02816      0.99982     2.51527    0.01307     3.52816
      C    9    0.42222      0.99964     1.55189    0.02625     2.57778
      O   10   -0.31213      0.99987     3.30700    0.00526     4.31213
      O   11   -0.28769      0.99985     3.27702    0.01081     4.28769
      C   12   -0.01452      0.99948     2.00361    0.01143     3.01452
      C   13   -0.06234      0.99959     2.05139    0.01136     3.06234
      C   14   -0.28552      0.99963     2.27964    0.00626     3.28552
      C   15   -0.28305      0.99963     2.27764    0.00578     3.28305
      C   16   -0.28504      0.99963     2.27934    0.00607     3.28504
      H   17    0.09839      0.00000     0.40017    0.00144     0.40161
      H   18    0.09985      0.00000     0.39934    0.00081     0.40015
      H   19    0.09641      0.00000     0.40237    0.00122     0.40359
      H   20    0.10135      0.00000     0.39712    0.00153     0.39865
      H   21    0.10050      0.00000     0.39813    0.00137     0.39950
      H   22    0.11104      0.00000     0.38736    0.00159     0.38896
      H   23    0.10969      0.00000     0.38901    0.00130     0.39031
      H   24    0.10430      0.00000     0.39440    0.00130     0.39570
      H   25    0.09988      0.00000     0.39833    0.00180     0.40012
      H   26    0.09237      0.00000     0.40603    0.00160     0.40763
      H   27    0.10189      0.00000     0.39664    0.00147     0.39811
      H   28    0.09904      0.00000     0.39979    0.00117     0.40096
      H   29    0.10439      0.00000     0.39470    0.00091     0.39561
      H   30    0.09759      0.00000     0.40152    0.00089     0.40241
      H   31    0.10216      0.00000     0.39665    0.00119     0.39784
      H   32    0.09999      0.00000     0.39901    0.00100     0.40001
      H   33    0.10039      0.00000     0.39866    0.00094     0.39961
      H   34    0.09981      0.00000     0.39927    0.00091     0.40019
      H   35    0.09969      0.00000     0.39939    0.00093     0.40031
      H   36    0.10603      0.00000     0.39277    0.00120     0.39397
      H   37    0.09701      0.00000     0.40205    0.00093     0.40299
 =======================================================================
   * Total *    0.00000     15.99451    45.80596    0.19953    62.00000

 Normal termination of Gaussian 16 at Thu Dec 10 23:44:28 2020.
