 Gaussian 16, Revision A.03,

 -----------------------------------------------------------
 # opt freq B3LYP/6-31G(d) empiricaldispersion=gd3bj scf=xqc
 -----------------------------------------------------------

 -------------------------------
 CID_151378902_JID_3737_neutraal
 -------------------------------
 Symbolic Z-matrix:
 Charge =  0 Multiplicity = 1

 SCF Done:  E(RB3LYP) =  -715.462360130     A.U. after   17 cycles
 SCF Done:  E(RB3LYP) =  -715.475643918     A.U. after   15 cycles
 SCF Done:  E(RB3LYP) =  -715.476792994     A.U. after   15 cycles
 SCF Done:  E(RB3LYP) =  -715.476541260     A.U. after   14 cycles
 SCF Done:  E(RB3LYP) =  -715.477480668     A.U. after   14 cycles
 SCF Done:  E(RB3LYP) =  -715.477617725     A.U. after   13 cycles
 SCF Done:  E(RB3LYP) =  -715.477652633     A.U. after   12 cycles
 SCF Done:  E(RB3LYP) =  -715.477667141     A.U. after   11 cycles
 SCF Done:  E(RB3LYP) =  -715.477670481     A.U. after   11 cycles
 SCF Done:  E(RB3LYP) =  -715.477671162     A.U. after   10 cycles
 SCF Done:  E(RB3LYP) =  -715.477671307     A.U. after    8 cycles
 SCF Done:  E(RB3LYP) =  -715.477671382     A.U. after    9 cycles
 Optimization completed.
    -- Stationary point found.
 Normal termination of Gaussian 16 at Wed Dec  9 23:18:30 2020.

 --------------------------------------------------------------------
 #N Geom=AllCheck Guess=TCheck SCRF=Check GenChk RB3LYP/6-31G(d) Freq
 --------------------------------------------------------------------

 Structure from the checkpoint file:  "JID_3737.chk"
 -------------------------------
 CID_151378902_JID_3737_neutraal
 -------------------------------
 Charge =  0 Multiplicity = 1

 SCF Done:  E(RB3LYP) =  -715.477671382     A.U. after    1 cycles

  Exact polarizability:  96.478   2.497  98.600   0.071  -2.205  42.894
 Approx polarizability: 145.428   8.078 177.919  -3.001  -4.044  70.284

                      1                      2                      3
                      A                      A                      A
 Frequencies --     55.9096                72.5324               139.5094
 Red. masses --     14.6691                14.1287                12.3200
 Frc consts  --      0.0270                 0.0438                 0.1413
 IR Inten    --      0.3237                 0.1167                 5.1779

                      4                      5                      6
                      A                      A                      A
 Frequencies --    144.9204               172.0729               299.1069
 Red. masses --      9.9109                12.6740                13.0459
 Frc consts  --      0.1226                 0.2211                 0.6877
 IR Inten    --      1.7414                 1.2939                15.3563

                      7                      8                      9
                      A                      A                      A
 Frequencies --    301.2267               339.9474               373.9366
 Red. masses --     15.5227                11.9723                13.3024
 Frc consts  --      0.8299                 0.8152                 1.0959
 IR Inten    --      4.0063                10.4695                20.1658

                     10                     11                     12
                      A                      A                      A
 Frequencies --    417.7002               452.0041               530.4810
 Red. masses --     12.2545                 7.9266                11.3794
 Frc consts  --      1.2597                 0.9542                 1.8867
 IR Inten    --      0.9017                10.2086                 5.4731

                     13                     14                     15
                      A                      A                      A
 Frequencies --    555.3796               584.1047               616.3139
 Red. masses --      4.5980                 3.2453                 2.3961
 Frc consts  --      0.8356                 0.6524                 0.5363
 IR Inten    --      5.9107                30.5750                59.4687

                     16                     17                     18
                      A                      A                      A
 Frequencies --    635.7282               649.4562               733.3989
 Red. masses --      3.3361                 8.9505                 7.9403
 Frc consts  --      0.7944                 2.2243                 2.5163
 IR Inten    --     34.0149                 9.6842                13.6809

                     19                     20                     21
                      A                      A                      A
 Frequencies --    756.6645               805.7319               846.5680
 Red. masses --      9.8566                 7.1181                 6.2340
 Frc consts  --      3.3249                 2.7227                 2.6323
 IR Inten    --     18.7679                 1.7037                 3.7075

                     22                     23                     24
                      A                      A                      A
 Frequencies --    917.4136               923.4881              1029.9533
 Red. masses --      5.2884                 7.1264                 7.0159
 Frc consts  --      2.6224                 3.5808                 4.3850
 IR Inten    --      0.2111                 6.6980                61.0998

                     25                     26                     27
                      A                      A                      A
 Frequencies --   1108.8019              1142.8533              1200.9037
 Red. masses --      4.5066                 3.9734                 6.6193
 Frc consts  --      3.2644                 3.0577                 5.6244
 IR Inten    --    102.3156                86.4059                23.6654

                     28                     29                     30
                      A                      A                      A
 Frequencies --   1240.4135              1275.3072              1307.2350
 Red. masses --      2.2307                 1.4733                 3.7312
 Frc consts  --      2.0222                 1.4118                 3.7567
 IR Inten    --    252.2087                50.3357                24.0099

                     31                     32                     33
                      A                      A                      A
 Frequencies --   1337.3876              1375.7549              1834.4719
 Red. masses --      5.3732                 1.9151                12.6394
 Frc consts  --      5.6623                 2.1356                25.0610
 IR Inten    --    393.4483                48.3001                40.6039

                     34                     35                     36
                      A                      A                      A
 Frequencies --   1852.3102              1877.0216              1891.1557
 Red. masses --     13.1919                12.6876                11.4171
 Frc consts  --     26.6676                26.3372                24.0580
 IR Inten    --    312.4085               124.8553               719.7565

                     37                     38                     39
                      A                      A                      A
 Frequencies --   1929.4574              3052.2248              3631.7578
 Red. masses --     12.9266                 1.0827                 1.0798
 Frc consts  --     28.3535                 5.9430                 8.3912
 IR Inten    --    113.0109                 4.4001               107.5884

 - Thermochemistry -
 -------------------
 Temperature   298.150 Kelvin.  Pressure   1.00000 Atm.
 Atom     1 has atomic number  6 and mass  12.00000

 Molecular mass:   181.99637 amu.
 Principal axes and moments of inertia in atomic units:
                           1         2         3
     Eigenvalues --  1620.536981979.840793476.92795
           X            0.99998  -0.00566   0.00268
           Y            0.00567   0.99997  -0.00471
           Z           -0.00265   0.00473   0.99999
 This molecule is an asymmetric top.
 Rotational symmetry number  1.
 Warning -- assumption of classical behavior for rotation
           may cause significant error
 Rotational temperatures (Kelvin)      0.05345     0.04375     0.02491
 Rotational constants (GHZ):           1.11367     0.91156     0.51906
 Zero-point vibrational energy     229746.4 (Joules/Mol)
                                   54.91072 (Kcal/Mol)
 Warning -- explicit consideration of  15 degrees of freedom as
           vibrations may cause significant error
 Vibrational temperatures:     80.44   104.36   200.72   208.51   247.57
          (Kelvin)            430.35   433.40   489.11   538.01   600.98
                              650.33   763.24   799.07   840.40   886.74
                              914.67   934.42  1055.20  1088.67  1159.27
                             1218.02  1319.95  1328.69  1481.87  1595.32
                             1644.31  1727.83  1784.68  1834.88  1880.82
                             1924.20  1979.40  2639.40  2665.06  2700.62
                             2720.95  2776.06  4391.47  5225.29

 Zero-point correction=                           0.087506 (Hartree/Particle)
 Thermal correction to Energy=                    0.097546
 Thermal correction to Enthalpy=                  0.098490
 Thermal correction to Gibbs Free Energy=         0.050955
 Sum of electronic and zero-point Energies=           -715.390166
 Sum of electronic and thermal Energies=              -715.380125
 Sum of electronic and thermal Enthalpies=            -715.379181
 Sum of electronic and thermal Free Energies=         -715.426716

                     E (Thermal)             CV                S
                      KCal/Mol        Cal/Mol-Kelvin    Cal/Mol-Kelvin
 Total                   61.211             36.668            100.046
 Electronic               0.000              0.000              0.000
 Translational            0.889              2.981             41.503
 Rotational               0.889              2.981             30.790
 Vibrational             59.434             30.706             27.753
 Vibration     1          0.596              1.975              4.597
 Vibration     2          0.599              1.967              4.083
 Vibration     3          0.615              1.914              2.811
 Vibration     4          0.616              1.908              2.738
 Vibration     5          0.626              1.877              2.413
 Vibration     6          0.692              1.675              1.422
 Vibration     7          0.693              1.671              1.410
 Vibration     8          0.720              1.596              1.212
 Vibration     9          0.745              1.526              1.064
 Vibration    10          0.781              1.432              0.900
 Vibration    11          0.811              1.356              0.790
 Vibration    12          0.885              1.183              0.586
 Vibration    13          0.911              1.128              0.533
 Vibration    14          0.941              1.066              0.478
 Vibration    15          0.976              0.997              0.422

 Optimization completed.
    -- Stationary point found.
 Normal termination of Gaussian 16 at Wed Dec  9 23:21:54 2020.

 ----------------------------------------------------------------------
 # B3LYP/6-311++G(d,p) empiricaldispersion=gd3bj scf=xqc pop=npa geom=c
 heck
 ----------------------------------------------------------------------

 ---------------------------------------
 CID_151378902_JID_3737_Energie_neutraal
 ---------------------------------------
 Structure from the checkpoint file:  "JID_3737.chk"
 Charge =  0 Multiplicity = 1

 SCF Done:  E(RB3LYP) =  -715.690439800     A.U. after   17 cycles
 Normal termination of Gaussian 16 at Wed Dec  9 23:23:08 2020.

 ----------------------------------------------------------------------
 # B3LYP/6-311++G(d,p) empiricaldispersion=gd3bj scf=xqc pop=npa geom=c
 heck
 ----------------------------------------------------------------------

 -------------------------------------
 CID_151378902_JID_3737_Energie_kation
 -------------------------------------
 Structure from the checkpoint file:  "JID_3737.chk"
 Charge =  1 Multiplicity = 2

 SCF Done:  E(UB3LYP) =  -715.329962708     A.U. after   25 cycles
 Normal termination of Gaussian 16 at Wed Dec  9 23:25:50 2020.
 Gaussian 16:  ES64L-G16RevA.03 25-Dec-2016

 ----------------------------------------------------------------------
 # B3LYP/6-311++G(d,p) empiricaldispersion=gd3bj scf=xqc pop=npa geom=c
 heck
 ----------------------------------------------------------------------

 ------------------------------------
 CID_151378902_JID_3737_Energie_anion
 ------------------------------------
 Structure from the checkpoint file:  "JID_3737.chk"
 Charge = -1 Multiplicity = 2

                         Standard orientation:
 ---------------------------------------------------------------------
 Center     Atomic      Atomic             Coordinates (Angstroms)
 Number     Number       Type             X           Y           Z
 ---------------------------------------------------------------------
      1          6           0       -0.311621   -0.746081    0.655282
      2          6           0        0.973086   -1.329254    0.065426
      3          8           0        1.210026   -2.477091   -0.195768
      4          6           0        1.942238   -0.127684   -0.066671
      5          8           0        3.112701   -0.181304   -0.329216
      6          6           0        1.113965    1.155854    0.166483
      7          8           0        1.471716    2.287559   -0.023458
      8          7           0       -0.179130    0.711670    0.508540
      9          6           0       -1.372796    1.280497   -0.011562
     10          8           0       -1.595452    2.435069   -0.249160
     11          7           0       -2.221031    0.187424   -0.242867
     12          6           0       -1.669314   -1.060662    0.010033
     13          8           0       -2.167104   -2.139819   -0.181026
     14          1           0       -0.371280   -1.038872    1.712544
     15          1           0       -3.136024    0.313878   -0.657181
 ---------------------------------------------------------------------

 SCF Done:  E(UB3LYP) =  -715.790021624     A.U. after   21 cycles

 The electronic state is 2-A.
 Alpha  occ. eigenvalues --  -19.01993 -19.01113 -18.97553 -18.97497 -18.95654
 Alpha  occ. eigenvalues --  -14.27392 -14.24746 -10.21787 -10.19994 -10.14560
 Alpha  occ. eigenvalues --  -10.12234 -10.11535 -10.09035  -0.98763  -0.96428
 Alpha  occ. eigenvalues --   -0.93031  -0.91618  -0.89146  -0.88377  -0.81812
 Alpha  occ. eigenvalues --   -0.65019  -0.61597  -0.54752  -0.50433  -0.45268
 Alpha  occ. eigenvalues --   -0.42671  -0.40925  -0.38977  -0.36854  -0.35613
 Alpha  occ. eigenvalues --   -0.34353  -0.33858  -0.31899  -0.31183  -0.30291
 Alpha  occ. eigenvalues --   -0.28840  -0.28374  -0.26257  -0.22876  -0.20884
 Alpha  occ. eigenvalues --   -0.20304  -0.19190  -0.16974  -0.16366  -0.15222
 Alpha  occ. eigenvalues --   -0.08067  -0.02544
 Alpha virt. eigenvalues --    0.07349   0.08050   0.09313   0.11428   0.12928
 Alpha virt. eigenvalues --    0.13731   0.14041   0.14898   0.16203   0.16701
 Alpha virt. eigenvalues --    0.16972   0.17597   0.19085   0.19583   0.20327

  Beta  occ. eigenvalues --  -19.01985 -19.01076 -18.97303 -18.96991 -18.94819
  Beta  occ. eigenvalues --  -14.27392 -14.24713 -10.21760 -10.19968 -10.14501
  Beta  occ. eigenvalues --  -10.12257 -10.11386 -10.08857  -0.98701  -0.96388
  Beta  occ. eigenvalues --   -0.92529  -0.90803  -0.88353  -0.87676  -0.81680
  Beta  occ. eigenvalues --   -0.64779  -0.61049  -0.54582  -0.49894  -0.44819
  Beta  occ. eigenvalues --   -0.42532  -0.40615  -0.38671  -0.36667  -0.35499
  Beta  occ. eigenvalues --   -0.34190  -0.33557  -0.31502  -0.30722  -0.29761
  Beta  occ. eigenvalues --   -0.27818  -0.27265  -0.24301  -0.20764  -0.20300
  Beta  occ. eigenvalues --   -0.19607  -0.18667  -0.16442  -0.15905  -0.14762
  Beta  occ. eigenvalues --   -0.07472
  Beta virt. eigenvalues --    0.05033   0.07516   0.08339   0.09898   0.12511
  Beta virt. eigenvalues --    0.13063   0.13944   0.14570   0.14971   0.16237
  Beta virt. eigenvalues --    0.16787   0.16996   0.17607   0.19139   0.19660

 Mulliken charges and spin densities:
               1          2
     1  C    0.030741  -0.023981
     2  C   -0.126579   0.150667
     3  O   -0.341203   0.182924
     4  C    0.212184   0.140353
     5  O   -0.387721   0.305648
     6  C   -0.039104   0.077354
     7  O   -0.350935   0.089711
     8  N   -0.017742   0.059461
     9  C    0.353937  -0.015495
    10  O   -0.351191   0.008950
    11  N   -0.306406  -0.002177
    12  C    0.095674   0.003401
    13  O   -0.326220   0.002187
    14  H    0.223575   0.017568
    15  H    0.330991   0.003430
 Sum of Mulliken charges =  -1.00000   1.00000

 Dipole moment (field-independent basis, Debye):
    X=             -7.2822    Y=              0.1844    Z=              1.9161  Tot=              7.5323
 Quadrupole moment (field-independent basis, Debye-Ang):
   XX=           -101.5285   YY=           -114.6851   ZZ=            -71.2260
   XY=             -1.5489   XZ=              3.6655   YZ=             -2.1273

 Summary of Natural Population Analysis:

                                       Natural Population
                Natural  -----------------------------------------------
    Atom  No    Charge         Core      Valence    Rydberg      Total
 -----------------------------------------------------------------------
      C    1   -0.08582      0.99955     2.07610    0.01017     3.08582
      C    2    0.25865      0.99964     1.71799    0.02372     2.74135
      O    3   -0.20328      0.99987     3.19547    0.00795     4.20328
      C    4    0.20298      0.99963     1.77359    0.02380     2.79702
      O    5   -0.14615      0.99987     3.13813    0.00815     4.14615
      C    6    0.31920      0.99965     1.65563    0.02552     2.68080
      O    7   -0.24889      0.99987     3.24204    0.00698     4.24889
      N    8   -0.27103      0.99962     2.76199    0.00942     3.77103
      C    9    0.41659      0.99971     1.55838    0.02531     2.58341
      O   10   -0.28992      0.99986     3.28379    0.00627     4.28992
      N   11   -0.33249      0.99964     2.82578    0.00707     3.83249
      C   12    0.35032      0.99968     1.62591    0.02410     2.64968
      O   13   -0.29102      0.99987     3.28459    0.00656     4.29102
      H   14    0.11785      0.00000     0.38111    0.00104     0.38215
      H   15    0.20302      0.00000     0.29482    0.00216     0.29698
 =======================================================================
   * Total *   -0.00000     12.99646    32.81533    0.18821    46.00000

 Normal termination of Gaussian 16 at Wed Dec  9 23:28:06 2020.
