 Gaussian 16, Revision A.03,

 -----------------------------------------------------------
 # opt freq B3LYP/6-31G(d) empiricaldispersion=gd3bj scf=xqc
 -----------------------------------------------------------

 ------------------------------
 CID_18184408_JID_6716_neutraal
 ------------------------------
 Symbolic Z-matrix:
 Charge =  0 Multiplicity = 1

 SCF Done:  E(RB3LYP) =  -1042.40708139     A.U. after   17 cycles
 SCF Done:  E(RB3LYP) =  -1042.41773315     A.U. after   14 cycles
 SCF Done:  E(RB3LYP) =  -1042.41903454     A.U. after   14 cycles
 SCF Done:  E(RB3LYP) =  -1042.41892846     A.U. after   14 cycles
 SCF Done:  E(RB3LYP) =  -1042.41941033     A.U. after   12 cycles
 SCF Done:  E(RB3LYP) =  -1042.41947481     A.U. after   13 cycles
 SCF Done:  E(RB3LYP) =  -1042.41949062     A.U. after   11 cycles
 SCF Done:  E(RB3LYP) =  -1042.41949792     A.U. after   11 cycles
 SCF Done:  E(RB3LYP) =  -1042.41950183     A.U. after   10 cycles
 SCF Done:  E(RB3LYP) =  -1042.41950540     A.U. after   10 cycles
 SCF Done:  E(RB3LYP) =  -1042.41952079     A.U. after   10 cycles
 SCF Done:  E(RB3LYP) =  -1042.41952633     A.U. after   11 cycles
 SCF Done:  E(RB3LYP) =  -1042.41953111     A.U. after   10 cycles
 SCF Done:  E(RB3LYP) =  -1042.41953318     A.U. after    9 cycles
 SCF Done:  E(RB3LYP) =  -1042.41953367     A.U. after    9 cycles
 SCF Done:  E(RB3LYP) =  -1042.41953373     A.U. after    8 cycles
 Optimization completed.
    -- Stationary point found.
 Normal termination of Gaussian 16 at Fri Dec 11 00:26:23 2020.

 --------------------------------------------------------------------
 #N Geom=AllCheck Guess=TCheck SCRF=Check GenChk RB3LYP/6-31G(d) Freq
 --------------------------------------------------------------------

 Structure from the checkpoint file:  "JID_6716.chk"
 ------------------------------
 CID_18184408_JID_6716_neutraal
 ------------------------------
 Charge =  0 Multiplicity = 1

 SCF Done:  E(RB3LYP) =  -1042.41953373     A.U. after    1 cycles

  Exact polarizability: 281.627   8.479 179.142   1.453  -3.816  72.510
 Approx polarizability: 578.067  22.676 303.776   7.139 -15.329 117.439

                      1                      2                      3
                      A                      A                      A
 Frequencies --     42.9105                45.5528                73.5321
 Red. masses --      2.5964                 1.1478                 3.5978
 Frc consts  --      0.0028                 0.0014                 0.0115
 IR Inten    --      2.3934                 0.1538                 1.3907

                      4                      5                      6
                      A                      A                      A
 Frequencies --     87.3497               138.3939               160.5271
 Red. masses --      4.4368                 1.9695                 7.2831
 Frc consts  --      0.0199                 0.0222                 0.1106
 IR Inten    --      0.6969                 0.1123                 0.3539

                      7                      8                      9
                      A                      A                      A
 Frequencies --    176.4771               196.6541               234.3059
 Red. masses --      2.2117                 2.9939                 5.2507
 Frc consts  --      0.0406                 0.0682                 0.1698
 IR Inten    --      0.5016                 0.3960                 1.0188

                     10                     11                     12
                      A                      A                      A
 Frequencies --    257.9777               309.7454               334.6069
 Red. masses --      3.6771                 5.1052                 4.8569
 Frc consts  --      0.1442                 0.2886                 0.3204
 IR Inten    --      1.7490                 2.1043                 0.4358

                     13                     14                     15
                      A                      A                      A
 Frequencies --    347.4066               391.5517               436.9746
 Red. masses --      4.5943                 8.1189                 4.5003
 Frc consts  --      0.3267                 0.7334                 0.5063
 IR Inten    --      1.1631                 5.8449                 0.7174

                     16                     17                     18
                      A                      A                      A
 Frequencies --    447.7425               462.6851               546.4174
 Red. masses --      6.0394                 4.8511                 4.6380
 Frc consts  --      0.7133                 0.6119                 0.8159
 IR Inten    --      1.6757                 3.5669                 0.2902

                     19                     20                     21
                      A                      A                      A
 Frequencies --    574.1084               604.2695               637.6492
 Red. masses --      4.3510                 5.5271                 4.0079
 Frc consts  --      0.8449                 1.1891                 0.9601
 IR Inten    --     10.4678                 5.5368                 9.4620

                     22                     23                     24
                      A                      A                      A
 Frequencies --    669.5232               707.8324               741.7139
 Red. masses --      7.6813                 6.1820                 5.5310
 Frc consts  --      2.0287                 1.8249                 1.7928
 IR Inten    --      6.0816                 1.5160                14.2407

                     25                     26                     27
                      A                      A                      A
 Frequencies --    748.5139               775.2285               782.6514
 Red. masses --      9.2125                 7.8213                 8.6878
 Frc consts  --      3.0411                 2.7694                 3.1354
 IR Inten    --      5.3294                 2.5286                 2.1078

                     28                     29                     30
                      A                      A                      A
 Frequencies --    862.9987               870.2934               909.4878
 Red. masses --      1.4062                 1.3741                 8.4161
 Frc consts  --      0.6170                 0.6132                 4.1016
 IR Inten    --      8.9937                 2.0454                47.8316

                     31                     32                     33
                      A                      A                      A
 Frequencies --    917.5635               936.2306               949.8231
 Red. masses --      1.4654                10.5170                 3.7493
 Frc consts  --      0.7269                 5.4313                 1.9929
 IR Inten    --     27.5178                 1.6174                 4.6568

                     34                     35                     36
                      A                      A                      A
 Frequencies --    955.9717               992.3474              1017.4670
 Red. masses --      1.4893                 1.1746                 1.4294
 Frc consts  --      0.8019                 0.6815                 0.8719
 IR Inten    --      2.9238                 8.7533                23.4461

                     37                     38                     39
                      A                      A                      A
 Frequencies --   1032.9657              1096.5148              1121.8825
 Red. masses --      4.3175                 2.3795                 2.9188
 Frc consts  --      2.7143                 1.6857                 2.1645
 IR Inten    --     46.1676                60.3820               199.8705

                     40                     41                     42
                      A                      A                      A
 Frequencies --   1156.3160              1181.7386              1212.8285
 Red. masses --      1.3551                 2.5665                 1.9657
 Frc consts  --      1.0675                 2.1117                 1.7036
 IR Inten    --     11.5649                28.0836                28.2776

                     43                     44                     45
                      A                      A                      A
 Frequencies --   1224.8101              1277.2960              1287.6771
 Red. masses --      3.1385                 2.7944                 3.0162
 Frc consts  --      2.7740                 2.6861                 2.9466
 IR Inten    --     60.3769                34.1189                33.8458

                     46                     47                     48
                      A                      A                      A
 Frequencies --   1364.2408              1374.5432              1384.5034
 Red. masses --      4.2726                 1.2847                 2.2308
 Frc consts  --      4.6852                 1.4302                 2.5194
 IR Inten    --    176.8849                47.7261               111.7338

                     49                     50                     51
                      A                      A                      A
 Frequencies --   1398.3701              1429.2349              1448.9293
 Red. masses --      1.8396                 2.4806                 3.1718
 Frc consts  --      2.1194                 2.9854                 3.9232
 IR Inten    --     52.9004                 2.2776                10.4790

                     52                     53                     54
                      A                      A                      A
 Frequencies --   1460.5415              1487.6823              1490.6197
 Red. masses --      3.2914                 1.3587                 1.0853
 Frc consts  --      4.1368                 1.7717                 1.4208
 IR Inten    --    121.0317                10.5648                10.9323

                     55                     56                     57
                      A                      A                      A
 Frequencies --   1515.2468              1517.9606              1525.3031
 Red. masses --      1.5776                 1.9490                 1.0650
 Frc consts  --      2.1341                 2.6460                 1.4599
 IR Inten    --     32.5006                13.7909                18.8997

                     58                     59                     60
                      A                      A                      A
 Frequencies --   1535.5066              1555.6989              1596.1955
 Red. masses --      1.1987                 4.6478                 6.7385
 Frc consts  --      1.6652                 6.6274                10.1154
 IR Inten    --     13.4522                92.7736                60.9088

                     61                     62                     63
                      A                      A                      A
 Frequencies --   1646.7576              1686.2328              3071.4889
 Red. masses --      6.6073                 6.6444                 1.0337
 Frc consts  --     10.5568                11.1312                 5.7458
 IR Inten    --    106.0299               112.3156                56.1338

                     64                     65                     66
                      A                      A                      A
 Frequencies --   3071.7769              3146.1471              3151.8883
 Red. masses --      1.0326                 1.1031                 1.1053
 Frc consts  --      5.7406                 6.4334                 6.4695
 IR Inten    --     35.2068                 9.1802                10.2675

                     67                     68                     69
                      A                      A                      A
 Frequencies --   3173.3693              3184.0193              3199.9106
 Red. masses --      1.1053                 1.1053                 1.0915
 Frc consts  --      6.5578                 6.6023                 6.5847
 IR Inten    --      3.3994                 4.9276                 6.2401

                     70                     71                     72
                      A                      A                      A
 Frequencies --   3205.1181              3220.9031              3227.3340
 Red. masses --      1.0915                 1.0929                 1.0940
 Frc consts  --      6.6067                 6.6804                 6.7138
 IR Inten    --      8.7644                 1.7620                42.0649

 - Thermochemistry -
 -------------------
 Temperature   298.150 Kelvin.  Pressure   1.00000 Atm.
 Atom     1 has atomic number  6 and mass  12.00000

 Molecular mass:   230.06262 amu.
 Principal axes and moments of inertia in atomic units:
                           1         2         3
     Eigenvalues --  2473.870534432.599846736.78784
           X            0.99985  -0.01702  -0.00175
           Y            0.01705   0.99976   0.01382
           Z            0.00152  -0.01385   0.99990
 This molecule is an asymmetric top.
 Rotational symmetry number  1.
 Warning -- assumption of classical behavior for rotation
           may cause significant error
 Rotational temperatures (Kelvin)      0.03501     0.01954     0.01286
 Rotational constants (GHZ):           0.72952     0.40715     0.26789
 Zero-point vibrational energy     520411.7 (Joules/Mol)
                                  124.38137 (Kcal/Mol)
 Warning -- explicit consideration of  20 degrees of freedom as
           vibrations may cause significant error
 Vibrational temperatures:     61.74    65.54   105.80   125.68   199.12
          (Kelvin)            230.96   253.91   282.94   337.11   371.17
                              445.65   481.42   499.84   563.36   628.71
                              644.20   665.70   786.17   826.01   869.41
                              917.44   963.29  1018.41  1067.16  1076.94
                             1115.38  1126.06  1241.66  1252.16  1308.55
                             1320.17  1347.03  1366.58  1375.43  1427.77
                             1463.91  1486.21  1577.64  1614.14  1663.68
                             1700.26  1744.99  1762.23  1837.74  1852.68
                             1962.84  1977.66  1991.99  2011.94  2056.35
                             2084.69  2101.39  2140.44  2144.67  2180.10
                             2184.01  2194.57  2209.25  2238.30  2296.57
                             2369.32  2426.11  4419.19  4419.60  4526.60
                             4534.86  4565.77  4581.09  4603.96  4611.45
                             4634.16  4643.41

 Zero-point correction=                           0.198214 (Hartree/Particle)
 Thermal correction to Energy=                    0.211945
 Thermal correction to Enthalpy=                  0.212889
 Thermal correction to Gibbs Free Energy=         0.156535
 Sum of electronic and zero-point Energies=          -1042.221319
 Sum of electronic and thermal Energies=             -1042.207588
 Sum of electronic and thermal Enthalpies=           -1042.206644
 Sum of electronic and thermal Free Energies=        -1042.262998

                     E (Thermal)             CV                S
                      KCal/Mol        Cal/Mol-Kelvin    Cal/Mol-Kelvin
 Total                  132.998             51.612            118.607
 Electronic               0.000              0.000              0.000
 Translational            0.889              2.981             42.202
 Rotational               0.889              2.981             32.668
 Vibrational            131.220             45.650             43.737
 Vibration     1          0.595              1.980              5.120
 Vibration     2          0.595              1.979              5.002
 Vibration     3          0.599              1.966              4.057
 Vibration     4          0.601              1.958              3.719
 Vibration     5          0.614              1.915              2.826
 Vibration     6          0.622              1.891              2.544
 Vibration     7          0.628              1.871              2.365
 Vibration     8          0.636              1.845              2.164
 Vibration     9          0.654              1.788              1.846
 Vibration    10          0.667              1.749              1.675
 Vibration    11          0.699              1.655              1.364
 Vibration    12          0.716              1.606              1.238
 Vibration    13          0.725              1.581              1.178
 Vibration    14          0.759              1.488              0.994
 Vibration    15          0.797              1.390              0.836
 Vibration    16          0.807              1.366              0.803
 Vibration    17          0.820              1.333              0.758
 Vibration    18          0.902              1.148              0.552
 Vibration    19          0.930              1.087              0.496
 Vibration    20          0.963              1.023              0.442

                           ! Non-Optimized Parameters !
 Normal termination of Gaussian 16 at Fri Dec 11 00:34:09 2020.

 ----------------------------------------------------------------------
 # B3LYP/6-311++G(d,p) empiricaldispersion=gd3bj scf=xqc pop=npa geom=c
 heck
 ----------------------------------------------------------------------

 --------------------------------------
 CID_18184408_JID_6716_Energie_neutraal
 --------------------------------------
 Structure from the checkpoint file:  "JID_6716.chk"
 Charge =  0 Multiplicity = 1

 SCF Done:  E(RB3LYP) =  -1042.60667081     A.U. after   20 cycles
 Normal termination of Gaussian 16 at Fri Dec 11 00:38:02 2020.

 ----------------------------------------------------------------------
 # B3LYP/6-311++G(d,p) empiricaldispersion=gd3bj scf=xqc pop=npa geom=c
 heck
 ----------------------------------------------------------------------

 ------------------------------------
 CID_18184408_JID_6716_Energie_kation
 ------------------------------------
 Structure from the checkpoint file:  "JID_6716.chk"
 Charge =  1 Multiplicity = 2

 SCF Done:  E(UB3LYP) =  -1042.34540569     A.U. after   27 cycles
 Normal termination of Gaussian 16 at Fri Dec 11 00:44:58 2020.
 Gaussian 16:  ES64L-G16RevA.03 25-Dec-2016

 ----------------------------------------------------------------------
 # B3LYP/6-311++G(d,p) empiricaldispersion=gd3bj scf=xqc pop=npa geom=c
 heck
 ----------------------------------------------------------------------

 -----------------------------------
 CID_18184408_JID_6716_Energie_anion
 -----------------------------------
 Structure from the checkpoint file:  "JID_6716.chk"
 Charge = -1 Multiplicity = 2

                         Standard orientation:
 ---------------------------------------------------------------------
 Center     Atomic      Atomic             Coordinates (Angstroms)
 Number     Number       Type             X           Y           Z
 ---------------------------------------------------------------------
      1          6           0        4.554111   -0.843890   -0.022856
      2          7           0        3.134168   -0.491220   -0.006367
      3          6           0        2.179375   -1.446017    0.121033
      4          6           0        0.837232   -1.137376    0.073903
      5          6           0       -0.153232   -2.150164    0.180099
      6          6           0       -1.463567   -1.760478    0.090364
      7          6           0       -1.832681   -0.340272   -0.079904
      8          7           0       -3.165539   -0.252221   -0.127803
      9          6           0       -3.557266   -1.562410    0.008656
     10          7           0       -2.617843   -2.499642    0.145280
     11          6           0       -0.854913    0.681407   -0.163186
     12          6           0        0.481459    0.280789   -0.116533
     13          7           0        1.499421    1.197590   -0.254057
     14          6           0        2.729709    0.820053   -0.203285
     15         16           0       -1.394950    2.359869   -0.400393
     16          6           0       -0.441762    3.270555    0.869863
     17          1           0        4.851661   -1.210542   -1.010603
     18          1           0        4.748624   -1.615577    0.725100
     19          1           0        5.144116    0.040254    0.223926
     20          1           0        2.529970   -2.464119    0.254894
     21          1           0        0.129320   -3.189921    0.318160
     22          1           0       -4.612464   -1.817564    0.005837
     23          1           0        3.533390    1.541999   -0.316938
     24          1           0       -0.603770    2.827091    1.855640
     25          1           0        0.621686    3.288898    0.633668
     26          1           0       -0.845563    4.286850    0.868314
 ---------------------------------------------------------------------

 SCF Done:  E(UB3LYP) =  -1042.65251143     A.U. after   26 cycles

 The electronic state is 2-A.
 Alpha  occ. eigenvalues --  -88.70918 -14.26106 -14.18201 -14.12961 -14.12554
 Alpha  occ. eigenvalues --  -10.13187 -10.13016 -10.07345 -10.07280 -10.06711
 Alpha  occ. eigenvalues --  -10.05577 -10.05281 -10.05205 -10.03866 -10.03756
 Alpha  occ. eigenvalues --  -10.02596  -7.79482  -5.75908  -5.75509  -5.74831
 Alpha  occ. eigenvalues --   -0.89341  -0.82525  -0.79946  -0.70620  -0.69361
 Alpha  occ. eigenvalues --   -0.66540  -0.63958  -0.61166  -0.59621  -0.54151
 Alpha  occ. eigenvalues --   -0.52514  -0.49860  -0.46559  -0.42739  -0.40529
 Alpha  occ. eigenvalues --   -0.40170  -0.38291  -0.37626  -0.34385  -0.33174
 Alpha  occ. eigenvalues --   -0.32783  -0.32026  -0.30621  -0.30169  -0.29833
 Alpha  occ. eigenvalues --   -0.27997  -0.26718  -0.25941  -0.25102  -0.23109
 Alpha  occ. eigenvalues --   -0.21785  -0.19955  -0.19271  -0.14850  -0.14493
 Alpha  occ. eigenvalues --   -0.12601  -0.10892  -0.10016  -0.08965  -0.05985
 Alpha  occ. eigenvalues --    0.01050
 Alpha virt. eigenvalues --    0.05777   0.07849   0.08571   0.09141   0.10038
 Alpha virt. eigenvalues --    0.10211   0.11322   0.12113   0.12332   0.12570
 Alpha virt. eigenvalues --    0.13067   0.13898   0.14254   0.14907   0.16044

  Beta  occ. eigenvalues --  -88.70919 -14.25894 -14.17979 -14.12964 -14.12595
  Beta  occ. eigenvalues --  -10.13197 -10.13080 -10.07169 -10.06716 -10.06561
  Beta  occ. eigenvalues --  -10.05676 -10.05316 -10.05113 -10.03736 -10.03640
  Beta  occ. eigenvalues --  -10.02350  -7.79484  -5.75907  -5.75508  -5.74839
  Beta  occ. eigenvalues --   -0.88858  -0.82326  -0.79519  -0.70291  -0.69206
  Beta  occ. eigenvalues --   -0.66371  -0.63756  -0.60791  -0.59473  -0.53719
  Beta  occ. eigenvalues --   -0.52320  -0.49529  -0.46364  -0.42471  -0.40391
  Beta  occ. eigenvalues --   -0.39892  -0.37765  -0.37297  -0.34269  -0.33090
  Beta  occ. eigenvalues --   -0.32644  -0.31906  -0.30473  -0.29711  -0.29411
  Beta  occ. eigenvalues --   -0.27838  -0.26240  -0.25648  -0.24962  -0.22957
  Beta  occ. eigenvalues --   -0.20778  -0.19072  -0.18457  -0.14466  -0.14141
  Beta  occ. eigenvalues --   -0.12527  -0.10798  -0.09603  -0.07685  -0.05548
  Beta virt. eigenvalues --    0.05737   0.07514   0.07918   0.08601   0.09157
  Beta virt. eigenvalues --    0.10048   0.10504   0.11314   0.12162   0.12308
  Beta virt. eigenvalues --    0.13029   0.13122   0.13926   0.14244   0.15031

 Mulliken charges and spin densities:
               1          2
     1  C   -0.264270  -0.023082
     2  N    0.073733   0.039226
     3  C    0.137587   0.590188
     4  C    0.553817  -0.050191
     5  C   -0.757708   0.156567
     6  C   -0.754549   0.015146
     7  C   -0.202043   0.134075
     8  N   -0.116588  -0.018068
     9  C    0.352287   0.117142
    10  N   -0.190430  -0.008455
    11  C    0.576739  -0.085928
    12  C   -1.199210   0.074724
    13  N   -0.022786   0.107660
    14  C    0.250702  -0.035985
    15  S   -0.251951  -0.003484
    16  C   -0.561102   0.001626
    17  H    0.138982   0.033973
    18  H    0.126715   0.023218
    19  H    0.125026  -0.000447
    20  H    0.147870  -0.045659
    21  H    0.097726  -0.012247
    22  H    0.138066  -0.010246
    23  H    0.157517   0.001765
    24  H    0.163320  -0.000760
    25  H    0.158312  -0.000132
    26  H    0.122239  -0.000626
 Sum of Mulliken charges =  -1.00000   1.00000

 Dipole moment (field-independent basis, Debye):
    X=             10.5742    Y=              2.1171    Z=              1.1108  Tot=             10.8411
 Quadrupole moment (field-independent basis, Debye-Ang):
   XX=           -126.4337   YY=           -126.9453   ZZ=           -109.6286
   XY=             -8.4056   XZ=             -0.3283   YZ=              4.0916

 Summary of Natural Population Analysis:

                                       Natural Population
                Natural  -----------------------------------------------
    Atom  No    Charge         Core      Valence    Rydberg      Total
 -----------------------------------------------------------------------
      C    1   -0.16708      0.99960     2.16121    0.00627     3.16708
      N    2   -0.18619      0.99963     2.67836    0.00819     3.68619
      C    3    0.19653      0.99953     1.79324    0.01070     2.80347
      C    4   -0.07825      0.99951     2.07114    0.00760     3.07825
      C    5   -0.04657      0.99949     2.03763    0.00945     3.04657
      C    6    0.06308      0.99949     1.92187    0.01556     2.93692
      C    7    0.11470      0.99948     1.87115    0.01467     2.88530
      N    8   -0.29872      0.99971     2.78786    0.01114     3.79872
      C    9    0.15007      0.99969     1.82920    0.02104     2.84993
      N   10   -0.29541      0.99971     2.78357    0.01214     3.79541
      C   11   -0.13227      0.99926     2.11929    0.01372     3.13227
      C   12    0.10234      0.99943     1.88548    0.01275     2.89766
      N   13   -0.21191      0.99966     2.70033    0.01191     3.71191
      C   14    0.11758      0.99964     1.86687    0.01591     2.88242
      S   15    0.11613      4.99957     2.86421    0.02009     7.88387
      C   16   -0.35288      0.99962     2.34738    0.00588     3.35288
      H   17    0.09387      0.00000     0.40464    0.00148     0.40613
      H   18    0.09786      0.00000     0.40091    0.00123     0.40214
      H   19    0.09399      0.00000     0.40487    0.00113     0.40601
      H   20    0.08223      0.00000     0.41677    0.00099     0.41777
      H   21    0.09228      0.00000     0.40525    0.00247     0.40772
      H   22    0.07058      0.00000     0.42827    0.00114     0.42942
      H   23    0.07786      0.00000     0.42091    0.00122     0.42214
      H   24    0.09779      0.00000     0.40063    0.00158     0.40221
      H   25    0.10824      0.00000     0.38974    0.00202     0.39176
      H   26    0.09420      0.00000     0.40444    0.00136     0.40580
 =======================================================================
   * Total *    0.00007     19.99304    39.79524    0.21165    59.99993

 Normal termination of Gaussian 16 at Fri Dec 11 00:51:42 2020.
