 Gaussian 16, Revision A.03,

 -----------------------------------------------------------
 # opt freq B3LYP/6-31G(d) empiricaldispersion=gd3bj scf=xqc
 -----------------------------------------------------------

 ------------------------------
 CID_65578691_JID_9246_neutraal
 ------------------------------
 Symbolic Z-matrix:
 Charge =  0 Multiplicity = 1

 SCF Done:  E(RB3LYP) =  -1277.82924877     A.U. after   15 cycles
 SCF Done:  E(RB3LYP) =  -1277.83862016     A.U. after   12 cycles
 SCF Done:  E(RB3LYP) =  -1277.84021883     A.U. after   12 cycles
 SCF Done:  E(RB3LYP) =  -1277.84142802     A.U. after   11 cycles
 SCF Done:  E(RB3LYP) =  -1277.84257635     A.U. after   12 cycles
 SCF Done:  E(RB3LYP) =  -1277.84345135     A.U. after   13 cycles
 SCF Done:  E(RB3LYP) =  -1277.84411012     A.U. after   11 cycles
 SCF Done:  E(RB3LYP) =  -1277.84458381     A.U. after   12 cycles
 SCF Done:  E(RB3LYP) =  -1277.84472506     A.U. after   11 cycles
 SCF Done:  E(RB3LYP) =  -1277.84478659     A.U. after   11 cycles
 SCF Done:  E(RB3LYP) =  -1277.84490347     A.U. after   10 cycles
 SCF Done:  E(RB3LYP) =  -1277.84490362     A.U. after    8 cycles
 SCF Done:  E(RB3LYP) =  -1277.84490373     A.U. after    8 cycles
 SCF Done:  E(RB3LYP) =  -1277.84490381     A.U. after    8 cycles
 SCF Done:  E(RB3LYP) =  -1277.84490382     A.U. after    6 cycles
 Optimization completed.
    -- Stationary point found.
 Normal termination of Gaussian 16 at Sun Dec 13 20:41:11 2020.

 --------------------------------------------------------------------
 #N Geom=AllCheck Guess=TCheck SCRF=Check GenChk RB3LYP/6-31G(d) Freq
 --------------------------------------------------------------------

 Structure from the checkpoint file:  "JID_9246.chk"
 ------------------------------
 CID_65578691_JID_9246_neutraal
 ------------------------------
 Charge =  0 Multiplicity = 1

 SCF Done:  E(RB3LYP) =  -1277.84490382     A.U. after    1 cycles

  Exact polarizability: 211.281  -6.237 163.223   2.790   7.527 125.793
 Approx polarizability: 255.564   1.855 241.752   6.923  25.107 211.220

                      1                      2                      3
                      A                      A                      A
 Frequencies --     16.9447                22.2912                27.4485
 Red. masses --      4.3211                 3.9576                 4.5860
 Frc consts  --      0.0007                 0.0012                 0.0020
 IR Inten    --      0.5517                 4.0283                 0.7525

                      4                      5                      6
                      A                      A                      A
 Frequencies --     29.1907                54.0678                62.5907
 Red. masses --      3.8796                 3.0817                 3.3273
 Frc consts  --      0.0019                 0.0053                 0.0077
 IR Inten    --      1.1775                 1.5483                 3.4903

                      7                      8                      9
                      A                      A                      A
 Frequencies --     77.5091                84.2069               111.7100
 Red. masses --      4.3087                 3.5928                 5.3526
 Frc consts  --      0.0153                 0.0150                 0.0394
 IR Inten    --      0.5942                 0.1287                 1.8917

                     10                     11                     12
                      A                      A                      A
 Frequencies --    144.6694               186.8084               207.5020
 Red. masses --      4.8245                 1.7145                 2.0227
 Frc consts  --      0.0595                 0.0353                 0.0513
 IR Inten    --      0.3754                 2.8274                 2.7423

                     13                     14                     15
                      A                      A                      A
 Frequencies --    214.7110               218.6207               239.8601
 Red. masses --      3.4402                 1.3862                 1.8342
 Frc consts  --      0.0934                 0.0390                 0.0622
 IR Inten    --      1.6021                 1.4244                 0.6525

                     16                     17                     18
                      A                      A                      A
 Frequencies --    247.9186               270.6621               294.0700
 Red. masses --      2.4713                 2.8220                 2.8935
 Frc consts  --      0.0895                 0.1218                 0.1474
 IR Inten    --      4.7542                 6.8223                 2.7145

                     19                     20                     21
                      A                      A                      A
 Frequencies --    327.9196               341.5944               358.8440
 Red. masses --      7.9013                 3.8822                 3.1981
 Frc consts  --      0.5006                 0.2669                 0.2426
 IR Inten    --      4.4748                 2.6256                 3.2968

                     22                     23                     24
                      A                      A                      A
 Frequencies --    370.8993               393.9225               429.0532
 Red. masses --      4.7455                 3.7325                 2.0598
 Frc consts  --      0.3846                 0.3412                 0.2234
 IR Inten    --      2.3640                 1.7876                 0.0314

                     25                     26                     27
                      A                      A                      A
 Frequencies --    474.1842               483.4252               506.6474
 Red. masses --      3.8530                 5.4776                 5.8121
 Frc consts  --      0.5104                 0.7542                 0.8790
 IR Inten    --      2.7362                12.4708                 8.2895

                     28                     29                     30
                      A                      A                      A
 Frequencies --    597.4119               607.5560               629.8709
 Red. masses --      6.7246                 2.4422                 4.1567
 Frc consts  --      1.4141                 0.5311                 0.9716
 IR Inten    --     58.9385                16.8967                 8.7695

                     31                     32                     33
                      A                      A                      A
 Frequencies --    664.8324               690.1974               701.0722
 Red. masses --      5.4016                 3.8215                 8.1120
 Frc consts  --      1.4067                 1.0726                 2.3491
 IR Inten    --     27.2554                 5.4333               202.6572

                     34                     35                     36
                      A                      A                      A
 Frequencies --    741.0218               775.3827               816.9300
 Red. masses --      1.4895                 3.2895                 1.2931
 Frc consts  --      0.4819                 1.1652                 0.5084
 IR Inten    --    103.8170                45.6339                31.0700

                     37                     38                     39
                      A                      A                      A
 Frequencies --    825.4803               880.3716               898.6771
 Red. masses --      2.2552                 1.3384                 2.2536
 Frc consts  --      0.9054                 0.6112                 1.0724
 IR Inten    --      2.3240                 0.7242                 0.2017

                     40                     41                     42
                      A                      A                      A
 Frequencies --    917.8868               940.9709               942.1699
 Red. masses --      1.7331                 3.0314                 3.3498
 Frc consts  --      0.8603                 1.5814                 1.7520
 IR Inten    --      8.2706                48.0850               118.1962

                     43                     44                     45
                      A                      A                      A
 Frequencies --    952.2536               976.5582               985.3174
 Red. masses --      3.0940                 2.2500                 2.0961
 Frc consts  --      1.6530                 1.2643                 1.1990
 IR Inten    --      6.3261                12.1261                48.6447

                     46                     47                     48
                      A                      A                      A
 Frequencies --    987.8289               998.6131              1042.3678
 Red. masses --      2.1662                 3.0952                 1.5844
 Frc consts  --      1.2454                 1.8186                 1.0143
 IR Inten    --      6.3197                 6.1845                14.2944

                     49                     50                     51
                      A                      A                      A
 Frequencies --   1045.8547              1052.9897              1078.5021
 Red. masses --      2.8698                 1.6548                 1.5993
 Frc consts  --      1.8494                 1.0810                 1.0961
 IR Inten    --     12.9853                13.2298                18.2311

                     52                     53                     54
                      A                      A                      A
 Frequencies --   1116.0513              1124.3719              1133.9757
 Red. masses --      9.6218                 3.7943                 1.2319
 Frc consts  --      7.0611                 2.8262                 0.9333
 IR Inten    --    164.4535                17.7099                 3.0924

                     55                     56                     57
                      A                      A                      A
 Frequencies --   1135.1605              1165.4615              1173.1734
 Red. masses --      4.3870                 2.1332                 2.9107
 Frc consts  --      3.3307                 1.7071                 2.3603
 IR Inten    --     87.8104                20.2699                56.5973

                     58                     59                     60
                      A                      A                      A
 Frequencies --   1183.7889              1192.4375              1211.6347
 Red. masses --      1.3892                 2.7136                 1.4760
 Frc consts  --      1.1470                 2.2734                 1.2766
 IR Inten    --      1.9499                39.1083                 3.5221

                     61                     62                     63
                      A                      A                      A
 Frequencies --   1219.0323              1221.6778              1246.0179
 Red. masses --      3.3572                 1.4088                 1.6563
 Frc consts  --      2.9394                 1.2389                 1.5151
 IR Inten    --     54.4987                 2.0101                 3.0335

                     64                     65                     66
                      A                      A                      A
 Frequencies --   1256.6875              1262.9533              1285.2647
 Red. masses --      1.4616                 1.9077                 1.7395
 Frc consts  --      1.3600                 1.7929                 1.6930
 IR Inten    --     11.4092                 5.1252                 5.2962

                     67                     68                     69
                      A                      A                      A
 Frequencies --   1286.3773              1315.0846              1324.8130
 Red. masses --      1.7754                 1.3435                 1.2463
 Frc consts  --      1.7310                 1.3690                 1.2888
 IR Inten    --     21.5137                 2.7997                 7.4983

                     70                     71                     72
                      A                      A                      A
 Frequencies --   1330.5304              1344.7622              1378.4949
 Red. masses --     15.4207                 1.2391                 1.2768
 Frc consts  --     16.0844                 1.3202                 1.4295
 IR Inten    --    169.8089                 1.8401                 6.5212

                     73                     74                     75
                      A                      A                      A
 Frequencies --   1387.3196              1402.0046              1409.1508
 Red. masses --      1.3147                 1.3408                 2.5797
 Frc consts  --      1.4908                 1.5527                 3.0181
 IR Inten    --      3.1084                64.8333                 3.6700

                     76                     77                     78
                      A                      A                      A
 Frequencies --   1420.7259              1432.6454              1463.4045
 Red. masses --      1.4266                 1.3799                 1.1470
 Frc consts  --      1.6965                 1.6687                 1.4472
 IR Inten    --      1.1044                 2.0426                 0.7847

                     79                     80                     81
                      A                      A                      A
 Frequencies --   1493.1031              1502.3293              1512.7768
 Red. masses --      1.1552                 1.0883                 1.0968
 Frc consts  --      1.5173                 1.4472                 1.4789
 IR Inten    --      1.7849                 4.2987                 6.6061

                     82                     83                     84
                      A                      A                      A
 Frequencies --   1516.4989              1517.6294              1526.7411
 Red. masses --      1.0598                 1.2117                 1.0521
 Frc consts  --      1.4360                 1.6442                 1.4449
 IR Inten    --     17.8187                17.2972                 7.7639

                     85                     86                     87
                      A                      A                      A
 Frequencies --   1528.3433              1530.7377              1544.0673
 Red. masses --      1.1036                 1.0489                 1.0542
 Frc consts  --      1.5187                 1.4481                 1.4808
 IR Inten    --      9.0507                10.9812                 9.1608

                     88                     89                     90
                      A                      A                      A
 Frequencies --   1546.9227              1557.2531              1560.1328
 Red. masses --      1.0876                 6.4957                 1.1180
 Frc consts  --      1.5334                 9.2810                 1.6033
 IR Inten    --      2.9488                15.8086                 1.1865

                     91                     92                     93
                      A                      A                      A
 Frequencies --   1647.4355              2984.0814              2994.6858
 Red. masses --      6.4567                 1.0730                 1.0678
 Frc consts  --     10.3247                 5.6295                 5.6422
 IR Inten    --      6.8278                89.2385                49.9908

                     94                     95                     96
                      A                      A                      A
 Frequencies --   3019.0342              3024.7804              3027.8976
 Red. masses --      1.0705                 1.0492                 1.0724
 Frc consts  --      5.7489                 5.6561                 5.7927
 IR Inten    --     22.7454                59.0863                19.9085

                     97                     98                     99
                      A                      A                      A
 Frequencies --   3032.1185              3042.6853              3056.9626
 Red. masses --      1.0607                 1.0417                 1.0850
 Frc consts  --      5.7456                 5.6820                 5.9738
 IR Inten    --     55.7597                49.1539                14.3587

                    100                    101                    102
                      A                      A                      A
 Frequencies --   3061.0470              3064.0392              3074.1918
 Red. masses --      1.0885                 1.0907                 1.1034
 Frc consts  --      6.0091                 6.0330                 6.1438
 IR Inten    --     51.4670                15.8724                52.4639

                    103                    104                    105
                      A                      A                      A
 Frequencies --   3109.4003              3113.5774              3119.5521
 Red. masses --      1.0916                 1.0907                 1.0973
 Frc consts  --      6.2182                 6.2296                 6.2917
 IR Inten    --     41.6017                21.6173                20.2213

                    106                    107                    108
                      A                      A                      A
 Frequencies --   3122.9708              3166.9379              3185.8701
 Red. masses --      1.1016                 1.1020                 1.0993
 Frc consts  --      6.3299                 6.5119                 6.5737
 IR Inten    --     38.3756                 3.0055                 2.2593

                    109                    110                    111
                      A                      A                      A
 Frequencies --   3270.1536              3299.1854              3500.4021
 Red. masses --      1.0956                 1.0992                 1.0740
 Frc consts  --      6.9031                 7.0495                 7.7537
 IR Inten    --      2.8502                 0.7154                 0.0960

 - Thermochemistry -
 -------------------
 Temperature   298.150 Kelvin.  Pressure   1.00000 Atm.
 Atom     1 has atomic number  6 and mass  12.00000

 Molecular mass:   288.11438 amu.
 Principal axes and moments of inertia in atomic units:
                           1         2         3
     Eigenvalues --  1986.94505********************
           X            0.99995  -0.00959   0.00402
           Y            0.00961   0.99993  -0.00621
           Z           -0.00396   0.00625   0.99997
 This molecule is an asymmetric top.
 Rotational symmetry number  1.
 Warning -- assumption of classical behavior for rotation
           may cause significant error
 Rotational temperatures (Kelvin)      0.04359     0.00565     0.00527
 Rotational constants (GHZ):           0.90830     0.11768     0.10983
 Zero-point vibrational energy     859061.9 (Joules/Mol)
                                  205.32072 (Kcal/Mol)
 Warning -- explicit consideration of  29 degrees of freedom as
           vibrations may cause significant error
 Vibrational temperatures:     24.38    32.07    39.49    42.00    77.79
          (Kelvin)             90.05   111.52   121.15   160.73   208.15
                              268.78   298.55   308.92   314.55   345.11
                              356.70   389.42   423.10   471.80   491.48
                              516.30   533.64   566.77   617.31   682.25
                              695.54   728.95   859.54   874.14   906.24
                              956.55   993.04  1008.69  1066.17  1115.60
                             1175.38  1187.68  1266.66  1293.00  1320.63
                             1353.85  1355.57  1370.08  1405.05  1417.65
                             1421.27  1436.78  1499.73  1504.75  1515.02
                             1551.72  1605.75  1617.72  1631.54  1633.24
                             1676.84  1687.93  1703.21  1715.65  1743.27
                             1753.92  1757.72  1792.74  1808.09  1817.11
                             1849.21  1850.81  1892.11  1906.11  1914.34
                             1934.81  1983.35  1996.04  2017.17  2027.45
                             2044.11  2061.26  2105.51  2148.24  2161.52
                             2176.55  2181.90  2183.53  2196.64  2198.95
                             2202.39  2221.57  2225.68  2240.54  2244.68
                             2370.29  4293.43  4308.68  4343.72  4351.98
                             4356.47  4362.54  4377.75  4398.29  4404.16
                             4408.47  4423.08  4473.73  4479.74  4488.34
                             4493.26  4556.52  4583.76  4705.02  4746.79
                             5036.30

 Zero-point correction=                           0.327199 (Hartree/Particle)
 Thermal correction to Energy=                    0.347098
 Thermal correction to Enthalpy=                  0.348042
 Thermal correction to Gibbs Free Energy=         0.274594
 Sum of electronic and zero-point Energies=          -1277.517704
 Sum of electronic and thermal Energies=             -1277.497806
 Sum of electronic and thermal Enthalpies=           -1277.496861
 Sum of electronic and thermal Free Energies=        -1277.570309

                     E (Thermal)             CV                S
                      KCal/Mol        Cal/Mol-Kelvin    Cal/Mol-Kelvin
 Total                  217.807             72.298            154.584
 Electronic               0.000              0.000              0.000
 Translational            0.889              2.981             42.872
 Rotational               0.889              2.981             34.570
 Vibrational            216.030             66.336             77.142
 Vibration     1          0.593              1.986              6.963
 Vibration     2          0.593              1.985              6.419
 Vibration     3          0.593              1.984              6.006
 Vibration     4          0.593              1.984              5.884
 Vibration     5          0.596              1.976              4.663
 Vibration     6          0.597              1.972              4.374
 Vibration     7          0.599              1.964              3.953
 Vibration     8          0.601              1.960              3.790
 Vibration     9          0.607              1.940              3.239
 Vibration    10          0.616              1.908              2.741
 Vibration    11          0.632              1.858              2.259
 Vibration    12          0.641              1.829              2.066
 Vibration    13          0.645              1.819              2.003
 Vibration    14          0.646              1.813              1.970
 Vibration    15          0.657              1.779              1.804
 Vibration    16          0.662              1.766              1.745
 Vibration    17          0.674              1.727              1.592
 Vibration    18          0.689              1.685              1.450
 Vibration    19          0.711              1.620              1.270
 Vibration    20          0.721              1.592              1.205
 Vibration    21          0.734              1.557              1.127
 Vibration    22          0.743              1.532              1.076
 Vibration    23          0.761              1.483              0.985
 Vibration    24          0.790              1.407              0.862
 Vibration    25          0.831              1.307              0.726
 Vibration    26          0.840              1.287              0.701
 Vibration    27          0.862              1.235              0.642
 Vibration    28          0.955              1.037              0.454
 Vibration    29          0.966              1.016              0.437

 Optimization completed.
    -- Stationary point found.
 Normal termination of Gaussian 16 at Sun Dec 13 20:59:14 2020.

 ----------------------------------------------------------------------
 # B3LYP/6-311++G(d,p) empiricaldispersion=gd3bj scf=xqc pop=npa geom=c
 heck
 ----------------------------------------------------------------------

 --------------------------------------
 CID_65578691_JID_9246_Energie_neutraal
 --------------------------------------
 Structure from the checkpoint file:  "JID_9246.chk"
 Charge =  0 Multiplicity = 1

 SCF Done:  E(RB3LYP) =  -1278.12269829     A.U. after   15 cycles
 Normal termination of Gaussian 16 at Sun Dec 13 21:08:14 2020.

 ----------------------------------------------------------------------
 # B3LYP/6-311++G(d,p) empiricaldispersion=gd3bj scf=xqc pop=npa geom=c
 heck
 ----------------------------------------------------------------------

 ------------------------------------
 CID_65578691_JID_9246_Energie_kation
 ------------------------------------
 Structure from the checkpoint file:  "JID_9246.chk"
 Charge =  1 Multiplicity = 2

 SCF Done:  E(UB3LYP) =  -1277.82224576     A.U. after   28 cycles
 Normal termination of Gaussian 16 at Sun Dec 13 21:32:44 2020.
 Gaussian 16:  ES64L-G16RevA.03 25-Dec-2016

 ----------------------------------------------------------------------
 # B3LYP/6-311++G(d,p) empiricaldispersion=gd3bj scf=xqc pop=npa geom=c
 heck
 ----------------------------------------------------------------------

 -----------------------------------
 CID_65578691_JID_9246_Energie_anion
 -----------------------------------
 Structure from the checkpoint file:  "JID_9246.chk"
 Charge = -1 Multiplicity = 2

                         Standard orientation:
 ---------------------------------------------------------------------
 Center     Atomic      Atomic             Coordinates (Angstroms)
 Number     Number       Type             X           Y           Z
 ---------------------------------------------------------------------
      1          6           0       -4.999244    1.683734   -0.892604
      2          7           0       -3.658806    1.188634   -0.551752
      3          6           0       -2.728179    2.241133   -0.120379
      4         16           0       -3.675845   -0.165870    0.472121
      5          8           0       -3.544243    0.235900    1.875643
      6          8           0       -4.774550   -1.025217    0.027569
      7          6           0       -2.191695   -0.988919   -0.006297
      8          6           0       -1.998637   -2.123112   -0.736820
      9          6           0       -0.578742   -2.294728   -0.801026
     10          6           0       -0.018541   -1.256533   -0.109211
     11          8           0       -1.004789   -0.451258    0.389761
     12          6           0        1.386686   -0.841624    0.163107
     13          7           0        1.666832    0.457388   -0.445223
     14          6           0        2.897981    1.119852   -0.030915
     15          6           0        4.240676    0.495730   -0.450287
     16          6           0        4.662634   -0.800147    0.268966
     17          6           0        6.186435   -0.722624    0.183854
     18          8           0        6.497652    0.652090    0.381646
     19          6           0        5.428422    1.442863   -0.137859
     20          1           0       -4.887518    2.380944   -1.728009
     21          1           0       -5.482049    2.207727   -0.054785
     22          1           0       -5.624658    0.848225   -1.205535
     23          1           0       -3.058160    2.739134    0.800813
     24          1           0       -1.732997    1.820782    0.035896
     25          1           0       -2.669024    2.975315   -0.928998
     26          1           0       -2.773439   -2.740515   -1.165313
     27          1           0       -0.040588   -3.090247   -1.297219
     28          1           0        1.535597   -0.734990    1.245350
     29          1           0        2.041153   -1.664614   -0.166743
     30          1           0        1.624558    0.379541   -1.459287
     31          1           0        2.853200    2.142203   -0.428763
     32          1           0        2.875230    1.213228    1.063696
     33          1           0        4.210022    0.305308   -1.532298
     34          1           0        4.259868   -1.706430   -0.191944
     35          1           0        4.343685   -0.775246    1.318245
     36          1           0        6.706935   -1.299053    0.954330
     37          1           0        6.538829   -1.066906   -0.803261
     38          1           0        5.755987    1.984446   -1.036063
     39          1           0        5.161377    2.187057    0.624647
 ---------------------------------------------------------------------

 SCF Done:  E(UB3LYP) =  -1278.11850560     A.U. after   33 cycles
 SCF Done:  E(UB3LYP) =  -1278.11850560     a.u. after    1 cycles

 The electronic state is 2-A.
 Alpha  occ. eigenvalues --  -88.97082 -19.09763 -19.03699 -19.02562 -19.02359
 Alpha  occ. eigenvalues --  -14.25603 -14.21443 -10.14467 -10.13572 -10.13011
 Alpha  occ. eigenvalues --  -10.12975 -10.11972 -10.11593 -10.11322 -10.11183
 Alpha  occ. eigenvalues --  -10.09204 -10.08942 -10.08592 -10.08479  -8.03204
 Alpha  occ. eigenvalues --   -5.99472  -5.99445  -5.99339  -1.03550  -1.01969
 Alpha  occ. eigenvalues --   -0.95476  -0.91728  -0.84753  -0.82576  -0.71910
 Alpha  occ. eigenvalues --   -0.71515  -0.69265  -0.66238  -0.63994  -0.63091
 Alpha  occ. eigenvalues --   -0.59675  -0.55816  -0.52781  -0.51702  -0.50682
 Alpha  occ. eigenvalues --   -0.49634  -0.46919  -0.45234  -0.42698  -0.42106
 Alpha  occ. eigenvalues --   -0.41497  -0.40137  -0.39068  -0.38187  -0.37448
 Alpha  occ. eigenvalues --   -0.36368  -0.35794  -0.35100  -0.34878  -0.34460
 Alpha  occ. eigenvalues --   -0.33263  -0.32726  -0.32672  -0.32005  -0.31812
 Alpha  occ. eigenvalues --   -0.30582  -0.29600  -0.29201  -0.28428  -0.27223
 Alpha  occ. eigenvalues --   -0.26355  -0.25511  -0.24498  -0.23405  -0.23377
 Alpha  occ. eigenvalues --   -0.22708  -0.21846  -0.20044  -0.17341  -0.17229
 Alpha  occ. eigenvalues --   -0.14649  -0.14109   0.03622
 Alpha virt. eigenvalues --    0.05046   0.06141   0.06655   0.06882   0.07396
 Alpha virt. eigenvalues --    0.08218   0.08883   0.09131   0.09370   0.09773
 Alpha virt. eigenvalues --    0.09979   0.10215   0.11339   0.11629   0.11911

  Beta  occ. eigenvalues --  -88.97072 -19.09640 -19.03698 -19.02550 -19.02340
  Beta  occ. eigenvalues --  -14.25587 -14.21419 -10.14370 -10.13438 -10.12998
  Beta  occ. eigenvalues --  -10.12955 -10.11974 -10.11559 -10.11318 -10.11168
  Beta  occ. eigenvalues --  -10.09186 -10.08880 -10.08577 -10.08506  -8.03193
  Beta  occ. eigenvalues --   -5.99457  -5.99419  -5.99334  -1.03405  -1.01841
  Beta  occ. eigenvalues --   -0.95467  -0.91690  -0.84709  -0.82524  -0.71793
  Beta  occ. eigenvalues --   -0.71433  -0.69094  -0.66195  -0.63918  -0.63023
  Beta  occ. eigenvalues --   -0.59605  -0.55753  -0.52691  -0.51647  -0.50589
  Beta  occ. eigenvalues --   -0.49594  -0.46779  -0.45170  -0.42613  -0.42049
  Beta  occ. eigenvalues --   -0.41442  -0.40075  -0.39032  -0.37904  -0.37402
  Beta  occ. eigenvalues --   -0.36309  -0.35703  -0.35023  -0.34796  -0.34345
  Beta  occ. eigenvalues --   -0.33189  -0.32664  -0.32644  -0.31975  -0.31722
  Beta  occ. eigenvalues --   -0.30506  -0.29561  -0.29163  -0.28353  -0.27184
  Beta  occ. eigenvalues --   -0.26315  -0.25466  -0.24456  -0.23383  -0.23355
  Beta  occ. eigenvalues --   -0.22622  -0.21770  -0.19625  -0.17238  -0.17174
  Beta  occ. eigenvalues --   -0.14399  -0.13762
  Beta virt. eigenvalues --    0.05803   0.05993   0.07015   0.07119   0.07219
  Beta virt. eigenvalues --    0.07718   0.08329   0.09058   0.09253   0.09642
  Beta virt. eigenvalues --    0.10001   0.10114   0.10385   0.11452   0.11606

 Mulliken charges and spin densities:
               1          2
     1  C    0.113188  -0.409361
     2  N   -0.159860   0.126907
     3  C   -0.314642  -0.178296
     4  S    1.014304  -0.426083
     5  O   -0.076810  -0.028721
     6  O   -0.250734   0.004916
     7  C   -0.752763  -0.009042
     8  C   -0.024376   0.239410
     9  C   -0.405995   0.208603
    10  C   -0.064125  -0.260636
    11  O    0.101176   0.033055
    12  C   -0.317117   0.031752
    13  N   -0.051131   0.063838
    14  C   -0.000235  -0.860011
    15  C   -0.290132   1.015104
    16  C    0.122868  -0.283029
    17  C    0.180779  -0.778859
    18  O   -0.185720   0.043068
    19  C    0.329100  -0.866429
    20  H   -0.132307   0.278559
    21  H    0.010558   0.132658
    22  H    0.071992   0.104845
    23  H    0.055916   0.121586
    24  H    0.291932  -0.069925
    25  H   -0.046481   0.184531
    26  H    0.161767   0.025762
    27  H   -0.383485   0.559933
    28  H    0.179898  -0.010599
    29  H    0.152385  -0.030009
    30  H    0.068959   0.134240
    31  H    0.009729   0.158572
    32  H    0.163193   0.016506
    33  H   -0.307702   0.505866
    34  H   -0.246959   0.376253
    35  H    0.130786   0.050627
    36  H   -0.007724   0.164508
    37  H   -0.193000   0.353843
    38  H   -0.067354   0.230852
    39  H    0.120123   0.045206
 Sum of Mulliken charges =  -1.00000   1.00000

 Dipole moment (field-independent basis, Debye):
    X=             -1.4632    Y=              1.0720    Z=              1.7163  Tot=              2.4972
 Quadrupole moment (field-independent basis, Debye-Ang):
   XX=           -253.3395   YY=           -154.8739   ZZ=           -155.5169
   XY=              2.0493   XZ=             16.1398   YZ=             -1.0470

 Summary of Natural Population Analysis:

                                       Natural Population
                Natural  -----------------------------------------------
    Atom  No    Charge         Core      Valence    Rydberg      Total
 -----------------------------------------------------------------------
      C    1   -0.18357      0.99964     2.17471    0.00923     3.18357
      N    2   -0.36182      0.99976     2.84896    0.01310     3.86182
      C    3   -0.18748      0.99963     2.17819    0.00966     3.18748
      S    4    1.10649      4.99912     1.79249    0.10190     6.89351
      O    5   -0.45676      0.99991     3.45160    0.00526     4.45676
      O    6   -0.46310      0.99991     3.45792    0.00528     4.46310
      C    7    0.02443      0.99934     1.95584    0.02039     2.97557
      C    8   -0.11685      0.99949     2.10781    0.00955     3.11685
      C    9   -0.15732      0.99950     2.14905    0.00878     3.15732
      C   10    0.18022      0.99947     1.80521    0.01509     2.81978
      O   11   -0.22093      0.99984     3.21287    0.00822     4.22093
      C   12   -0.11155      0.99957     2.10109    0.01089     3.11155
      N   13   -0.33149      0.99974     2.82076    0.01099     3.83149
      C   14   -0.08196      0.99960     2.06950    0.01286     3.08196
      C   15   -0.13362      0.99960     2.12316    0.01087     3.13362
      C   16   -0.20580      0.99962     2.19709    0.00909     3.20580
      C   17   -0.00805      0.99960     1.99547    0.01297     3.00805
      O   18   -0.30345      0.99989     3.29496    0.00859     4.30345
      C   19   -0.00666      0.99958     1.99411    0.01298     3.00666
      H   20    0.09928      0.00000     0.39954    0.00119     0.40072
      H   21    0.08797      0.00000     0.41068    0.00135     0.41203
      H   22    0.11132      0.00000     0.38763    0.00105     0.38868
      H   23    0.09286      0.00000     0.40606    0.00108     0.40714
      H   24    0.11293      0.00000     0.38570    0.00137     0.38707
      H   25    0.09830      0.00000     0.40059    0.00111     0.40170
      H   26    0.11527      0.00000     0.38395    0.00078     0.38473
      H   27    0.11105      0.00000     0.38798    0.00097     0.38895
      H   28    0.10044      0.00000     0.39821    0.00135     0.39956
      H   29    0.09269      0.00000     0.40573    0.00158     0.40731
      H   30    0.17351      0.00000     0.32383    0.00267     0.32649
      H   31    0.09579      0.00000     0.40329    0.00092     0.40421
      H   32    0.08948      0.00000     0.40933    0.00119     0.41052
      H   33    0.10029      0.00000     0.39646    0.00325     0.39971
      H   34    0.10830      0.00000     0.39007    0.00163     0.39170
      H   35    0.09490      0.00000     0.40391    0.00119     0.40510
      H   36    0.08836      0.00000     0.41052    0.00112     0.41164
      H   37    0.07946      0.00000     0.41883    0.00171     0.42054
      H   38    0.08484      0.00000     0.41380    0.00136     0.41516
      H   39    0.08227      0.00000     0.41652    0.00121     0.41773
 =======================================================================
   * Total *   -0.00000     22.99281    53.68342    0.32377    77.00000

 Normal termination of Gaussian 16 at Sun Dec 13 22:00:49 2020.
