 Gaussian 16, Revision A.03,

 -----------------------------------------------------------
 # opt freq B3LYP/6-31G(d) empiricaldispersion=gd3bj scf=xqc
 -----------------------------------------------------------

 -------------------------------
 CID_148403867_JID_2222_neutraal
 -------------------------------
 Symbolic Z-matrix:
 Charge =  0 Multiplicity = 1

 SCF Done:  E(RB3LYP) =  -896.130241196     A.U. after   15 cycles
 SCF Done:  E(RB3LYP) =  -896.153463539     A.U. after   12 cycles
 SCF Done:  E(RB3LYP) =  -896.158253488     A.U. after   12 cycles
 SCF Done:  E(RB3LYP) =  -896.159011316     A.U. after   12 cycles
 SCF Done:  E(RB3LYP) =  -896.159054746     A.U. after   10 cycles
 SCF Done:  E(RB3LYP) =  -896.159099534     A.U. after   10 cycles
 SCF Done:  E(RB3LYP) =  -896.159120299     A.U. after    9 cycles
 SCF Done:  E(RB3LYP) =  -896.159138057     A.U. after   10 cycles
 SCF Done:  E(RB3LYP) =  -896.159143358     A.U. after    9 cycles
 SCF Done:  E(RB3LYP) =  -896.159145326     A.U. after    9 cycles
 SCF Done:  E(RB3LYP) =  -896.159230193     A.U. after    9 cycles
 SCF Done:  E(RB3LYP) =  -896.159230546     A.U. after    8 cycles
 SCF Done:  E(RB3LYP) =  -896.159230714     A.U. after    8 cycles
 SCF Done:  E(RB3LYP) =  -896.159230802     A.U. after    7 cycles
 SCF Done:  E(RB3LYP) =  -896.159230824     A.U. after    7 cycles
 Optimization completed.
    -- Stationary point found.
 Normal termination of Gaussian 16 at Wed Dec  9 17:19:53 2020.

 --------------------------------------------------------------------
 #N Geom=AllCheck Guess=TCheck SCRF=Check GenChk RB3LYP/6-31G(d) Freq
 --------------------------------------------------------------------

 Structure from the checkpoint file:  "JID_2222.chk"
 -------------------------------
 CID_148403867_JID_2222_neutraal
 -------------------------------
 Charge =  0 Multiplicity = 1

 SCF Done:  E(RB3LYP) =  -896.159230824     A.U. after    1 cycles

  Exact polarizability: 152.678   6.119 101.178  -2.659   0.224  89.164
 Approx polarizability: 190.438   2.444 153.666  -4.220  -1.692 140.255

                      1                      2                      3
                      A                      A                      A
 Frequencies --     34.6862                50.6410                53.7228
 Red. masses --      3.3815                 5.9993                 3.4838
 Frc consts  --      0.0024                 0.0091                 0.0059
 IR Inten    --      0.2504                 0.7670                 0.9034

                      4                      5                      6
                      A                      A                      A
 Frequencies --     70.9095               123.3542               134.7308
 Red. masses --      3.5333                 3.2602                 3.1808
 Frc consts  --      0.0105                 0.0292                 0.0340
 IR Inten    --      0.7129                 1.6653                 0.7718

                      7                      8                      9
                      A                      A                      A
 Frequencies --    159.3190               166.7528               247.9804
 Red. masses --      1.0609                 1.3142                 3.6537
 Frc consts  --      0.0159                 0.0215                 0.1324
 IR Inten    --      0.5523                 0.4861                 5.3020

                     10                     11                     12
                      A                      A                      A
 Frequencies --    290.6851               313.5498               387.2483
 Red. masses --      4.8719                 3.8957                 4.8365
 Frc consts  --      0.2425                 0.2257                 0.4273
 IR Inten    --      1.5627                 2.4088                12.9028

                     13                     14                     15
                      A                      A                      A
 Frequencies --    416.1011               439.0233               510.2972
 Red. masses --      2.6678                 4.0290                 1.2980
 Frc consts  --      0.2721                 0.4575                 0.1991
 IR Inten    --      4.4175                 5.9940                15.4482

                     16                     17                     18
                      A                      A                      A
 Frequencies --    525.1209               553.0136               564.5445
 Red. masses --      2.8059                 2.2525                 2.0270
 Frc consts  --      0.4559                 0.4059                 0.3806
 IR Inten    --      8.4346                39.1854                 2.7914

                     19                     20                     21
                      A                      A                      A
 Frequencies --    581.1277               619.3761               694.5448
 Red. masses --      2.1273                 2.0173                 3.0000
 Frc consts  --      0.4233                 0.4560                 0.8527
 IR Inten    --     20.8415                48.3111                 7.4072

                     22                     23                     24
                      A                      A                      A
 Frequencies --    705.2477               723.3163               783.4264
 Red. masses --      4.0503                 3.7779                 3.2411
 Frc consts  --      1.1869                 1.1646                 1.1720
 IR Inten    --      3.1142                12.8868                 1.9801

                     25                     26                     27
                      A                      A                      A
 Frequencies --    815.3384               876.8713               889.6171
 Red. masses --      3.4770                 2.7349                 2.8472
 Frc consts  --      1.3619                 1.2390                 1.3276
 IR Inten    --      6.9311                39.6697                 4.3860

                     28                     29                     30
                      A                      A                      A
 Frequencies --    948.6161               981.7655               989.4745
 Red. masses --      4.0981                 1.2511                 1.1902
 Frc consts  --      2.1728                 0.7105                 0.6866
 IR Inten    --      1.2710                 0.0489                 2.7991

                     31                     32                     33
                      A                      A                      A
 Frequencies --    993.7363               999.4741              1024.2494
 Red. masses --      1.0214                 1.3504                 1.6699
 Frc consts  --      0.5943                 0.7948                 1.0322
 IR Inten    --      0.2320                 9.2605                11.1754

                     34                     35                     36
                      A                      A                      A
 Frequencies --   1065.5134              1068.4415              1081.0711
 Red. masses --      2.7594                 1.8074                 2.3482
 Frc consts  --      1.8458                 1.2156                 1.6169
 IR Inten    --      7.4680                10.0292                 9.7930

                     37                     38                     39
                      A                      A                      A
 Frequencies --   1129.9145              1142.2317              1146.2572
 Red. masses --      1.4236                 1.3482                 1.5304
 Frc consts  --      1.0708                 1.0364                 1.1848
 IR Inten    --      3.8548                 1.5001                10.2562

                     40                     41                     42
                      A                      A                      A
 Frequencies --   1160.4561              1169.1959              1190.5024
 Red. masses --      1.4174                 1.3972                 2.3285
 Frc consts  --      1.1246                 1.1253                 1.9444
 IR Inten    --      0.1093                 0.8964                 1.0323

                     43                     44                     45
                      A                      A                      A
 Frequencies --   1202.8606              1322.8245              1358.4063
 Red. masses --      2.3212                 3.0752                 2.3371
 Frc consts  --      1.9788                 3.1705                 2.5409
 IR Inten    --      0.8190               289.2919               205.9596

                     46                     47                     48
                      A                      A                      A
 Frequencies --   1376.4767              1380.3135              1420.9162
 Red. masses --      1.7586                 1.6187                 1.2763
 Frc consts  --      1.9631                 1.8171                 1.5182
 IR Inten    --     16.5183                 6.7499                 1.8509

                     49                     50                     51
                      A                      A                      A
 Frequencies --   1426.0447              1480.8787              1488.3582
 Red. masses --      1.5353                 2.0667                 1.0538
 Frc consts  --      1.8395                 2.6703                 1.3753
 IR Inten    --     89.4603                78.7927                 6.3754

                     52                     53                     54
                      A                      A                      A
 Frequencies --   1502.1768              1510.8624              1513.5765
 Red. masses --      1.0658                 1.0534                 1.0512
 Frc consts  --      1.4171                 1.4167                 1.4189
 IR Inten    --     13.3780                10.3115                10.3556

                     55                     56                     57
                      A                      A                      A
 Frequencies --   1523.5103              1526.5061              1591.6789
 Red. masses --      1.1000                 1.0979                 1.2892
 Frc consts  --      1.5042                 1.5074                 1.9244
 IR Inten    --      0.8900                 0.9671                 0.5810

                     58                     59                     60
                      A                      A                      A
 Frequencies --   1800.4429              3062.3048              3066.2796
 Red. masses --      8.0655                 1.0295                 1.0512
 Frc consts  --     15.4042                 5.6880                 5.8232
 IR Inten    --    446.6054                21.7629                35.7540

                     61                     62                     63
                      A                      A                      A
 Frequencies --   3068.3501              3070.2665              3081.2627
 Red. masses --      1.0416                 1.0539                 1.0544
 Frc consts  --      5.7780                 5.8533                 5.8984
 IR Inten    --     12.8101                36.5094                 8.9834

                     64                     65                     66
                      A                      A                      A
 Frequencies --   3131.3069              3135.7044              3139.4477
 Red. masses --      1.1017                 1.1112                 1.1108
 Frc consts  --      6.3642                 6.4374                 6.4504
 IR Inten    --     13.6228                10.1623                40.4169

                     67                     68                     69
                      A                      A                      A
 Frequencies --   3146.4689              3149.1699              3159.6228
 Red. masses --      1.1117                 1.1039                 1.1085
 Frc consts  --      6.4847                 6.4504                 6.5204
 IR Inten    --     37.6207                11.1663                10.2754

                     70                     71                     72
                      A                      A                      A
 Frequencies --   3180.8601              3522.4728              3594.9154
 Red. masses --      1.1018                 1.0752                 1.0760
 Frc consts  --      6.5680                 7.8601                 8.1927
 IR Inten    --     10.4129                 6.8363                21.1237

 - Thermochemistry -
 -------------------
 Temperature   298.150 Kelvin.  Pressure   1.00000 Atm.
 Atom     1 has atomic number  6 and mass  12.00000

 Molecular mass:   186.08268 amu.
 Principal axes and moments of inertia in atomic units:
                           1         2         3
     Eigenvalues --   686.125815413.693955595.56746
           X            0.99977   0.02122   0.00271
           Y           -0.02121   0.99975  -0.00671
           Z           -0.00285   0.00665   0.99997
 This molecule is an asymmetric top.
 Rotational symmetry number  1.
 Warning -- assumption of classical behavior for rotation
           may cause significant error
 Rotational temperatures (Kelvin)      0.12624     0.01600     0.01548
 Rotational constants (GHZ):           2.63034     0.33337     0.32253
 Zero-point vibrational energy     572746.3 (Joules/Mol)
                                  136.88966 (Kcal/Mol)
 Warning -- explicit consideration of  20 degrees of freedom as
           vibrations may cause significant error
 Vibrational temperatures:     49.91    72.86    77.30   102.02   177.48
          (Kelvin)            193.85   229.22   239.92   356.79   418.23
                              451.13   557.16   598.68   631.66   734.20
                              755.53   795.66   812.25   836.11   891.14
                              999.30  1014.69  1040.69  1127.18  1173.09
                             1261.62  1279.96  1364.85  1412.54  1423.63
                             1429.76  1438.02  1473.67  1533.04  1537.25
                             1555.42  1625.69  1643.42  1649.21  1669.64
                             1682.21  1712.87  1730.65  1903.25  1954.44
                             1980.44  1985.96  2044.38  2051.76  2130.65
                             2141.42  2161.30  2173.79  2177.70  2191.99
                             2196.30  2290.07  2590.44  4405.97  4411.69
                             4414.67  4417.43  4433.25  4505.25  4511.58
                             4516.96  4527.07  4530.95  4545.99  4576.55
                             5068.05  5172.28

 Zero-point correction=                           0.218148 (Hartree/Particle)
 Thermal correction to Energy=                    0.231368
 Thermal correction to Enthalpy=                  0.232312
 Thermal correction to Gibbs Free Energy=         0.176954
 Sum of electronic and zero-point Energies=           -895.941083
 Sum of electronic and thermal Energies=              -895.927863
 Sum of electronic and thermal Enthalpies=            -895.926918
 Sum of electronic and thermal Free Energies=         -895.982277

                     E (Thermal)             CV                S
                      KCal/Mol        Cal/Mol-Kelvin    Cal/Mol-Kelvin
 Total                  145.186             48.578            116.511
 Electronic               0.000              0.000              0.000
 Translational            0.889              2.981             41.569
 Rotational               0.889              2.981             31.408
 Vibrational            143.408             42.616             43.533
 Vibration     1          0.594              1.983              5.542
 Vibration     2          0.595              1.977              4.792
 Vibration     3          0.596              1.976              4.675
 Vibration     4          0.598              1.968              4.128
 Vibration     5          0.610              1.930              3.047
 Vibration     6          0.613              1.919              2.877
 Vibration     7          0.621              1.892              2.558
 Vibration     8          0.624              1.883              2.472
 Vibration     9          0.662              1.766              1.745
 Vibration    10          0.687              1.691              1.470
 Vibration    11          0.701              1.648              1.344
 Vibration    12          0.756              1.497              1.011
 Vibration    13          0.779              1.435              0.905
 Vibration    14          0.799              1.385              0.830
 Vibration    15          0.865              1.227              0.633
 Vibration    16          0.880              1.194              0.598
 Vibration    17          0.908              1.133              0.538
 Vibration    18          0.920              1.108              0.515
 Vibration    19          0.938              1.072              0.483
 Vibration    20          0.979              0.991              0.418

 Optimization completed.
    -- Stationary point found.
 Normal termination of Gaussian 16 at Wed Dec  9 17:26:06 2020.

 ----------------------------------------------------------------------
 # B3LYP/6-311++G(d,p) empiricaldispersion=gd3bj scf=xqc pop=npa geom=c
 heck
 ----------------------------------------------------------------------

 ---------------------------------------
 CID_148403867_JID_2222_Energie_neutraal
 ---------------------------------------
 Structure from the checkpoint file:  "JID_2222.chk"
 Charge =  0 Multiplicity = 1

 SCF Done:  E(RB3LYP) =  -896.333343624     A.U. after   15 cycles
 Normal termination of Gaussian 16 at Wed Dec  9 17:29:33 2020.

 ----------------------------------------------------------------------
 # B3LYP/6-311++G(d,p) empiricaldispersion=gd3bj scf=xqc pop=npa geom=c
 heck
 ----------------------------------------------------------------------

 -------------------------------------
 CID_148403867_JID_2222_Energie_kation
 -------------------------------------
 Structure from the checkpoint file:  "JID_2222.chk"
 Charge =  1 Multiplicity = 2

 SCF Done:  E(UB3LYP) =  -896.020734797     A.U. after   33 cycles
 SCF Done:  E(UB3LYP) =  -896.027244275     a.u. after   12 cycles
 Normal termination of Gaussian 16 at Wed Dec  9 18:31:24 2020.
 Gaussian 16:  ES64L-G16RevA.03 25-Dec-2016

 ----------------------------------------------------------------------
 # B3LYP/6-311++G(d,p) empiricaldispersion=gd3bj scf=xqc pop=npa geom=c
 heck
 ----------------------------------------------------------------------

 ------------------------------------
 CID_148403867_JID_2222_Energie_anion
 ------------------------------------
 Structure from the checkpoint file:  "JID_2222.chk"
 Charge = -1 Multiplicity = 2

                         Standard orientation:
 ---------------------------------------------------------------------
 Center     Atomic      Atomic             Coordinates (Angstroms)
 Number     Number       Type             X           Y           Z
 ---------------------------------------------------------------------
      1          6           0       -3.423940   -1.317164   -0.130410
      2          6           0       -3.470359    0.198837   -0.180292
      3          8           0       -4.515672    0.823177   -0.293608
      4          7           0       -2.262872    0.856298   -0.111425
      5          6           0       -0.962649    0.321473    0.113118
      6          6           0        0.321521    1.187556    0.038369
      7          6           0        0.796305   -0.243779    0.389258
      8          6           0       -0.366807   -0.318521    1.414013
      9          6           0       -0.200338   -0.767169   -0.700314
     10          7           0        2.144102   -0.616944    0.677700
     11         16           0        3.271769   -0.439180   -0.632387
     12          6           0        4.297389    0.907060    0.044920
     13          1           0       -4.449882   -1.685599   -0.111705
     14          1           0       -2.888883   -1.675883    0.754691
     15          1           0       -2.912211   -1.717413   -1.012077
     16          1           0       -2.354788    1.864617   -0.120330
     17          1           0        0.596285    1.564862   -0.950858
     18          1           0        0.445999    1.943770    0.820822
     19          1           0       -0.287756    0.333920    2.288640
     20          1           0       -0.720944   -1.319711    1.680703
     21          1           0        0.038022   -0.521218   -1.738911
     22          1           0       -0.542439   -1.800327   -0.589529
     23          1           0        2.202023   -1.556011    1.063205
     24          1           0        3.694726    1.802813    0.213258
     25          1           0        4.775514    0.597606    0.977165
     26          1           0        5.066064    1.124787   -0.703916
 ---------------------------------------------------------------------

 SCF Done:  E(UB3LYP) =  -896.321826931     A.U. after   32 cycles

 The electronic state is 2-A.
 Alpha  occ. eigenvalues --  -88.76537 -18.99639 -14.24539 -14.23464 -10.18361
 Alpha  occ. eigenvalues --  -10.14127 -10.13174 -10.09341 -10.08227 -10.08105
 Alpha  occ. eigenvalues --  -10.07978 -10.07926  -7.84922  -5.81434  -5.80957
 Alpha  occ. eigenvalues --   -5.80196  -0.94758  -0.86251  -0.82564  -0.78573
 Alpha  occ. eigenvalues --   -0.66294  -0.64952  -0.58506  -0.58338  -0.55518
 Alpha  occ. eigenvalues --   -0.52814  -0.47575  -0.45297  -0.44325  -0.38469
 Alpha  occ. eigenvalues --   -0.37287  -0.36876  -0.36213  -0.35445  -0.33083
 Alpha  occ. eigenvalues --   -0.32545  -0.31793  -0.30990  -0.29733  -0.28604
 Alpha  occ. eigenvalues --   -0.26765  -0.26450  -0.25436  -0.24271  -0.23734
 Alpha  occ. eigenvalues --   -0.22825  -0.16823  -0.16338  -0.14184  -0.13692
 Alpha  occ. eigenvalues --    0.04249
 Alpha virt. eigenvalues --    0.06227   0.07268   0.07705   0.08390   0.09340
 Alpha virt. eigenvalues --    0.09771   0.10013   0.10621   0.10827   0.10995
 Alpha virt. eigenvalues --    0.11067   0.12259   0.13066   0.13528   0.13814

  Beta  occ. eigenvalues --  -88.76531 -18.99637 -14.24526 -14.23432 -10.18359
  Beta  occ. eigenvalues --  -10.14126 -10.13174 -10.09302 -10.08195 -10.08070
  Beta  occ. eigenvalues --  -10.07946 -10.07901  -7.84916  -5.81430  -5.80941
  Beta  occ. eigenvalues --   -5.80193  -0.94752  -0.86236  -0.82536  -0.78545
  Beta  occ. eigenvalues --   -0.66249  -0.64908  -0.58447  -0.58291  -0.55486
  Beta  occ. eigenvalues --   -0.52762  -0.47527  -0.45217  -0.44265  -0.38442
  Beta  occ. eigenvalues --   -0.37242  -0.36829  -0.36184  -0.35414  -0.33053
  Beta  occ. eigenvalues --   -0.32518  -0.31757  -0.30960  -0.29702  -0.28574
  Beta  occ. eigenvalues --   -0.26737  -0.26413  -0.25415  -0.24234  -0.23703
  Beta  occ. eigenvalues --   -0.22785  -0.16810  -0.16320  -0.14140  -0.13669
  Beta virt. eigenvalues --    0.06565   0.07058   0.08094   0.08382   0.08715
  Beta virt. eigenvalues --    0.09765   0.10222   0.10583   0.10929   0.11161
  Beta virt. eigenvalues --    0.11299   0.11436   0.12618   0.13312   0.13871

 Mulliken charges and spin densities:
               1          2
     1  C    0.632694  -0.998518
     2  C   -0.420138   0.430744
     3  O   -0.359640   0.018509
     4  N   -0.132925  -0.030904
     5  C   -1.397937   1.654254
     6  C    1.239898  -2.145295
     7  C   -1.140079   1.941887
     8  C    0.938278  -1.581340
     9  C    1.691540  -2.249845
    10  N   -0.206615  -0.025209
    11  S   -0.034488   0.162387
    12  C    0.377063  -0.953076
    13  H    0.023459   0.168558
    14  H   -0.139607   0.296796
    15  H   -0.071916   0.240645
    16  H    0.039480   0.250676
    17  H   -0.042679   0.216008
    18  H   -0.324434   0.512874
    19  H   -0.168823   0.333542
    20  H   -0.539308   0.711277
    21  H    0.042493   0.107396
    22  H   -0.315963   0.477791
    23  H   -0.086037   0.384770
    24  H   -0.198561   0.367582
    25  H   -0.168937   0.341521
    26  H   -0.236820   0.366969
 Sum of Mulliken charges =  -1.00000   1.00000

 Dipole moment (field-independent basis, Debye):
    X=              0.1604    Y=              0.1194    Z=             -2.0207  Tot=              2.0306
 Quadrupole moment (field-independent basis, Debye-Ang):
   XX=           -165.0507   YY=           -123.1970   ZZ=           -112.4492
   XY=             -0.5208   XZ=             -3.0500   YZ=              3.1552

 Summary of Natural Population Analysis:

                                       Natural Population
                Natural  -----------------------------------------------
    Atom  No    Charge         Core      Valence    Rydberg      Total
 -----------------------------------------------------------------------
      C    1   -0.33539      0.99963     2.33094    0.00483     3.33539
      C    2    0.35002      0.99970     1.62960    0.02068     2.64998
      O    3   -0.32410      0.99988     3.31811    0.00611     4.32410
      N    4   -0.32112      0.99961     2.81193    0.00958     3.82112
      C    5    0.05233      0.99948     1.92946    0.01873     2.94767
      C    6   -0.17318      0.99957     2.16182    0.01179     3.17318
      C    7    0.05869      0.99947     1.92020    0.02164     2.94131
      C    8   -0.17564      0.99957     2.16449    0.01158     3.17564
      C    9   -0.18449      0.99957     2.17440    0.01051     3.18449
      N   10   -0.39123      0.99966     2.87712    0.01445     3.89123
      S   11    0.16845      4.99963     2.80961    0.02231     7.83155
      C   12   -0.34820      0.99962     2.34236    0.00621     3.34820
      H   13    0.11143      0.00000     0.38781    0.00077     0.38857
      H   14    0.11229      0.00000     0.38628    0.00143     0.38771
      H   15    0.11219      0.00000     0.38673    0.00108     0.38781
      H   16    0.19828      0.00000     0.29919    0.00253     0.30172
      H   17    0.09894      0.00000     0.39920    0.00186     0.40106
      H   18    0.09827      0.00000     0.39985    0.00188     0.40173
      H   19    0.09837      0.00000     0.39997    0.00167     0.40163
      H   20    0.09830      0.00000     0.39903    0.00267     0.40170
      H   21    0.09767      0.00000     0.40071    0.00162     0.40233
      H   22    0.09804      0.00000     0.40000    0.00197     0.40196
      H   23    0.19088      0.00000     0.30489    0.00422     0.30912
      H   24    0.10414      0.00000     0.39358    0.00228     0.39586
      H   25    0.10279      0.00000     0.39495    0.00226     0.39721
      H   26    0.10229      0.00000     0.39561    0.00210     0.39771
 =======================================================================
   * Total *    0.00000     15.99539    33.81785    0.18676    50.00000

 Normal termination of Gaussian 16 at Wed Dec  9 18:40:12 2020.
