 Gaussian 16, Revision A.03,

 -----------------------------------------------------------
 # opt freq B3LYP/6-31G(d) empiricaldispersion=gd3bj scf=xqc
 -----------------------------------------------------------

 -------------------------------
 CID_146431007_JID_7384_neutraal
 -------------------------------
 Symbolic Z-matrix:
 Charge =  0 Multiplicity = 1

 SCF Done:  E(RB3LYP) =  -694.427253470     A.U. after   14 cycles
 SCF Done:  E(RB3LYP) =  -694.430249008     A.U. after   12 cycles
 SCF Done:  E(RB3LYP) =  -694.430682523     A.U. after   12 cycles
 SCF Done:  E(RB3LYP) =  -694.430708952     A.U. after   11 cycles
 SCF Done:  E(RB3LYP) =  -694.430742394     A.U. after   10 cycles
 SCF Done:  E(RB3LYP) =  -694.430744349     A.U. after    9 cycles
 SCF Done:  E(RB3LYP) =  -694.430744730     A.U. after    8 cycles
 SCF Done:  E(RB3LYP) =  -694.430744888     A.U. after    7 cycles
 SCF Done:  E(RB3LYP) =  -694.430744925     A.U. after    7 cycles
 Optimization completed.
    -- Stationary point found.
 Normal termination of Gaussian 16 at Mon Dec 14 18:45:25 2020.

 --------------------------------------------------------------------
 #N Geom=AllCheck Guess=TCheck SCRF=Check GenChk RB3LYP/6-31G(d) Freq
 --------------------------------------------------------------------

 Structure from the checkpoint file:  "JID_7384.chk"
 -------------------------------
 CID_146431007_JID_7384_neutraal
 -------------------------------
 Charge =  0 Multiplicity = 1

 SCF Done:  E(RB3LYP) =  -694.430744925     A.U. after    1 cycles

  Exact polarizability: 225.065 -29.058 157.011  11.665  18.240 128.825
 Approx polarizability: 301.340 -55.029 251.832  23.265  49.524 214.256

                      1                      2                      3
                      A                      A                      A
 Frequencies --     23.2631                28.9218                54.3893
 Red. masses --      4.4676                 3.8184                 2.6835
 Frc consts  --      0.0014                 0.0019                 0.0047
 IR Inten    --      0.2389                 1.5369                 0.2081

                      4                      5                      6
                      A                      A                      A
 Frequencies --     63.9663                78.3330               110.3262
 Red. masses --      3.3177                 3.7965                 2.5193
 Frc consts  --      0.0080                 0.0137                 0.0181
 IR Inten    --      0.0230                 0.8065                 0.2863

                      7                      8                      9
                      A                      A                      A
 Frequencies --    162.2304               172.0708               204.2459
 Red. masses --      2.3663                 3.0489                 3.3656
 Frc consts  --      0.0367                 0.0532                 0.0827
 IR Inten    --      0.2323                 0.9690                 0.3809

                     10                     11                     12
                      A                      A                      A
 Frequencies --    215.4640               233.4401               252.1475
 Red. masses --      1.3298                 3.6984                 1.3669
 Frc consts  --      0.0364                 0.1187                 0.0512
 IR Inten    --      0.0444                 0.4913                 0.2562

                     13                     14                     15
                      A                      A                      A
 Frequencies --    273.6344               283.5610               318.2773
 Red. masses --      2.8308                 2.0661                 1.8733
 Frc consts  --      0.1249                 0.0979                 0.1118
 IR Inten    --      0.1996                 0.2657                 0.1383

                     16                     17                     18
                      A                      A                      A
 Frequencies --    373.0407               401.4572               420.4242
 Red. masses --      2.0070                 3.9993                 3.2993
 Frc consts  --      0.1646                 0.3798                 0.3436
 IR Inten    --      0.3685                 1.9189                 2.0507

                     19                     20                     21
                      A                      A                      A
 Frequencies --    428.6515               441.8210               477.8011
 Red. masses --      2.0555                 2.8962                 2.3066
 Frc consts  --      0.2225                 0.3331                 0.3103
 IR Inten    --      2.2145                 5.2985                 1.0764

                     22                     23                     24
                      A                      A                      A
 Frequencies --    537.2372               594.6492               626.3086
 Red. masses --      2.7550                 4.4113                 3.9311
 Frc consts  --      0.4685                 0.9190                 0.9085
 IR Inten    --      0.4871                 2.5703                 0.0972

                     25                     26                     27
                      A                      A                      A
 Frequencies --    651.8374               674.3610               683.0816
 Red. masses --      4.0714                 2.6135                 1.3988
 Frc consts  --      1.0192                 0.7003                 0.3845
 IR Inten    --      0.1361                27.9292                11.1832

                     28                     29                     30
                      A                      A                      A
 Frequencies --    715.9709               748.9099               758.9459
 Red. masses --      1.3932                 1.7872                 5.9177
 Frc consts  --      0.4208                 0.5906                 2.0083
 IR Inten    --     20.9392                 0.7621                 0.3779

                     31                     32                     33
                      A                      A                      A
 Frequencies --    774.4977               794.8211               802.9540
 Red. masses --      2.7703                 1.7593                 2.9133
 Frc consts  --      0.9791                 0.6548                 1.1067
 IR Inten    --      0.0953                15.1469                 5.0376

                     34                     35                     36
                      A                      A                      A
 Frequencies --    834.5897               842.8131               879.2989
 Red. masses --      1.8072                 2.0759                 1.3267
 Frc consts  --      0.7416                 0.8688                 0.6043
 IR Inten    --      1.3406                 0.7360                 3.4893

                     37                     38                     39
                      A                      A                      A
 Frequencies --    884.3850               901.4928               922.1255
 Red. masses --      1.8378                 1.5116                 2.8990
 Frc consts  --      0.8469                 0.7238                 1.4524
 IR Inten    --      0.8582                14.5300                 2.7801

                     40                     41                     42
                      A                      A                      A
 Frequencies --    924.2769               927.8342               934.8501
 Red. masses --      1.4183                 1.5463                 1.9062
 Frc consts  --      0.7139                 0.7843                 0.9815
 IR Inten    --      0.5782                 0.2657                 0.4303

                     43                     44                     45
                      A                      A                      A
 Frequencies --    971.4024               991.0396              1001.2218
 Red. masses --      2.8696                 1.7348                 1.6690
 Frc consts  --      1.5954                 1.0039                 0.9858
 IR Inten    --      6.7755                 0.3169                 0.7102

                     46                     47                     48
                      A                      A                      A
 Frequencies --   1038.0773              1059.5297              1079.1927
 Red. masses --      1.6702                 1.7323                 1.3528
 Frc consts  --      1.0604                 1.1458                 0.9283
 IR Inten    --     11.2055                 0.1684                 0.6011

                     49                     50                     51
                      A                      A                      A
 Frequencies --   1091.7387              1105.1911              1125.2490
 Red. masses --      1.9244                 1.3721                 2.2946
 Frc consts  --      1.3514                 0.9875                 1.7118
 IR Inten    --      8.1682                 6.8853                 1.7867

                     52                     53                     54
                      A                      A                      A
 Frequencies --   1147.2334              1159.2800              1176.1779
 Red. masses --      2.0594                 1.8793                 1.6026
 Frc consts  --      1.5969                 1.4881                 1.3062
 IR Inten    --      1.2842                 6.0614                 6.8267

                     55                     56                     57
                      A                      A                      A
 Frequencies --   1180.4193              1216.4746              1221.4255
 Red. masses --      1.9512                 1.6032                 1.3807
 Frc consts  --      1.6019                 1.3978                 1.2136
 IR Inten    --     13.7250                 4.7890                 2.0511

                     58                     59                     60
                      A                      A                      A
 Frequencies --   1247.5432              1269.2358              1285.2756
 Red. masses --      1.5086                 2.8979                 1.4031
 Frc consts  --      1.3833                 2.7506                 1.3656
 IR Inten    --      1.1620                 9.5887                 2.3588

                     61                     62                     63
                      A                      A                      A
 Frequencies --   1297.8998              1311.9773              1335.5413
 Red. masses --      1.5821                 1.3478                 1.6658
 Frc consts  --      1.5702                 1.3668                 1.7506
 IR Inten    --      8.4060                 1.6736                 3.0339

                     64                     65                     66
                      A                      A                      A
 Frequencies --   1345.3486              1347.4846              1366.0868
 Red. masses --      1.9554                 2.2304                 1.3470
 Frc consts  --      2.0852                 2.3860                 1.4810
 IR Inten    --     32.8247                68.9223                 2.2317

                     67                     68                     69
                      A                      A                      A
 Frequencies --   1375.8401              1386.1340              1396.2499
 Red. masses --      1.4640                 1.3702                 1.4416
 Frc consts  --      1.6328                 1.5511                 1.6558
 IR Inten    --      1.4909                 8.5885                 7.3261

                     70                     71                     72
                      A                      A                      A
 Frequencies --   1407.3189              1420.0571              1422.4497
 Red. masses --      1.3998                 1.8299                 1.7194
 Frc consts  --      1.6335                 2.1741                 2.0497
 IR Inten    --      1.3070                 3.4095                 2.8803

                     73                     74                     75
                      A                      A                      A
 Frequencies --   1423.3416              1440.2507              1444.1138
 Red. masses --      1.4059                 1.2549                 1.2726
 Frc consts  --      1.6781                 1.5337                 1.5637
 IR Inten    --      0.5991                 5.6342                 4.2577

                     76                     77                     78
                      A                      A                      A
 Frequencies --   1506.1298              1516.1728              1517.4413
 Red. masses --      1.0781                 2.9054                 1.1006
 Frc consts  --      1.4408                 3.9351                 1.4932
 IR Inten    --      0.6673                 1.2316                 3.1107

                     79                     80                     81
                      A                      A                      A
 Frequencies --   1520.2882              1525.1714              1527.6659
 Red. masses --      1.1570                 1.5292                 1.0857
 Frc consts  --      1.5756                 2.0959                 1.4928
 IR Inten    --      0.5945                 2.6956                 7.6883

                     82                     83                     84
                      A                      A                      A
 Frequencies --   1530.5543              1532.5772              1537.3169
 Red. masses --      1.1993                 1.2249                 1.1438
 Frc consts  --      1.6552                 1.6952                 1.5927
 IR Inten    --      6.0924                 6.9724                 5.7797

                     85                     86                     87
                      A                      A                      A
 Frequencies --   1539.8442              1545.6819              1559.4993
 Red. masses --      1.0900                 1.0880                 5.2201
 Frc consts  --      1.5227                 1.5315                 7.4799
 IR Inten    --      3.1867                 1.7877                26.8705

                     88                     89                     90
                      A                      A                      A
 Frequencies --   1566.2919              1704.8832              3028.0229
 Red. masses --      5.9978                 6.4883                 1.0629
 Frc consts  --      8.6693                11.1114                 5.7418
 IR Inten    --      4.1279                27.3200                17.8314

                     91                     92                     93
                      A                      A                      A
 Frequencies --   3032.3441              3036.8229              3039.4778
 Red. masses --      1.0653                 1.0630                 1.0598
 Frc consts  --      5.7712                 5.7760                 5.7685
 IR Inten    --     25.8664                13.2562                24.8702

                     94                     95                     96
                      A                      A                      A
 Frequencies --   3044.9856              3047.1063              3050.7471
 Red. masses --      1.0408                 1.0598                 1.0622
 Frc consts  --      5.6860                 5.7975                 5.8245
 IR Inten    --     17.7892                 1.9395                21.3138

                     97                     98                     99
                      A                      A                      A
 Frequencies --   3054.0803              3060.1296              3065.6503
 Red. masses --      1.0607                 1.0952                 1.0990
 Frc consts  --      5.8293                 6.0425                 6.0854
 IR Inten    --     19.3657                15.3216                24.9706

                    100                    101                    102
                      A                      A                      A
 Frequencies --   3071.7410              3079.8025              3085.8441
 Red. masses --      1.0997                 1.1015                 1.0997
 Frc consts  --      6.1138                 6.1558                 6.1700
 IR Inten    --     68.6695               121.3741                60.4020

                    103                    104                    105
                      A                      A                      A
 Frequencies --   3109.5726              3116.0537              3117.2182
 Red. masses --      1.1016                 1.1019                 1.1003
 Frc consts  --      6.2761                 6.3039                 6.2993
 IR Inten    --     47.8817                47.3945                35.9955

                    106                    107                    108
                      A                      A                      A
 Frequencies --   3128.4329              3217.6858              3218.2244
 Red. masses --      1.1026                 1.0880                 1.0902
 Frc consts  --      6.3582                 6.6367                 6.6524
 IR Inten    --     37.1733                 3.9270                 3.3388

                    109                    110                    111
                      A                      A                      A
 Frequencies --   3237.8555              3251.8332              3293.8776
 Red. masses --      1.0967                 1.0935                 1.1008
 Frc consts  --      6.7742                 6.8126                 7.0366
 IR Inten    --      7.3766                14.4941                 2.1133

 - Thermochemistry -
 -------------------
 Temperature   298.150 Kelvin.  Pressure   1.00000 Atm.
 Atom     1 has atomic number  6 and mass  12.00000

 Molecular mass:   230.17830 amu.
 Principal axes and moments of inertia in atomic units:
                           1         2         3
     Eigenvalues --  1974.364629074.04812**********
           X            0.99994   0.01069   0.00092
           Y           -0.01068   0.99983  -0.01524
           Z           -0.00109   0.01523   0.99988
 This molecule is an asymmetric top.
 Rotational symmetry number  1.
 Warning -- assumption of classical behavior for rotation
           may cause significant error
 Rotational temperatures (Kelvin)      0.04387     0.00955     0.00861
 Rotational constants (GHZ):           0.91409     0.19889     0.17948
 Zero-point vibrational energy     912365.1 (Joules/Mol)
                                  218.06050 (Kcal/Mol)
 Warning -- explicit consideration of  23 degrees of freedom as
           vibrations may cause significant error
 Vibrational temperatures:     33.47    41.61    78.25    92.03   112.70
          (Kelvin)            158.73   233.41   247.57   293.86   310.00
                              335.87   362.78   393.70   407.98   457.93
                              536.72   577.61   604.90   616.73   635.68
                              687.45   772.96   855.57   901.12   937.85
                              970.26   982.80  1030.12  1077.51  1091.95
                             1114.33  1143.57  1155.27  1200.79  1212.62
                             1265.11  1272.43  1297.05  1326.73  1329.83
                             1334.95  1345.04  1397.63  1425.88  1440.53
                             1493.56  1524.43  1552.72  1570.77  1590.12
                             1618.98  1650.61  1667.95  1692.26  1698.36
                             1750.24  1757.36  1794.94  1826.15  1849.22
                             1867.39  1887.64  1921.55  1935.66  1938.73
                             1965.49  1979.53  1994.34  2008.89  2024.82
                             2043.15  2046.59  2047.87  2072.20  2077.76
                             2166.98  2181.43  2183.26  2187.36  2194.38
                             2197.97  2202.13  2205.04  2211.86  2215.49
                             2223.89  2243.77  2253.54  2452.95  4356.65
                             4362.87  4369.31  4373.13  4381.06  4384.11
                             4389.34  4394.14  4402.84  4410.79  4419.55
                             4431.15  4439.84  4473.98  4483.31  4484.98
                             4501.12  4629.53  4630.31  4658.55  4678.66
                             4739.16

 Zero-point correction=                           0.347502 (Hartree/Particle)
 Thermal correction to Energy=                    0.364087
 Thermal correction to Enthalpy=                  0.365031
 Thermal correction to Gibbs Free Energy=         0.301755
 Sum of electronic and zero-point Energies=           -694.083243
 Sum of electronic and thermal Energies=              -694.066658
 Sum of electronic and thermal Enthalpies=            -694.065713
 Sum of electronic and thermal Free Energies=         -694.128990

                     E (Thermal)             CV                S
                      KCal/Mol        Cal/Mol-Kelvin    Cal/Mol-Kelvin
 Total                  228.468             64.371            133.176
 Electronic               0.000              0.000              0.000
 Translational            0.889              2.981             42.203
 Rotational               0.889              2.981             33.554
 Vibrational            226.691             58.409             57.419
 Vibration     1          0.593              1.985              6.334
 Vibration     2          0.593              1.984              5.902
 Vibration     3          0.596              1.976              4.651
 Vibration     4          0.597              1.971              4.331
 Vibration     5          0.600              1.964              3.932
 Vibration     6          0.606              1.941              3.263
 Vibration     7          0.622              1.889              2.524
 Vibration     8          0.626              1.877              2.413
 Vibration     9          0.640              1.834              2.095
 Vibration    10          0.645              1.817              1.997
 Vibration    11          0.654              1.790              1.852
 Vibration    12          0.664              1.759              1.716
 Vibration    13          0.676              1.722              1.573
 Vibration    14          0.682              1.704              1.512
 Vibration    15          0.705              1.639              1.319
 Vibration    16          0.744              1.527              1.067
 Vibration    17          0.767              1.467              0.957
 Vibration    18          0.783              1.426              0.891
 Vibration    19          0.790              1.408              0.863
 Vibration    20          0.802              1.379              0.821
 Vibration    21          0.834              1.299              0.716
 Vibration    22          0.892              1.168              0.571
 Vibration    23          0.952              1.043              0.459

 Optimization completed.
    -- Stationary point found.
 Normal termination of Gaussian 16 at Mon Dec 14 18:59:25 2020.

 ----------------------------------------------------------------------
 # B3LYP/6-311++G(d,p) empiricaldispersion=gd3bj scf=xqc pop=npa geom=c
 heck
 ----------------------------------------------------------------------

 ---------------------------------------
 CID_146431007_JID_7384_Energie_neutraal
 ---------------------------------------
 Structure from the checkpoint file:  "JID_7384.chk"
 Charge =  0 Multiplicity = 1

 SCF Done:  E(RB3LYP) =  -694.612997895     A.U. after   14 cycles
 Normal termination of Gaussian 16 at Mon Dec 14 19:06:58 2020.

 ----------------------------------------------------------------------
 # B3LYP/6-311++G(d,p) empiricaldispersion=gd3bj scf=xqc pop=npa geom=c
 heck
 ----------------------------------------------------------------------

 -------------------------------------
 CID_146431007_JID_7384_Energie_kation
 -------------------------------------
 Structure from the checkpoint file:  "JID_7384.chk"
 Charge =  1 Multiplicity = 2

 SCF Done:  E(UB3LYP) =  -694.333835710     A.U. after   21 cycles
 Normal termination of Gaussian 16 at Mon Dec 14 19:23:15 2020.
 Gaussian 16:  ES64L-G16RevA.03 25-Dec-2016

 ----------------------------------------------------------------------
 # B3LYP/6-311++G(d,p) empiricaldispersion=gd3bj scf=xqc pop=npa geom=c
 heck
 ----------------------------------------------------------------------

 ------------------------------------
 CID_146431007_JID_7384_Energie_anion
 ------------------------------------
 Structure from the checkpoint file:  "JID_7384.chk"
 Charge = -1 Multiplicity = 2

                         Standard orientation:
 ---------------------------------------------------------------------
 Center     Atomic      Atomic             Coordinates (Angstroms)
 Number     Number       Type             X           Y           Z
 ---------------------------------------------------------------------
      1          6           0       -5.468433   -1.548997    0.766706
      2          6           0       -3.965452   -1.783353    0.588585
      3          6           0       -3.382253   -1.148077   -0.682780
      4          6           0       -3.543309    0.377542   -0.782683
      5          6           0       -2.942463    1.170957    0.388501
      6          6           0       -1.455017    0.899349    0.660179
      7          6           0       -0.512374    1.138373   -0.540360
      8          6           0       -0.561541    2.591050   -1.042537
      9          6           0        0.900812    0.713959   -0.193022
     10          6           0        1.491669   -0.364907   -0.809714
     11          6           0        2.802875   -0.766868   -0.468433
     12          7           0        3.558882   -1.762324   -0.927940
     13          6           0        4.731823   -1.669684   -0.234541
     14          6           0        4.726666   -0.621307    0.662976
     15          7           0        3.486378   -0.031207    0.520996
     16          6           0        2.910587    1.046342    1.144786
     17          6           0        1.644122    1.421538    0.804393
     18          1           0       -5.700460   -0.486415    0.899783
     19          1           0       -5.850382   -2.081710    1.644648
     20          1           0       -6.027985   -1.902270   -0.108388
     21          1           0       -3.430934   -1.407067    1.470790
     22          1           0       -3.769846   -2.863067    0.557584
     23          1           0       -2.317933   -1.409353   -0.751126
     24          1           0       -3.861619   -1.605398   -1.559458
     25          1           0       -3.091016    0.714427   -1.724758
     26          1           0       -4.608459    0.629016   -0.861742
     27          1           0       -3.095761    2.241669    0.203978
     28          1           0       -3.501522    0.946092    1.305936
     29          1           0       -1.128830    1.529009    1.499152
     30          1           0       -1.325106   -0.137244    0.994082
     31          1           0       -0.841999    0.491385   -1.362281
     32          1           0       -0.305694    3.298471   -0.244755
     33          1           0        0.145767    2.741884   -1.864452
     34          1           0       -1.561687    2.849084   -1.404921
     35          1           0        0.974206   -0.937660   -1.572117
     36          1           0        5.540582   -2.367355   -0.410349
     37          1           0        5.457826   -0.249865    1.364146
     38          1           0        3.512135    1.550306    1.892042
     39          1           0        1.205614    2.275283    1.308478
 ---------------------------------------------------------------------

 SCF Done:  E(UB3LYP) =  -694.605534494     A.U. after   33 cycles
 SCF Done:  E(UB3LYP) =  -694.605534495     a.u. after    1 cycles

 The electronic state is 2-A.
 Alpha  occ. eigenvalues --  -14.26833 -14.17600 -10.11624 -10.09660 -10.08962
 Alpha  occ. eigenvalues --  -10.08324 -10.07343 -10.06948 -10.06675 -10.06495
 Alpha  occ. eigenvalues --  -10.06387 -10.06325 -10.06301 -10.06271 -10.06186
 Alpha  occ. eigenvalues --  -10.05908 -10.04936  -0.91494  -0.79042  -0.73452
 Alpha  occ. eigenvalues --   -0.71202  -0.68539  -0.65175  -0.63994  -0.61574
 Alpha  occ. eigenvalues --   -0.60141  -0.56345  -0.53207  -0.53004  -0.49810
 Alpha  occ. eigenvalues --   -0.49568  -0.46188  -0.43913  -0.41805  -0.38982
 Alpha  occ. eigenvalues --   -0.38343  -0.37681  -0.35948  -0.34709  -0.34602
 Alpha  occ. eigenvalues --   -0.34064  -0.33297  -0.32178  -0.31475  -0.30896
 Alpha  occ. eigenvalues --   -0.30136  -0.29934  -0.28942  -0.27427  -0.26939
 Alpha  occ. eigenvalues --   -0.26506  -0.25003  -0.24150  -0.23471  -0.23251
 Alpha  occ. eigenvalues --   -0.22801  -0.21854  -0.21068  -0.20859  -0.19582
 Alpha  occ. eigenvalues --   -0.16478  -0.13477  -0.10071   0.04324
 Alpha virt. eigenvalues --    0.05959   0.06840   0.07207   0.07697   0.08173
 Alpha virt. eigenvalues --    0.08651   0.09316   0.09665   0.10196   0.10559
 Alpha virt. eigenvalues --    0.10906   0.11202   0.11245   0.12211   0.12410

  Beta  occ. eigenvalues --  -14.26688 -14.17553 -10.11661 -10.09414 -10.08985
  Beta  occ. eigenvalues --  -10.08297 -10.07351 -10.06937 -10.06669 -10.06482
  Beta  occ. eigenvalues --  -10.06355 -10.06268 -10.06248 -10.06243 -10.06179
  Beta  occ. eigenvalues --  -10.05876 -10.04741  -0.91287  -0.78860  -0.73278
  Beta  occ. eigenvalues --   -0.71119  -0.68465  -0.65118  -0.63714  -0.61438
  Beta  occ. eigenvalues --   -0.60085  -0.56294  -0.52984  -0.52876  -0.49705
  Beta  occ. eigenvalues --   -0.49475  -0.46095  -0.43845  -0.41688  -0.38905
  Beta  occ. eigenvalues --   -0.38284  -0.37593  -0.35857  -0.34574  -0.34152
  Beta  occ. eigenvalues --   -0.33973  -0.33237  -0.32118  -0.31405  -0.30838
  Beta  occ. eigenvalues --   -0.30082  -0.29878  -0.28905  -0.27374  -0.26878
  Beta  occ. eigenvalues --   -0.26411  -0.24962  -0.24021  -0.23425  -0.23199
  Beta  occ. eigenvalues --   -0.22353  -0.21679  -0.21002  -0.20797  -0.18992
  Beta  occ. eigenvalues --   -0.16414  -0.12943  -0.09343
  Beta virt. eigenvalues --    0.06381   0.06898   0.07525   0.07890   0.08336
  Beta virt. eigenvalues --    0.08366   0.08755   0.09501   0.09807   0.10320
  Beta virt. eigenvalues --    0.10738   0.11009   0.11291   0.11372   0.12284

 Mulliken charges and spin densities:
               1          2
     1  C    0.771394  -1.402446
     2  C   -0.811129   0.611963
     3  C    0.054092  -0.266917
     4  C    0.148408  -0.376267
     5  C    0.116023  -0.548441
     6  C   -0.590389   0.247076
     7  C   -0.176762   0.065370
     8  C    0.008182  -0.781365
     9  C    0.466262   0.107571
    10  C   -0.640481   0.330478
    11  C   -0.447228   0.066064
    12  N   -0.126525   0.021461
    13  C    0.021693  -0.001760
    14  C   -0.067519   0.041034
    15  N    0.176047   0.012843
    16  C    0.020749  -0.249513
    17  C   -0.085263   0.069465
    18  H   -0.138246   0.278480
    19  H   -0.253924   0.386919
    20  H   -0.127176   0.258128
    21  H    0.090073   0.041205
    22  H   -0.033765   0.173761
    23  H    0.062722   0.091314
    24  H   -0.000926   0.146934
    25  H    0.070189   0.078106
    26  H   -0.106611   0.283172
    27  H   -0.097651   0.248805
    28  H   -0.099962   0.284583
    29  H    0.004959   0.123219
    30  H    0.113188   0.048167
    31  H    0.242543  -0.065682
    32  H   -0.064651   0.211544
    33  H    0.152161  -0.011322
    34  H   -0.127081   0.259677
    35  H    0.151599   0.010514
    36  H    0.141239   0.000929
    37  H    0.094001   0.033687
    38  H    0.049451   0.050521
    39  H    0.040315   0.120725
 Sum of Mulliken charges =  -1.00000   1.00000

 Dipole moment (field-independent basis, Debye):
    X=              4.1045    Y=              1.6598    Z=              0.3207  Tot=              4.4390
 Quadrupole moment (field-independent basis, Debye-Ang):
   XX=           -199.8850   YY=           -145.3208   ZZ=           -130.7205
   XY=              4.7483   XZ=             12.2030   YZ=              0.5126

 Summary of Natural Population Analysis:

                                       Natural Population
                Natural  -----------------------------------------------
    Atom  No    Charge         Core      Valence    Rydberg      Total
 -----------------------------------------------------------------------
      C    1   -0.28799      0.99967     2.28342    0.00490     3.28799
      C    2   -0.19336      0.99964     2.18508    0.00864     3.19336
      C    3   -0.19059      0.99963     2.18373    0.00724     3.19059
      C    4   -0.19340      0.99963     2.18513    0.00864     3.19340
      C    5   -0.19322      0.99963     2.18446    0.00913     3.19322
      C    6   -0.18473      0.99961     2.17601    0.00911     3.18473
      C    7   -0.12077      0.99957     2.11090    0.01030     3.12077
      C    8   -0.28275      0.99965     2.27700    0.00610     3.28275
      C    9    0.01493      0.99951     1.97404    0.01152     2.98507
      C   10   -0.08313      0.99946     2.07606    0.00761     3.08313
      C   11    0.17643      0.99958     1.80524    0.01874     2.82357
      N   12   -0.26577      0.99970     2.75543    0.01064     3.76577
      C   13   -0.01548      0.99960     2.00313    0.01275     3.01548
      C   14   -0.06800      0.99958     2.05609    0.01234     3.06800
      N   15   -0.17043      0.99961     2.66258    0.00824     3.67043
      C   16    0.05925      0.99957     1.93056    0.01062     2.94075
      C   17   -0.13423      0.99953     2.12530    0.00940     3.13423
      H   18    0.09777      0.00000     0.40110    0.00113     0.40223
      H   19    0.09827      0.00000     0.40076    0.00097     0.40173
      H   20    0.09470      0.00000     0.40420    0.00110     0.40530
      H   21    0.09453      0.00000     0.40430    0.00117     0.40547
      H   22    0.09471      0.00000     0.40437    0.00091     0.40529
      H   23    0.09806      0.00000     0.40068    0.00125     0.40194
      H   24    0.09399      0.00000     0.40503    0.00099     0.40601
      H   25    0.09567      0.00000     0.40327    0.00106     0.40433
      H   26    0.09743      0.00000     0.40156    0.00101     0.40257
      H   27    0.09801      0.00000     0.40081    0.00118     0.40199
      H   28    0.09738      0.00000     0.40155    0.00106     0.40262
      H   29    0.09659      0.00000     0.40224    0.00117     0.40341
      H   30    0.09923      0.00000     0.39959    0.00118     0.40077
      H   31    0.09640      0.00000     0.40157    0.00203     0.40360
      H   32    0.09564      0.00000     0.40355    0.00081     0.40436
      H   33    0.10016      0.00000     0.39919    0.00065     0.39984
      H   34    0.09924      0.00000     0.39992    0.00084     0.40076
      H   35    0.10275      0.00000     0.39594    0.00131     0.39725
      H   36    0.09015      0.00000     0.40899    0.00085     0.40985
      H   37    0.09854      0.00000     0.40061    0.00086     0.40146
      H   38    0.09214      0.00000     0.40705    0.00081     0.40786
      H   39    0.10189      0.00000     0.39718    0.00094     0.39811
 =======================================================================
   * Total *    0.00000     16.99317    45.81763    0.18921    63.00000

 Normal termination of Gaussian 16 at Mon Dec 14 19:47:39 2020.
