 Gaussian 16, Revision A.03,

 -----------------------------------------------------------
 # opt freq B3LYP/6-31G(d) empiricaldispersion=gd3bj scf=xqc
 -----------------------------------------------------------

 -----------------------------
 CID_56637582_JID_891_neutraal
 -----------------------------
 Symbolic Z-matrix:
 Charge =  0 Multiplicity = 1

 SCF Done:  E(RB3LYP) =  -464.926015108     A.U. after   13 cycles
 SCF Done:  E(RB3LYP) =  -464.930326915     A.U. after   11 cycles
 SCF Done:  E(RB3LYP) =  -464.930769744     A.U. after   11 cycles
 SCF Done:  E(RB3LYP) =  -464.931003658     A.U. after   10 cycles
 SCF Done:  E(RB3LYP) =  -464.931109395     A.U. after   10 cycles
 SCF Done:  E(RB3LYP) =  -464.931189191     A.U. after   10 cycles
 SCF Done:  E(RB3LYP) =  -464.931216585     A.U. after    9 cycles
 SCF Done:  E(RB3LYP) =  -464.931225711     A.U. after    9 cycles
 SCF Done:  E(RB3LYP) =  -464.931227057     A.U. after    7 cycles
 SCF Done:  E(RB3LYP) =  -464.931227482     A.U. after    7 cycles
 SCF Done:  E(RB3LYP) =  -464.931227666     A.U. after    7 cycles
 SCF Done:  E(RB3LYP) =  -464.931227747     A.U. after    6 cycles
 Optimization completed.
    -- Stationary point found.

 1\1\GINC-NODE372\FOpt\RB3LYP\6-31G(d)\C8H16O2\VSC10255\08-Dec-2020\0\\
 # opt freq B3LYP/6-31G(d) empiricaldispersion=gd3bj scf=xqc\\CID_56637
 582_JID_891_neutraal\\0,1\C,1.0679115575,-0.1181571549,0.1848383885\C,
 0.1594610151,-1.225832249,0.676043529\C,-0.7966335576,-1.9380107574,-0
 .2483164621\C,0.3815047888,-2.6881036243,0.3273078802\C,1.5136787148,-
 3.145646098,-0.5563420457\C,2.8652906617,-3.3148851696,0.1636231564\C,
 2.8084624696,-4.2443937273,1.3788989322\O,3.8198774169,-3.7815705777,-
 0.782376266\O,1.1917838487,-4.3747646646,-1.238649416\C,-2.2078164997,

 Normal termination of Gaussian 16 at Tue Dec  8 13:32:41 2020.

 --------------------------------------------------------------------
 #N Geom=AllCheck Guess=TCheck SCRF=Check GenChk RB3LYP/6-31G(d) Freq
 --------------------------------------------------------------------

 Structure from the checkpoint file:  "JID_891.chk"
 -----------------------------
 CID_56637582_JID_891_neutraal
 -----------------------------
 Charge =  0 Multiplicity = 1

 SCF Done:  E(RB3LYP) =  -464.931227747     A.U. after    1 cycles

  Exact polarizability:  99.349  -0.128  89.394   0.482  -0.064  78.832
 Approx polarizability: 122.455  -2.024 125.679  -1.919   2.044 117.593

                      1                      2                      3
                      A                      A                      A
 Frequencies --     47.8974                80.6155               103.0761
 Red. masses --      3.2395                 3.6972                 3.4956
 Frc consts  --      0.0044                 0.0142                 0.0219
 IR Inten    --      0.2190                 2.7124                 0.4834

                      4                      5                      6
                      A                      A                      A
 Frequencies --    184.6722               193.2273               200.2528
 Red. masses --      1.8434                 2.4624                 1.0801
 Frc consts  --      0.0370                 0.0542                 0.0255
 IR Inten    --      0.1857                 0.8392                 0.1371

                      7                      8                      9
                      A                      A                      A
 Frequencies --    222.1258               249.7320               273.1372
 Red. masses --      1.4254                 1.2235                 3.0394
 Frc consts  --      0.0414                 0.0450                 0.1336
 IR Inten    --      0.3611                 1.4705                 3.3242

                     10                     11                     12
                      A                      A                      A
 Frequencies --    285.1787               303.4932               317.5616
 Red. masses --      1.3975                 1.9993                 2.1650
 Frc consts  --      0.0670                 0.1085                 0.1286
 IR Inten    --     15.5927                26.3037                 7.9808

                     13                     14                     15
                      A                      A                      A
 Frequencies --    340.1388               406.8566               445.8245
 Red. masses --      3.4169                 2.9707                 2.8211
 Frc consts  --      0.2329                 0.2897                 0.3304
 IR Inten    --     21.0477                 3.7102                 2.5714

                     16                     17                     18
                      A                      A                      A
 Frequencies --    495.2083               540.8989               565.7146
 Red. masses --      2.8820                 1.1266                 3.0317
 Frc consts  --      0.4164                 0.1942                 0.5716
 IR Inten    --      4.4585               176.4552                 1.2936

                     19                     20                     21
                      A                      A                      A
 Frequencies --    674.8064               790.4536               812.9318
 Red. masses --      2.6035                 2.7759                 2.8012
 Frc consts  --      0.6985                 1.0219                 1.0907
 IR Inten    --      7.6167                 2.3784                15.0226

                     22                     23                     24
                      A                      A                      A
 Frequencies --    846.4426               901.5707               945.5690
 Red. masses --      2.4865                 1.8400                 2.1274
 Frc consts  --      1.0496                 0.8812                 1.1207
 IR Inten    --      2.6513                 8.0353                 9.2128

                     25                     26                     27
                      A                      A                      A
 Frequencies --    973.0087               977.1423              1008.4871
 Red. masses --      1.2994                 1.3394                 1.9728
 Frc consts  --      0.7248                 0.7535                 1.1822
 IR Inten    --      8.4648                22.8597                42.4955

                     28                     29                     30
                      A                      A                      A
 Frequencies --   1054.4163              1085.3993              1101.2591
 Red. masses --      1.5980                 1.9114                 1.4284
 Frc consts  --      1.0468                 1.3267                 1.0206
 IR Inten    --      4.7927                36.8206                 1.8933

                     31                     32                     33
                      A                      A                      A
 Frequencies --   1115.4166              1123.8869              1140.4029
 Red. masses --      2.8394                 2.0363                 1.7497
 Frc consts  --      2.0813                 1.5154                 1.3407
 IR Inten    --     70.4389                38.7722                 9.4108

                     34                     35                     36
                      A                      A                      A
 Frequencies --   1149.3596              1155.7487              1170.6935
 Red. masses --      1.7887                 1.6770                 1.8474
 Frc consts  --      1.3922                 1.3198                 1.4917
 IR Inten    --     42.7242                16.2240                 2.8314

                     37                     38                     39
                      A                      A                      A
 Frequencies --   1211.9032              1251.6169              1264.7338
 Red. masses --      1.8705                 1.5250                 1.3946
 Frc consts  --      1.6186                 1.4076                 1.3143
 IR Inten    --      1.1006                 1.2247                17.3017

                     40                     41                     42
                      A                      A                      A
 Frequencies --   1301.1445              1320.6464              1369.0142
 Red. masses --      1.4874                 1.3821                 1.2919
 Frc consts  --      1.4836                 1.4202                 1.4266
 IR Inten    --     16.2107                10.0350                 1.3132

                     43                     44                     45
                      A                      A                      A
 Frequencies --   1392.6454              1408.6905              1433.0924
 Red. masses --      1.3436                 1.3069                 1.3392
 Frc consts  --      1.5353                 1.5280                 1.6205
 IR Inten    --      7.1923                15.5195                20.4902

                     46                     47                     48
                      A                      A                      A
 Frequencies --   1442.4143              1444.2839              1450.6449
 Red. masses --      1.3051                 1.2421                 1.2600
 Frc consts  --      1.5998                 1.5266                 1.5622
 IR Inten    --     47.9163                 9.9993                23.6196

                     49                     50                     51
                      A                      A                      A
 Frequencies --   1453.7044              1503.3041              1521.9181
 Red. masses --      1.2491                 2.0575                 1.0463
 Frc consts  --      1.5552                 2.7395                 1.4278
 IR Inten    --     47.6471                 6.3996                 1.5266

                     52                     53                     54
                      A                      A                      A
 Frequencies --   1523.3923              1525.4394              1531.0869
 Red. masses --      1.0648                 1.0489                 1.0440
 Frc consts  --      1.4559                 1.4380                 1.4420
 IR Inten    --      3.6347                 5.1429                11.3582

                     55                     56                     57
                      A                      A                      A
 Frequencies --   1531.6518              1538.4329              3038.3902
 Red. masses --      1.0474                 1.2112                 1.0351
 Frc consts  --      1.4477                 1.6890                 5.6301
 IR Inten    --      8.9991                 0.6780                42.6480

                     58                     59                     60
                      A                      A                      A
 Frequencies --   3043.6292              3045.7138              3065.1746
 Red. masses --      1.0404                 1.0370                 1.0843
 Frc consts  --      5.6784                 5.6678                 6.0021
 IR Inten    --     13.5022                25.8932                23.5240

                     61                     62                     63
                      A                      A                      A
 Frequencies --   3093.5159              3101.9243              3102.0024
 Red. masses --      1.0870                 1.1025                 1.1011
 Frc consts  --      6.1287                 6.2503                 6.2428
 IR Inten    --     13.0758                18.1861                 9.8379

                     64                     65                     66
                      A                      A                      A
 Frequencies --   3102.6225              3110.2390              3117.7840
 Red. masses --      1.1018                 1.0978                 1.0874
 Frc consts  --      6.2488                 6.2569                 6.2277
 IR Inten    --     55.2778                55.7458                16.6704

                     67                     68                     69
                      A                      A                      A
 Frequencies --   3120.7703              3135.5638              3140.0025
 Red. masses --      1.0959                 1.0912                 1.1004
 Frc consts  --      6.2885                 6.3208                 6.3926
 IR Inten    --      4.7861                 6.8033                22.4967

                     70                     71                     72
                      A                      A                      A
 Frequencies --   3146.3404              3673.8089              3736.9452
 Red. masses --      1.0882                 1.0647                 1.0659
 Frc consts  --      6.3471                 8.4669                 8.7701
 IR Inten    --     63.0537                35.7828                10.5196

 - Thermochemistry -
 -------------------
 Temperature   298.150 Kelvin.  Pressure   1.00000 Atm.
 Atom     1 has atomic number  6 and mass  12.00000

 Molecular mass:   144.11503 amu.
 Principal axes and moments of inertia in atomic units:
                           1         2         3
     Eigenvalues --   918.336252268.665252592.42986
           X            0.99989   0.00177   0.01439
           Y           -0.00106   0.99881  -0.04881
           Z           -0.01446   0.04879   0.99870
 This molecule is an asymmetric top.
 Rotational symmetry number  1.
 Warning -- assumption of classical behavior for rotation
           may cause significant error
 Rotational temperatures (Kelvin)      0.09432     0.03818     0.03341
 Rotational constants (GHZ):           1.96523     0.79551     0.69616
 Zero-point vibrational energy     612947.3 (Joules/Mol)
                                  146.49793 (Kcal/Mol)
 Warning -- explicit consideration of  18 degrees of freedom as
           vibrations may cause significant error
 Vibrational temperatures:     68.91   115.99   148.30   265.70   278.01
          (Kelvin)            288.12   319.59   359.31   392.98   410.31
                              436.66   456.90   489.38   585.38   641.44
                              712.49   778.23   813.94   970.90  1137.29
                             1169.63  1217.84  1297.16  1360.46  1399.94
                             1405.89  1450.99  1517.07  1561.65  1584.47
                             1604.84  1617.02  1640.79  1653.67  1662.86
                             1684.37  1743.66  1800.80  1819.67  1872.06
                             1900.12  1969.71  2003.71  2026.79  2061.90
                             2075.31  2078.00  2087.15  2091.56  2162.92
                             2189.70  2191.82  2194.77  2202.89  2203.71
                             2213.46  4371.57  4379.10  4382.10  4410.10
                             4450.88  4462.98  4463.09  4463.98  4474.94
                             4485.80  4490.09  4511.38  4517.76  4526.88
                             5285.79  5376.63

 Zero-point correction=                           0.233459 (Hartree/Particle)
 Thermal correction to Energy=                    0.245535
 Thermal correction to Enthalpy=                  0.246479
 Thermal correction to Gibbs Free Energy=         0.196025
 Sum of electronic and zero-point Energies=           -464.697768
 Sum of electronic and thermal Energies=              -464.685693
 Sum of electronic and thermal Enthalpies=            -464.684749
 Sum of electronic and thermal Free Energies=         -464.735203

                     E (Thermal)             CV                S
                      KCal/Mol        Cal/Mol-Kelvin    Cal/Mol-Kelvin
 Total                  154.075             44.972            106.190
 Electronic               0.000              0.000              0.000
 Translational            0.889              2.981             40.807
 Rotational               0.889              2.981             30.069
 Vibrational            152.298             39.010             35.313
 Vibration     1          0.595              1.978              4.902
 Vibration     2          0.600              1.962              3.876
 Vibration     3          0.605              1.947              3.395
 Vibration     4          0.631              1.861              2.281
 Vibration     5          0.635              1.849              2.197
 Vibration     6          0.638              1.840              2.131
 Vibration     7          0.648              1.807              1.942
 Vibration     8          0.663              1.763              1.732
 Vibration     9          0.676              1.723              1.576
 Vibration    10          0.683              1.701              1.502
 Vibration    11          0.695              1.667              1.398
 Vibration    12          0.704              1.640              1.323
 Vibration    13          0.720              1.595              1.211
 Vibration    14          0.772              1.455              0.938
 Vibration    15          0.805              1.370              0.809
 Vibration    16          0.851              1.261              0.670
 Vibration    17          0.896              1.160              0.563
 Vibration    18          0.922              1.105              0.513

 Optimization completed.
    -- Stationary point found.

 1\1\GINC-NODE372\Freq\RB3LYP\6-31G(d)\C8H16O2\VSC10255\08-Dec-2020\0\\
 #N Geom=AllCheck Guess=TCheck SCRF=Check GenChk RB3LYP/6-31G(d) Freq\\
 CID_56637582_JID_891_neutraal\\0,1\C,1.0679115575,-0.1181571549,0.1848
 383885\C,0.1594610151,-1.225832249,0.676043529\C,-0.7966335576,-1.9380
 107574,-0.2483164621\C,0.3815047888,-2.6881036243,0.3273078802\C,1.513
 6787148,-3.145646098,-0.5563420457\C,2.8652906617,-3.3148851696,0.1636
 231564\C,2.8084624696,-4.2443937273,1.3788989322\O,3.8198774169,-3.781
 5705777,-0.782376266\O,1.1917838487,-4.3747646646,-1.238649416\C,-2.20

 Normal termination of Gaussian 16 at Tue Dec  8 13:39:34 2020.

 ----------------------------------------------------------------------
 # B3LYP/6-311++G(d,p) empiricaldispersion=gd3bj scf=xqc pop=npa geom=c
 heck
 ----------------------------------------------------------------------

 -------------------------------------
 CID_56637582_JID_891_Energie_neutraal
 -------------------------------------
 Structure from the checkpoint file:  "JID_891.chk"
 Charge =  0 Multiplicity = 1

 SCF Done:  E(RB3LYP) =  -465.084072758     A.U. after   13 cycles
 Normal termination of Gaussian 16 at Tue Dec  8 13:43:36 2020.

 ----------------------------------------------------------------------
 # B3LYP/6-311++G(d,p) empiricaldispersion=gd3bj scf=xqc pop=npa geom=c
 heck
 ----------------------------------------------------------------------

 -----------------------------------
 CID_56637582_JID_891_Energie_kation
 -----------------------------------
 Structure from the checkpoint file:  "JID_891.chk"
 Charge =  1 Multiplicity = 2

 SCF Done:  E(UB3LYP) =  -464.749994873     A.U. after   23 cycles
 Normal termination of Gaussian 16 at Tue Dec  8 13:50:25 2020.
 Gaussian 16:  ES64L-G16RevA.03 25-Dec-2016

 ----------------------------------
 CID_56637582_JID_891_Energie_anion
 ----------------------------------
 Structure from the checkpoint file:  "JID_891.chk"
 Charge = -1 Multiplicity = 2

                         Standard orientation:
 ---------------------------------------------------------------------
 Center     Atomic      Atomic             Coordinates (Angstroms)
 Number     Number       Type             X           Y           Z
 ---------------------------------------------------------------------
      1          6           0       -1.367885    2.208331   -0.394084
      2          6           0       -1.612120    0.928695    0.378178
      3          6           0       -2.019045   -0.350012   -0.311080
      4          6           0       -0.657642   -0.252990    0.336347
      5          6           0        0.597358   -0.249445   -0.498494
      6          6           0        1.804066    0.451194    0.154811
      7          6           0        2.160026   -0.091269    1.541584
      8          8           0        2.914677    0.343455   -0.727732
      9          8           0        0.984682   -1.584889   -0.881198
     10          6           0       -3.088140   -1.248353    0.268833
     11          1           0       -2.307215    2.756523   -0.533161
     12          1           0       -0.953488    2.014311   -1.388224
     13          1           0       -0.670320    2.869808    0.133797
     14          1           0       -2.072809    1.089727    1.352485
     15          1           0       -2.002234   -0.310707   -1.400246
     16          1           0       -0.550463   -0.787471    1.281601
     17          1           0        0.417404    0.252193   -1.453546
     18          1           0        1.576031    1.520658    0.236745
     19          1           0        2.339052   -1.173674    1.505604
     20          1           0        3.082377    0.382214    1.888710
     21          1           0        1.370162    0.106549    2.274696
     22          1           0        2.870717   -0.571357   -1.061024
     23          1           0        0.908860   -2.145022   -0.092449
     24          1           0       -4.091203   -0.916046   -0.024724
     25          1           0       -2.964192   -2.284059   -0.070107
     26          1           0       -3.047263   -1.249081    1.364719
 ---------------------------------------------------------------------

 SCF Done:  E(UB3LYP) =  -465.069373251     A.U. after   28 cycles

 The electronic state is 2-A.
 Alpha  occ. eigenvalues --  -19.02486 -19.01280 -10.12037 -10.11537 -10.07550
 Alpha  occ. eigenvalues --  -10.07287 -10.07047 -10.06565 -10.05580 -10.05315
 Alpha  occ. eigenvalues --   -0.93570  -0.90655  -0.76836  -0.66157  -0.62857
 Alpha  occ. eigenvalues --   -0.60578  -0.57587  -0.50236  -0.47688  -0.46132
 Alpha  occ. eigenvalues --   -0.40602  -0.39376  -0.37357  -0.35811  -0.33973
 Alpha  occ. eigenvalues --   -0.32259  -0.31381  -0.30367  -0.29929  -0.29106
 Alpha  occ. eigenvalues --   -0.28028  -0.27262  -0.26525  -0.24977  -0.23980
 Alpha  occ. eigenvalues --   -0.22884  -0.19434  -0.18099  -0.17187  -0.15852
 Alpha  occ. eigenvalues --    0.04743
 Alpha virt. eigenvalues --    0.06926   0.07673   0.08259   0.09487   0.09961
 Alpha virt. eigenvalues --    0.10549   0.10656   0.11331   0.11942   0.12868
 Alpha virt. eigenvalues --    0.13006   0.13753   0.14609   0.14831   0.15222

  Beta  occ. eigenvalues --  -19.02446 -19.01272 -10.12033 -10.11531 -10.07533
  Beta  occ. eigenvalues --  -10.07284 -10.07026 -10.06545 -10.05542 -10.05270
  Beta  occ. eigenvalues --   -0.93516  -0.90606  -0.76804  -0.66117  -0.62814
  Beta  occ. eigenvalues --   -0.60523  -0.57522  -0.50184  -0.47621  -0.46079
  Beta  occ. eigenvalues --   -0.40568  -0.39308  -0.37322  -0.35764  -0.33909
  Beta  occ. eigenvalues --   -0.32232  -0.31336  -0.30335  -0.29883  -0.29067
  Beta  occ. eigenvalues --   -0.27990  -0.27224  -0.26480  -0.24913  -0.23948
  Beta  occ. eigenvalues --   -0.22842  -0.19396  -0.18071  -0.17155  -0.15830
  Beta virt. eigenvalues --    0.07181   0.08011   0.08265   0.08859   0.10116
  Beta virt. eigenvalues --    0.10508   0.10922   0.11163   0.11771   0.12473
  Beta virt. eigenvalues --    0.13283   0.13614   0.14035   0.14922   0.15098

 Mulliken charges and spin densities:
               1          2
     1  C    0.640995  -1.329821
     2  C    0.093450  -0.230084
     3  C   -2.043595   2.313366
     4  C    0.339365  -0.683572
     5  C    1.119187  -1.228844
     6  C   -1.406707   0.994046
     7  C    1.273694  -1.728023
     8  O   -0.183141   0.007929
     9  O   -0.211461  -0.013490
    10  C    1.684277  -2.311068
    11  H   -0.193432   0.339669
    12  H    0.022006   0.094968
    13  H   -0.044877   0.186426
    14  H   -0.523925   0.744815
    15  H   -0.113394   0.310514
    16  H   -0.227807   0.483195
    17  H    0.165599   0.062011
    18  H    0.141389   0.039530
    19  H   -0.441631   0.610521
    20  H   -0.153570   0.315476
    21  H   -0.124419   0.270817
    22  H    0.257630  -0.007451
    23  H   -0.112606   0.376365
    24  H   -0.216238   0.353729
    25  H   -0.160031   0.303355
    26  H   -0.580759   0.725625
 Sum of Mulliken charges =  -1.00000   1.00000

 Dipole moment (field-independent basis, Debye):
    X=              1.9731    Y=              2.0947    Z=             -4.0700  Tot=              4.9846
 Quadrupole moment (field-independent basis, Debye-Ang):
   XX=           -123.5016   YY=           -105.5233   ZZ=           -100.4505
   XY=              0.6026   XZ=              4.2020   YZ=              2.8761

 Summary of Natural Population Analysis:

                                       Natural Population
                Natural  -----------------------------------------------
    Atom  No    Charge         Core      Valence    Rydberg      Total
 -----------------------------------------------------------------------
      C    1   -0.28576      0.99965     2.27948    0.00663     3.28576
      C    2   -0.10531      0.99957     2.09451    0.01123     3.10531
      C    3   -0.10260      0.99956     2.09337    0.00967     3.10260
      C    4   -0.12909      0.99952     2.11543    0.01414     3.12909
      C    5    0.05234      0.99951     1.93266    0.01549     2.94766
      C    6    0.05495      0.99956     1.93196    0.01353     2.94505
      C    7   -0.30205      0.99965     2.29569    0.00671     3.30205
      O    8   -0.37771      0.99990     3.37132    0.00649     4.37771
      O    9   -0.38040      0.99990     3.37381    0.00670     4.38040
      C   10   -0.28210      0.99965     2.27660    0.00586     3.28210
      H   11    0.10162      0.00000     0.39730    0.00107     0.39838
      H   12    0.09593      0.00000     0.40293    0.00114     0.40407
      H   13    0.09903      0.00000     0.39989    0.00108     0.40097
      H   14    0.10343      0.00000     0.39463    0.00194     0.39657
      H   15    0.09751      0.00000     0.40069    0.00180     0.40249
      H   16    0.10946      0.00000     0.38720    0.00334     0.39054
      H   17    0.09100      0.00000     0.40709    0.00190     0.40900
      H   18    0.08598      0.00000     0.41209    0.00193     0.41402
      H   19    0.09779      0.00000     0.40019    0.00203     0.40221
      H   20    0.10352      0.00000     0.39547    0.00101     0.39648
      H   21    0.10396      0.00000     0.39460    0.00144     0.39604
      H   22    0.23398      0.00000     0.26297    0.00305     0.26602
      H   23    0.23499      0.00000     0.26007    0.00493     0.26501
      H   24    0.09788      0.00000     0.40088    0.00123     0.40212
      H   25    0.10009      0.00000     0.39870    0.00120     0.39991
      H   26    0.10156      0.00000     0.39645    0.00199     0.39844
 =======================================================================
   * Total *    0.00000      9.99646    29.87599    0.12755    40.00000

 Normal termination of Gaussian 16 at Tue Dec  8 13:56:11 2020.
