 Gaussian 16, Revision A.03,

 -----------------------------------------------------------
 # opt freq B3LYP/6-31G(d) empiricaldispersion=gd3bj scf=xqc
 -----------------------------------------------------------

 -------------------------------
 CID_153973388_JID_1206_neutraal
 -------------------------------
 Symbolic Z-matrix:
 Charge =  0 Multiplicity = 1

 SCF Done:  E(RB3LYP) =  -447.284788830     A.U. after   13 cycles
 SCF Done:  E(RB3LYP) =  -447.288674765     A.U. after   11 cycles
 SCF Done:  E(RB3LYP) =  -447.289193021     A.U. after   10 cycles
 SCF Done:  E(RB3LYP) =  -447.289271281     A.U. after   10 cycles
 SCF Done:  E(RB3LYP) =  -447.289291888     A.U. after    9 cycles
 SCF Done:  E(RB3LYP) =  -447.289297708     A.U. after    8 cycles
 SCF Done:  E(RB3LYP) =  -447.289298339     A.U. after    7 cycles
 Optimization completed.
    -- Stationary point found.
 Normal termination of Gaussian 16 at Tue Dec  8 19:22:21 2020.

 --------------------------------------------------------------------
 #N Geom=AllCheck Guess=TCheck SCRF=Check GenChk RB3LYP/6-31G(d) Freq
 --------------------------------------------------------------------

 Structure from the checkpoint file:  "JID_1206.chk"
 -------------------------------
 CID_153973388_JID_1206_neutraal
 -------------------------------
 Charge =  0 Multiplicity = 1

 SCF Done:  E(RB3LYP) =  -447.289298339     A.U. after    1 cycles

  Exact polarizability: 118.139  -0.351  99.750  -0.392  -0.605  96.924
 Approx polarizability: 151.577   0.363 140.854  -1.182  -0.896 147.625

                      1                      2                      3
                      A                      A                      A
 Frequencies --    121.8743               158.1067               221.5116
 Red. masses --      2.4857                 1.9855                 2.9026
 Frc consts  --      0.0218                 0.0292                 0.0839
 IR Inten    --      0.0690                 0.0293                 0.4135

                      4                      5                      6
                      A                      A                      A
 Frequencies --    230.3551               254.5083               265.3025
 Red. masses --      1.9370                 1.5126                 1.7861
 Frc consts  --      0.0606                 0.0577                 0.0741
 IR Inten    --      0.1774                 1.0387                 1.1853

                      7                      8                      9
                      A                      A                      A
 Frequencies --    297.6239               340.8392               367.7880
 Red. masses --      2.1549                 1.9220                 2.1855
 Frc consts  --      0.1125                 0.1316                 0.1742
 IR Inten    --      0.2583                 0.5162                 1.4249

                     10                     11                     12
                      A                      A                      A
 Frequencies --    397.8800               426.1552               463.9025
 Red. masses --      1.9845                 2.2579                 3.0413
 Frc consts  --      0.1851                 0.2416                 0.3856
 IR Inten    --      1.3168                 0.2751                 0.0706

                     13                     14                     15
                      A                      A                      A
 Frequencies --    475.6280               517.2025               604.1003
 Red. masses --      3.8805                 3.0837                 2.8996
 Frc consts  --      0.5172                 0.4860                 0.6235
 IR Inten    --      8.3357                 1.7751                 1.0648

                     16                     17                     18
                      A                      A                      A
 Frequencies --    702.1315               735.2893               780.1321
 Red. masses --      1.9567                 3.1852                 2.0393
 Frc consts  --      0.5683                 1.0146                 0.7312
 IR Inten    --      7.2010                 1.1216                 1.6110

                     19                     20                     21
                      A                      A                      A
 Frequencies --    808.6386               830.2170               859.8175
 Red. masses --      2.2312                 1.6933                 1.7370
 Frc consts  --      0.8596                 0.6876                 0.7566
 IR Inten    --      0.1560                 2.9018                 2.8353

                     22                     23                     24
                      A                      A                      A
 Frequencies --    874.8693               915.6789               933.8582
 Red. masses --      2.3916                 2.0112                 1.6833
 Frc consts  --      1.0785                 0.9936                 0.8649
 IR Inten    --      1.1252                 4.8800                 1.3651

                     25                     26                     27
                      A                      A                      A
 Frequencies --    951.1466               966.3421               995.3720
 Red. masses --      1.9757                 2.0766                 2.0765
 Frc consts  --      1.0531                 1.1425                 1.2122
 IR Inten    --      2.2908                 0.1662                 4.0001

                     28                     29                     30
                      A                      A                      A
 Frequencies --   1014.5068              1026.2560              1059.4479
 Red. masses --      1.8020                 2.0030                 2.3139
 Frc consts  --      1.0927                 1.2429                 1.5302
 IR Inten    --      0.9467                 5.8410                 8.4245

                     31                     32                     33
                      A                      A                      A
 Frequencies --   1082.2290              1115.7957              1125.9792
 Red. masses --      1.7270                 2.5357                 2.2952
 Frc consts  --      1.1918                 1.8601                 1.7145
 IR Inten    --      2.7789                20.7659                18.9970

                     34                     35                     36
                      A                      A                      A
 Frequencies --   1134.5669              1148.2662              1184.9245
 Red. masses --      2.9114                 1.3955                 2.1283
 Frc consts  --      2.2081                 1.0841                 1.7606
 IR Inten    --     15.0141                 3.9568                 4.3681

                     37                     38                     39
                      A                      A                      A
 Frequencies --   1207.2301              1219.9936              1256.4502
 Red. masses --      1.2569                 1.8136                 1.3621
 Frc consts  --      1.0792                 1.5904                 1.2669
 IR Inten    --      5.5910                14.3143                 4.1865

                     40                     41                     42
                      A                      A                      A
 Frequencies --   1271.2342              1285.5657              1303.0840
 Red. masses --      1.3156                 1.1883                 1.2689
 Frc consts  --      1.2526                 1.1570                 1.2695
 IR Inten    --      2.7923                 2.2018                 2.5289

                     43                     44                     45
                      A                      A                      A
 Frequencies --   1311.5185              1347.4630              1359.9161
 Red. masses --      1.4035                 1.3305                 1.2095
 Frc consts  --      1.4223                 1.4233                 1.3179
 IR Inten    --      2.7576                 4.4663                 1.8676

                     46                     47                     48
                      A                      A                      A
 Frequencies --   1369.5059              1375.4514              1376.4315
 Red. masses --      1.3708                 1.4250                 1.3568
 Frc consts  --      1.5148                 1.5884                 1.5145
 IR Inten    --      0.7932                 3.0226                 4.5857

                     49                     50                     51
                      A                      A                      A
 Frequencies --   1389.8118              1402.3951              1406.3932
 Red. masses --      1.2657                 1.2903                 1.3160
 Frc consts  --      1.4404                 1.4951                 1.5336
 IR Inten    --      1.6503                 4.7834                11.3228

                     52                     53                     54
                      A                      A                      A
 Frequencies --   1417.6923              1424.8304              1425.3222
 Red. masses --      1.4134                 1.3215                 1.4538
 Frc consts  --      1.6737                 1.5807                 1.7402
 IR Inten    --     14.2303                 6.5515                12.4103

                     55                     56                     57
                      A                      A                      A
 Frequencies --   1435.4064              1446.0895              1514.6870
 Red. masses --      1.3450                 1.2861                 1.0786
 Frc consts  --      1.6328                 1.5846                 1.4580
 IR Inten    --      6.9503                 3.1669                 0.3286

                     58                     59                     60
                      A                      A                      A
 Frequencies --   1518.5207              1522.0497              1523.4860
 Red. masses --      1.0822                 1.0844                 1.0742
 Frc consts  --      1.4703                 1.4802                 1.4689
 IR Inten    --      1.8248                 2.2619                 2.4111

                     61                     62                     63
                      A                      A                      A
 Frequencies --   1530.0702              1531.3120              1533.2703
 Red. masses --      1.0564                 1.0677                 1.0790
 Frc consts  --      1.4572                 1.4751                 1.4946
 IR Inten    --      7.8752                 0.8122                 4.0189

                     64                     65                     66
                      A                      A                      A
 Frequencies --   1540.6380              1552.8651              2978.0843
 Red. masses --      1.0833                 1.0899                 1.0720
 Frc consts  --      1.5150                 1.5485                 5.6017
 IR Inten    --     11.8861                 2.4527                86.2694

                     67                     68                     69
                      A                      A                      A
 Frequencies --   2992.4558              3020.2170              3023.4769
 Red. masses --      1.0757                 1.0629                 1.0701
 Frc consts  --      5.6752                 5.7125                 5.7635
 IR Inten    --     91.9924                19.2666                32.9404

                     70                     71                     72
                      A                      A                      A
 Frequencies --   3033.9397              3037.3822              3039.4383
 Red. masses --      1.0706                 1.0425                 1.0628
 Frc consts  --      5.8063                 5.6666                 5.7849
 IR Inten    --     10.9981                25.7499                58.4575

                     73                     74                     75
                      A                      A                      A
 Frequencies --   3040.9704              3044.9349              3057.7205
 Red. masses --      1.0802                 1.0732                 1.0897
 Frc consts  --      5.8853                 5.8628                 6.0027
 IR Inten    --     18.6410                61.2252                31.5590

                     76                     77                     78
                      A                      A                      A
 Frequencies --   3061.1993              3068.4214              3072.4362
 Red. masses --      1.0804                 1.0913                 1.0994
 Frc consts  --      5.9649                 6.0539                 6.1148
 IR Inten    --     39.7444                38.4000                 7.0989

                     79                     80                     81
                      A                      A                      A
 Frequencies --   3079.2468              3082.0557              3098.3830
 Red. masses --      1.0987                 1.0949                 1.0943
 Frc consts  --      6.1377                 6.1280                 6.1894
 IR Inten    --     60.5424                12.0535                30.5957

                     82                     83                     84
                      A                      A                      A
 Frequencies --   3101.2728              3104.8515              3110.8690
 Red. masses --      1.0977                 1.0984                 1.1025
 Frc consts  --      6.2205                 6.2387                 6.2861
 IR Inten    --     63.9748               103.9147                35.8585

 - Thermochemistry -
 -------------------
 Temperature   298.150 Kelvin.  Pressure   1.00000 Atm.
 Atom     1 has atomic number  6 and mass  12.00000

 Molecular mass:   153.15175 amu.
 Principal axes and moments of inertia in atomic units:
                           1         2         3
     Eigenvalues --  1043.046031859.896382131.02081
           X            0.99999  -0.00376  -0.00041
           Y            0.00375   0.99994  -0.00988
           Z            0.00044   0.00988   0.99995
 This molecule is an asymmetric top.
 Rotational symmetry number  1.
 Warning -- assumption of classical behavior for rotation
           may cause significant error
 Rotational temperatures (Kelvin)      0.08304     0.04657     0.04064
 Rotational constants (GHZ):           1.73026     0.97035     0.84689
 Zero-point vibrational energy     743086.0 (Joules/Mol)
                                  177.60182 (Kcal/Mol)
 Warning -- explicit consideration of  15 degrees of freedom as
           vibrations may cause significant error
 Vibrational temperatures:    175.35   227.48   318.71   331.43   366.18
          (Kelvin)            381.71   428.21   490.39   529.16   572.46
                              613.14   667.45   684.32   744.14   869.17
                             1010.21  1057.92  1122.44  1163.45  1194.50
                             1237.09  1258.74  1317.46  1343.61  1368.49
                             1390.35  1432.12  1459.65  1476.55  1524.31
                             1557.09  1605.38  1620.03  1632.39  1652.10
                             1704.84  1736.93  1755.30  1807.75  1829.02
                             1849.64  1874.85  1886.98  1938.70  1956.62
                             1970.41  1978.97  1980.38  1999.63  2017.73
                             2023.49  2039.74  2050.01  2050.72  2065.23
                             2080.60  2179.30  2184.81  2189.89  2191.96
                             2201.43  2203.22  2206.03  2216.63  2234.23
                             4284.80  4305.48  4345.42  4350.11  4365.16
                             4370.12  4373.07  4375.28  4380.98  4399.38
                             4404.38  4414.77  4420.55  4430.35  4434.39
                             4457.88  4462.04  4467.19  4475.85

 Zero-point correction=                           0.283027 (Hartree/Particle)
 Thermal correction to Energy=                    0.293012
 Thermal correction to Enthalpy=                  0.293956
 Thermal correction to Gibbs Free Energy=         0.248872
 Sum of electronic and zero-point Energies=           -447.006272
 Sum of electronic and thermal Energies=              -446.996286
 Sum of electronic and thermal Enthalpies=            -446.995342
 Sum of electronic and thermal Free Energies=         -447.040426

                     E (Thermal)             CV                S
                      KCal/Mol        Cal/Mol-Kelvin    Cal/Mol-Kelvin
 Total                  183.868             41.946             94.887
 Electronic               0.000              0.000              0.000
 Translational            0.889              2.981             40.989
 Rotational               0.889              2.981             29.804
 Vibrational            182.090             35.985             24.094
 Vibration     1          0.609              1.931              3.070
 Vibration     2          0.621              1.894              2.572
 Vibration     3          0.648              1.808              1.947
 Vibration     4          0.652              1.795              1.876
 Vibration     5          0.665              1.755              1.699
 Vibration     6          0.671              1.737              1.627
 Vibration     7          0.691              1.678              1.430
 Vibration     8          0.720              1.594              1.208
 Vibration     9          0.740              1.538              1.089
 Vibration    10          0.764              1.475              0.970
 Vibration    11          0.788              1.413              0.871
 Vibration    12          0.821              1.330              0.755
 Vibration    13          0.832              1.304              0.722
 Vibration    14          0.872              1.212              0.616
 Vibration    15          0.963              1.023              0.443

                           ! Non-Optimized Parameters !
 Normal termination of Gaussian 16 at Tue Dec  8 19:29:56 2020.

 ----------------------------------------------------------------------
 # B3LYP/6-311++G(d,p) empiricaldispersion=gd3bj scf=xqc pop=npa geom=c
 heck
 ----------------------------------------------------------------------

 ---------------------------------------
 CID_153973388_JID_1206_Energie_neutraal
 ---------------------------------------
 Structure from the checkpoint file:  "JID_1206.chk"
 Charge =  0 Multiplicity = 1

 SCF Done:  E(RB3LYP) =  -447.408280385     A.U. after   13 cycles
 Normal termination of Gaussian 16 at Tue Dec  8 19:32:39 2020.

 ----------------------------------------------------------------------
 # B3LYP/6-311++G(d,p) empiricaldispersion=gd3bj scf=xqc pop=npa geom=c
 heck
 ----------------------------------------------------------------------

 -------------------------------------
 CID_153973388_JID_1206_Energie_kation
 -------------------------------------
 Structure from the checkpoint file:  "JID_1206.chk"
 Charge =  1 Multiplicity = 2

 SCF Done:  E(UB3LYP) =  -447.144237337     A.U. after   15 cycles
 Normal termination of Gaussian 16 at Tue Dec  8 19:36:45 2020.
 Gaussian 16:  ES64L-G16RevA.03 25-Dec-2016

 ----------------------------------------------------------------------
 # B3LYP/6-311++G(d,p) empiricaldispersion=gd3bj scf=xqc pop=npa geom=c
 heck
 ----------------------------------------------------------------------

 ------------------------------------
 CID_153973388_JID_1206_Energie_anion
 ------------------------------------
 Structure from the checkpoint file:  "JID_1206.chk"
 Charge = -1 Multiplicity = 2

                         Standard orientation:
 ---------------------------------------------------------------------
 Center     Atomic      Atomic             Coordinates (Angstroms)
 Number     Number       Type             X           Y           Z
 ---------------------------------------------------------------------
      1          6           0        3.226943   -0.220035   -0.042529
      2          6           0        1.724693   -0.061198    0.231000
      3          6           0        1.288509    1.394267   -0.075923
      4          6           0       -0.133130    1.636540   -0.604553
      5          6           0       -1.362436    1.166493    0.233984
      6          6           0       -1.051795    0.373995    1.526203
      7          6           0       -0.838705   -1.134512    1.212047
      8          7           0       -0.455627   -1.382591   -0.167474
      9          6           0        0.949392   -1.175844   -0.510129
     10          6           0       -1.501041   -0.974398   -1.102324
     11          6           0       -2.273726    0.291645   -0.641654
     12          1           0        3.442695   -0.113128   -1.113650
     13          1           0        3.592904   -1.202689    0.277076
     14          1           0        3.806094    0.544026    0.488618
     15          1           0        1.582445   -0.243822    1.302319
     16          1           0        1.463298    2.003664    0.820765
     17          1           0        1.967872    1.800212   -0.838678
     18          1           0       -0.193161    1.187282   -1.602438
     19          1           0       -0.228354    2.715733   -0.779350
     20          1           0       -1.918660    2.062685    0.532106
     21          1           0       -1.899778    0.480438    2.215209
     22          1           0       -0.186290    0.803716    2.040114
     23          1           0       -1.776521   -1.677025    1.394000
     24          1           0       -0.095978   -1.580782    1.881924
     25          1           0        1.016432   -1.015804   -1.593350
     26          1           0        1.497258   -2.111699   -0.311330
     27          1           0       -2.216978   -1.800061   -1.240053
     28          1           0       -1.037927   -0.807409   -2.079475
     29          1           0       -2.636786    0.849628   -1.513673
     30          1           0       -3.161399    0.001454   -0.064542
 ---------------------------------------------------------------------

 SCF Done:  E(UB3LYP) =  -447.390895849     A.U. after   28 cycles

 The electronic state is 2-A.
 Alpha  occ. eigenvalues --  -14.18580 -10.08351 -10.08319 -10.08088 -10.06280
 Alpha  occ. eigenvalues --  -10.06012 -10.05386 -10.05355 -10.05323 -10.05108
 Alpha  occ. eigenvalues --  -10.05026  -0.81616  -0.69934  -0.69409  -0.63934
 Alpha  occ. eigenvalues --   -0.61352  -0.58363  -0.53793  -0.51961  -0.48074
 Alpha  occ. eigenvalues --   -0.45658  -0.40817  -0.39522  -0.37876  -0.35923
 Alpha  occ. eigenvalues --   -0.33883  -0.32072  -0.31605  -0.30675  -0.29696
 Alpha  occ. eigenvalues --   -0.28990  -0.27853  -0.26557  -0.25886  -0.25161
 Alpha  occ. eigenvalues --   -0.24975  -0.23132  -0.22029  -0.21605  -0.20194
 Alpha  occ. eigenvalues --   -0.19241  -0.19006  -0.08833   0.04772
 Alpha virt. eigenvalues --    0.06971   0.07608   0.07838   0.09371   0.09509
 Alpha virt. eigenvalues --    0.09706   0.10071   0.10351   0.11972   0.12272
 Alpha virt. eigenvalues --    0.12383   0.12649   0.12872   0.13978   0.14079

  Beta  occ. eigenvalues --  -14.18577 -10.08337 -10.08304 -10.08069 -10.06271
  Beta  occ. eigenvalues --  -10.06003 -10.05358 -10.05336 -10.05305 -10.05087
  Beta  occ. eigenvalues --  -10.05005  -0.81601  -0.69900  -0.69376  -0.63901
  Beta  occ. eigenvalues --   -0.61311  -0.58324  -0.53735  -0.51905  -0.48030
  Beta  occ. eigenvalues --   -0.45604  -0.40773  -0.39480  -0.37845  -0.35871
  Beta  occ. eigenvalues --   -0.33845  -0.32037  -0.31574  -0.30643  -0.29657
  Beta  occ. eigenvalues --   -0.28967  -0.27822  -0.26514  -0.25849  -0.25129
  Beta  occ. eigenvalues --   -0.24941  -0.23098  -0.21997  -0.21570  -0.20159
  Beta  occ. eigenvalues --   -0.19206  -0.18969  -0.08791
  Beta virt. eigenvalues --    0.06967   0.07778   0.08360   0.08547   0.09857
  Beta virt. eigenvalues --    0.10024   0.10271   0.10628   0.10785   0.12398
  Beta virt. eigenvalues --    0.12744   0.12819   0.13100   0.13367   0.14386

 Mulliken charges and spin densities:
               1          2
     1  C    1.835344  -2.639951
     2  C   -1.991944   2.789423
     3  C    0.515694  -1.243243
     4  C    0.408322  -0.780096
     5  C   -0.825179   1.349638
     6  C    0.674976  -1.036440
     7  C   -0.141945  -0.274641
     8  N   -0.008902   0.159274
     9  C    0.473824  -1.357780
    10  C    0.080303  -0.290266
    11  C    0.822408  -1.454179
    12  H   -0.050769   0.186443
    13  H   -0.221164   0.338347
    14  H   -0.381390   0.528801
    15  H    0.174807   0.006281
    16  H   -0.063217   0.215521
    17  H   -0.148239   0.310899
    18  H    0.149577  -0.012119
    19  H   -0.559448   0.742963
    20  H   -0.460804   0.700601
    21  H   -0.462673   0.634889
    22  H   -0.113214   0.261093
    23  H   -0.154142   0.312858
    24  H   -0.177662   0.322549
    25  H   -0.079008   0.207763
    26  H    0.081037   0.091686
    27  H    0.007028   0.147778
    28  H   -0.100220   0.213157
    29  H   -0.276549   0.429407
    30  H   -0.006850   0.139342
 Sum of Mulliken charges =  -1.00000   1.00000

 Dipole moment (field-independent basis, Debye):
    X=              0.0482    Y=             -2.9002    Z=             -1.1662  Tot=              3.1262
 Quadrupole moment (field-independent basis, Debye-Ang):
   XX=           -129.0333   YY=           -117.4269   ZZ=           -108.0413
   XY=              2.3480   XZ=              1.0041   YZ=              0.4736

 Summary of Natural Population Analysis:

                                       Natural Population
                Natural  -----------------------------------------------
    Atom  No    Charge         Core      Valence    Rydberg      Total
 -----------------------------------------------------------------------
      C    1   -0.28094      0.99965     2.27498    0.00631     3.28094
      C    2   -0.12517      0.99960     2.11618    0.00940     3.12517
      C    3   -0.18702      0.99961     2.17830    0.00911     3.18702
      C    4   -0.19016      0.99961     2.18037    0.01019     3.19016
      C    5   -0.11183      0.99959     2.10023    0.01201     3.11183
      C    6   -0.19940      0.99962     2.19083    0.00896     3.19940
      C    7   -0.08732      0.99962     2.07615    0.01155     3.08732
      N    8   -0.28829      0.99973     2.77535    0.01322     3.78829
      C    9   -0.07385      0.99958     2.06338    0.01089     3.07385
      C   10   -0.07927      0.99961     2.06834    0.01132     3.07927
      C   11   -0.19817      0.99961     2.18983    0.00873     3.19817
      H   12    0.09480      0.00000     0.40412    0.00108     0.40520
      H   13    0.09725      0.00000     0.40169    0.00106     0.40275
      H   14    0.10078      0.00000     0.39812    0.00110     0.39922
      H   15    0.09431      0.00000     0.40357    0.00212     0.40569
      H   16    0.09759      0.00000     0.40105    0.00136     0.40241
      H   17    0.09702      0.00000     0.40166    0.00131     0.40298
      H   18    0.09187      0.00000     0.40630    0.00182     0.40813
      H   19    0.10200      0.00000     0.39648    0.00152     0.39800
      H   20    0.10217      0.00000     0.39575    0.00208     0.39783
      H   21    0.09867      0.00000     0.39979    0.00154     0.40133
      H   22    0.09783      0.00000     0.40052    0.00165     0.40217
      H   23    0.09250      0.00000     0.40634    0.00116     0.40750
      H   24    0.09675      0.00000     0.40215    0.00109     0.40325
      H   25    0.09312      0.00000     0.40566    0.00122     0.40688
      H   26    0.08826      0.00000     0.41021    0.00153     0.41174
      H   27    0.08788      0.00000     0.41093    0.00120     0.41212
      H   28    0.09330      0.00000     0.40551    0.00120     0.40670
      H   29    0.10035      0.00000     0.39843    0.00123     0.39965
      H   30    0.09496      0.00000     0.40335    0.00169     0.40504
 =======================================================================
   * Total *    0.00000     10.99582    31.86557    0.13862    43.00000

 Normal termination of Gaussian 16 at Tue Dec  8 19:44:43 2020.
