 Gaussian 16, Revision A.03,

 -----------------------------------------------------------
 # opt freq B3LYP/6-31G(d) empiricaldispersion=gd3bj scf=xqc
 -----------------------------------------------------------

 -------------------------------
 CID_106659418_JID_5621_neutraal
 -------------------------------
 Symbolic Z-matrix:
 Charge =  0 Multiplicity = 1

 SCF Done:  E(RB3LYP) =  -630.608355152     A.U. after   15 cycles
 SCF Done:  E(RB3LYP) =  -630.613816052     A.U. after   13 cycles
 SCF Done:  E(RB3LYP) =  -630.614510580     A.U. after   12 cycles
 SCF Done:  E(RB3LYP) =  -630.614677592     A.U. after   12 cycles
 SCF Done:  E(RB3LYP) =  -630.614834556     A.U. after   11 cycles
 SCF Done:  E(RB3LYP) =  -630.614904144     A.U. after   11 cycles
 SCF Done:  E(RB3LYP) =  -630.614931219     A.U. after   11 cycles
 SCF Done:  E(RB3LYP) =  -630.614941173     A.U. after   10 cycles
 SCF Done:  E(RB3LYP) =  -630.614947522     A.U. after   10 cycles
 SCF Done:  E(RB3LYP) =  -630.614949447     A.U. after    9 cycles
 SCF Done:  E(RB3LYP) =  -630.614949911     A.U. after    8 cycles
 SCF Done:  E(RB3LYP) =  -630.614950009     A.U. after    7 cycles
 Optimization completed.
    -- Stationary point found.
 Normal termination of Gaussian 16 at Thu Dec 10 16:31:21 2020.

 --------------------------------------------------------------------
 #N Geom=AllCheck Guess=TCheck SCRF=Check GenChk RB3LYP/6-31G(d) Freq
 --------------------------------------------------------------------

 Structure from the checkpoint file:  "JID_5621.chk"
 -------------------------------
 CID_106659418_JID_5621_neutraal
 -------------------------------
 Charge =  0 Multiplicity = 1

 SCF Done:  E(RB3LYP) =  -630.614950009     A.U. after    1 cycles

  Exact polarizability: 182.763   3.078 166.579 -18.206   4.231  81.144
 Approx polarizability: 276.374  11.747 294.649 -40.659   9.000 123.486

                      1                      2                      3
                      A                      A                      A
 Frequencies --     24.1337                39.7345                86.1536
 Red. masses --      3.6231                 2.8573                 3.1628
 Frc consts  --      0.0012                 0.0027                 0.0138
 IR Inten    --      0.5119                 0.1901                 2.5208

                      4                      5                      6
                      A                      A                      A
 Frequencies --    122.7796               146.7347               181.3241
 Red. masses --      3.8349                 2.8878                 3.8550
 Frc consts  --      0.0341                 0.0366                 0.0747
 IR Inten    --      1.7056                 4.3839                 0.2306

                      7                      8                      9
                      A                      A                      A
 Frequencies --    192.9354               238.8378               278.2777
 Red. masses --      2.1090                 2.7578                 1.5113
 Frc consts  --      0.0463                 0.0927                 0.0690
 IR Inten    --      1.2764                 0.7784                 0.8979

                     10                     11                     12
                      A                      A                      A
 Frequencies --    300.0879               360.7995               368.0489
 Red. masses --      3.2870                 2.3478                 1.2136
 Frc consts  --      0.1744                 0.1801                 0.0969
 IR Inten    --      1.1527                 1.7060                46.2577

                     13                     14                     15
                      A                      A                      A
 Frequencies --    383.1428               432.7466               456.1581
 Red. masses --      2.7275                 2.8575                 2.4736
 Frc consts  --      0.2359                 0.3153                 0.3033
 IR Inten    --     14.2297                22.6021                 0.7096

                     16                     17                     18
                      A                      A                      A
 Frequencies --    461.6049               483.4761               497.8603
 Red. masses --      5.0893                 4.6506                 6.6539
 Frc consts  --      0.6389                 0.6405                 0.9717
 IR Inten    --      2.1448                 1.5040                 0.8949

                     19                     20                     21
                      A                      A                      A
 Frequencies --    542.1300               608.9653               618.0384
 Red. masses --      4.8401                 2.8290                 3.1440
 Frc consts  --      0.8381                 0.6181                 0.7076
 IR Inten    --      0.5032                23.0789                28.7499

                     22                     23                     24
                      A                      A                      A
 Frequencies --    648.3871               719.2443               725.9246
 Red. masses --      3.2905                 2.9741                 2.5345
 Frc consts  --      0.8150                 0.9065                 0.7869
 IR Inten    --     54.3345                34.1917               178.7124

                     25                     26                     27
                      A                      A                      A
 Frequencies --    753.7945               777.7696               789.7974
 Red. masses --      1.5963                 2.1861                 1.8358
 Frc consts  --      0.5344                 0.7791                 0.6747
 IR Inten    --     52.6951                11.6072                 8.5069

                     28                     29                     30
                      A                      A                      A
 Frequencies --    803.2369               819.2937               827.2467
 Red. masses --      2.6829                 5.6414                 2.5214
 Frc consts  --      1.0199                 2.2311                 1.0166
 IR Inten    --     27.9036                 1.4466                 0.7208

                     31                     32                     33
                      A                      A                      A
 Frequencies --    884.0910               900.3364               951.8320
 Red. masses --      1.5379                 1.4519                 1.7949
 Frc consts  --      0.7082                 0.6934                 0.9581
 IR Inten    --      1.1680                 1.7640                 1.5511

                     34                     35                     36
                      A                      A                      A
 Frequencies --    962.5039               988.4219               998.3363
 Red. masses --      1.5053                 1.8589                 1.3033
 Frc consts  --      0.8216                 1.0700                 0.7653
 IR Inten    --      0.6144                 1.5616                 0.1204

                     37                     38                     39
                      A                      A                      A
 Frequencies --   1048.5193              1067.4048              1072.3962
 Red. masses --      2.9946                 2.2591                 2.5076
 Frc consts  --      1.9397                 1.5165                 1.6991
 IR Inten    --     21.0617                 0.7671                 3.0900

                     40                     41                     42
                      A                      A                      A
 Frequencies --   1096.8367              1120.9145              1141.0893
 Red. masses --      2.3894                 1.5928                 2.1169
 Frc consts  --      1.6937                 1.1791                 1.6240
 IR Inten    --      0.2250                 2.9821                 0.9190

                     43                     44                     45
                      A                      A                      A
 Frequencies --   1159.4310              1179.6030              1205.9146
 Red. masses --      1.7474                 2.6828                 1.5692
 Frc consts  --      1.3840                 2.1994                 1.3445
 IR Inten    --      1.9480                 0.6918                 0.5097

                     46                     47                     48
                      A                      A                      A
 Frequencies --   1212.2743              1240.0725              1278.1593
 Red. masses --      1.4550                 1.2372                 1.3751
 Frc consts  --      1.2598                 1.1210                 1.3236
 IR Inten    --      3.5601                 1.7132                 1.8001

                     49                     50                     51
                      A                      A                      A
 Frequencies --   1304.2652              1331.5526              1352.1833
 Red. masses --      1.6390                 1.3167                 1.8540
 Frc consts  --      1.6427                 1.3755                 1.9973
 IR Inten    --      0.4048                 0.7481                20.8235

                     52                     53                     54
                      A                      A                      A
 Frequencies --   1384.3518              1400.4772              1404.7309
 Red. masses --      2.2715                 2.0153                 2.1709
 Frc consts  --      2.5648                 2.3289                 2.5239
 IR Inten    --     19.8230                24.5919                10.9369

                     55                     56                     57
                      A                      A                      A
 Frequencies --   1413.1716              1441.7813              1443.2756
 Red. masses --      2.0163                 1.2719                 2.5669
 Frc consts  --      2.3724                 1.5578                 3.1503
 IR Inten    --      5.8178                 6.5287                12.2195

                     58                     59                     60
                      A                      A                      A
 Frequencies --   1469.4035              1477.8259              1504.9248
 Red. masses --      4.1402                 2.2874                 1.1138
 Frc consts  --      5.2668                 2.9434                 1.4862
 IR Inten    --    127.7827                16.0302                11.8903

                     61                     62                     63
                      A                      A                      A
 Frequencies --   1512.5376              1524.9150              1534.7507
 Red. masses --      1.1177                 1.0543                 1.0711
 Frc consts  --      1.5066                 1.4445                 1.4865
 IR Inten    --      2.8117                 1.0533                12.4682

                     64                     65                     66
                      A                      A                      A
 Frequencies --   1542.4592              1551.3237              1600.8752
 Red. masses --      1.0786                 2.5852                 5.6127
 Frc consts  --      1.5119                 3.6657                 8.4749
 IR Inten    --      5.2403                17.2869                15.5016

                     67                     68                     69
                      A                      A                      A
 Frequencies --   1630.3244              1674.0385              1676.9304
 Red. masses --      5.5398                 2.1178                 2.1148
 Frc consts  --      8.6755                 3.4967                 3.5040
 IR Inten    --      4.3072               101.5022                66.5426

                     70                     71                     72
                      A                      A                      A
 Frequencies --   3017.2602              3035.0427              3038.9675
 Red. masses --      1.0687                 1.0634                 1.0443
 Frc consts  --      5.7321                 5.7715                 5.6825
 IR Inten    --     14.6607                35.1839                34.6875

                     73                     74                     75
                      A                      A                      A
 Frequencies --   3045.4376              3063.3990              3092.0134
 Red. masses --      1.0703                 1.0902                 1.0956
 Frc consts  --      5.8485                 6.0276                 6.1712
 IR Inten    --     51.9404                17.4012                 6.1614

                     76                     77                     78
                      A                      A                      A
 Frequencies --   3106.0318              3110.6880              3117.3951
 Red. masses --      1.0944                 1.1003                 1.0982
 Frc consts  --      6.2207                 6.2732                 6.2878
 IR Inten    --     27.6710                49.9613                62.9339

                     79                     80                     81
                      A                      A                      A
 Frequencies --   3191.6641              3203.1109              3215.5250
 Red. masses --      1.0860                 1.0894                 1.0951
 Frc consts  --      6.5181                 6.5855                 6.6711
 IR Inten    --      1.2968                11.8937                22.9578

                     82                     83                     84
                      A                      A                      A
 Frequencies --   3226.8883              3540.5199              3645.6025
 Red. masses --      1.0937                 1.0475                 1.0978
 Frc consts  --      6.7098                 7.7365                 8.5962
 IR Inten    --      9.9245                22.8395                16.7242

 - Thermochemistry -
 -------------------
 Temperature   298.150 Kelvin.  Pressure   1.00000 Atm.
 Atom     1 has atomic number  6 and mass  12.00000

 Molecular mass:   201.12660 amu.
 Principal axes and moments of inertia in atomic units:
                           1         2         3
     Eigenvalues --  1911.835644261.752205562.95684
           X            0.99990  -0.01315   0.00536
           Y            0.01314   0.99991   0.00131
           Z           -0.00537  -0.00124   0.99998
 This molecule is an asymmetric top.
 Rotational symmetry number  1.
 Warning -- assumption of classical behavior for rotation
           may cause significant error
 Rotational temperatures (Kelvin)      0.04530     0.02032     0.01557
 Rotational constants (GHZ):           0.94398     0.42347     0.32442
 Zero-point vibrational energy     670043.0 (Joules/Mol)
                                  160.14413 (Kcal/Mol)
 Warning -- explicit consideration of  21 degrees of freedom as
           vibrations may cause significant error
 Vibrational temperatures:     34.72    57.17   123.96   176.65   211.12
          (Kelvin)            260.88   277.59   343.63   400.38   431.76
                              519.11   529.54   551.26   622.63   656.31
                              664.15   695.61   716.31   780.00   876.17
                              889.22   932.88  1034.83  1044.44  1084.54
                             1119.04  1136.34  1155.68  1178.78  1190.22
                             1272.01  1295.38  1369.47  1384.83  1422.12
                             1436.38  1508.59  1535.76  1542.94  1578.10
                             1612.75  1641.77  1668.16  1697.19  1735.04
                             1744.19  1784.19  1838.99  1876.55  1915.81
                             1945.49  1991.77  2014.97  2021.09  2033.24
                             2074.40  2076.55  2114.14  2126.26  2165.25
                             2176.20  2194.01  2208.16  2219.25  2232.01
                             2303.30  2345.67  2408.57  2412.73  4341.16
                             4366.75  4372.40  4381.71  4407.55  4448.72
                             4468.89  4475.59  4485.24  4592.09  4608.56
                             4626.42  4642.77  5094.02  5245.21

 Zero-point correction=                           0.255206 (Hartree/Particle)
 Thermal correction to Energy=                    0.268662
 Thermal correction to Enthalpy=                  0.269606
 Thermal correction to Gibbs Free Energy=         0.214230
 Sum of electronic and zero-point Energies=           -630.359744
 Sum of electronic and thermal Energies=              -630.346288
 Sum of electronic and thermal Enthalpies=            -630.345344
 Sum of electronic and thermal Free Energies=         -630.400720

                     E (Thermal)             CV                S
                      KCal/Mol        Cal/Mol-Kelvin    Cal/Mol-Kelvin
 Total                  168.588             52.778            116.550
 Electronic               0.000              0.000              0.000
 Translational            0.889              2.981             41.801
 Rotational               0.889              2.981             32.183
 Vibrational            166.811             46.817             42.566
 Vibration     1          0.593              1.985              6.261
 Vibration     2          0.594              1.981              5.272
 Vibration     3          0.601              1.959              3.746
 Vibration     4          0.610              1.930              3.056
 Vibration     5          0.617              1.906              2.714
 Vibration     6          0.630              1.865              2.315
 Vibration     7          0.635              1.850              2.199
 Vibration     8          0.657              1.781              1.812
 Vibration     9          0.679              1.714              1.544
 Vibration    10          0.693              1.674              1.416
 Vibration    11          0.735              1.553              1.119
 Vibration    12          0.741              1.538              1.088
 Vibration    13          0.752              1.506              1.027
 Vibration    14          0.794              1.399              0.850
 Vibration    15          0.814              1.347              0.777
 Vibration    16          0.819              1.335              0.761
 Vibration    17          0.840              1.287              0.701
 Vibration    18          0.853              1.255              0.663
 Vibration    19          0.897              1.157              0.561
 Vibration    20          0.968              1.013              0.434
 Vibration    21          0.978              0.994              0.420

 Optimization completed.
    -- Stationary point found.
 Normal termination of Gaussian 16 at Thu Dec 10 16:41:40 2020.

 ----------------------------------------------------------------------
 # B3LYP/6-311++G(d,p) empiricaldispersion=gd3bj scf=xqc pop=npa geom=c
 heck
 ----------------------------------------------------------------------

 ---------------------------------------
 CID_106659418_JID_5621_Energie_neutraal
 ---------------------------------------
 Structure from the checkpoint file:  "JID_5621.chk"
 Charge =  0 Multiplicity = 1

 SCF Done:  E(RB3LYP) =  -630.783281787     A.U. after   15 cycles
 Normal termination of Gaussian 16 at Thu Dec 10 16:46:43 2020.

 ----------------------------------------------------------------------
 # B3LYP/6-311++G(d,p) empiricaldispersion=gd3bj scf=xqc pop=npa geom=c
 heck
 ----------------------------------------------------------------------

 -------------------------------------
 CID_106659418_JID_5621_Energie_kation
 -------------------------------------
 Structure from the checkpoint file:  "JID_5621.chk"
 Charge =  1 Multiplicity = 2

 SCF Done:  E(UB3LYP) =  -630.489521211     A.U. after   28 cycles
 Normal termination of Gaussian 16 at Thu Dec 10 17:00:06 2020.
 Gaussian 16:  ES64L-G16RevA.03 25-Dec-2016

 ----------------------------------------------------------------------
 # B3LYP/6-311++G(d,p) empiricaldispersion=gd3bj scf=xqc pop=npa geom=c
 heck
 ----------------------------------------------------------------------

 ------------------------------------
 CID_106659418_JID_5621_Energie_anion
 ------------------------------------
 Structure from the checkpoint file:  "JID_5621.chk"
 Charge = -1 Multiplicity = 2

                         Standard orientation:
 ---------------------------------------------------------------------
 Center     Atomic      Atomic             Coordinates (Angstroms)
 Number     Number       Type             X           Y           Z
 ---------------------------------------------------------------------
      1          6           0        3.792725   -0.667257    1.516881
      2          6           0        3.633883    0.448126    0.479170
      3          6           0        3.162210   -0.036045   -0.900233
      4          6           0        1.825539   -0.789440   -0.901851
      5          6           0        0.611896    0.038422   -0.533650
      6          7           0        0.761906    1.342583   -0.486681
      7          7           0       -0.283892    2.167227   -0.219357
      8          6           0       -1.471805    1.664380    0.053399
      9          6           0       -1.740376    0.252562    0.073874
     10          6           0       -2.992821   -0.307378    0.407249
     11          6           0       -3.172949   -1.675512    0.364699
     12          6           0       -2.105431   -2.519000   -0.006172
     13          6           0       -0.866908   -1.989728   -0.309978
     14          6           0       -0.654644   -0.591586   -0.266893
     15          7           0       -2.466268    2.576270    0.375797
     16          1           0        2.830219   -1.125189    1.773133
     17          1           0        4.223559   -0.279879    2.446982
     18          1           0        4.453023   -1.464285    1.150671
     19          1           0        2.933457    1.203740    0.848194
     20          1           0        4.598781    0.955751    0.348227
     21          1           0        3.084500    0.825302   -1.570811
     22          1           0        3.920660   -0.709704   -1.322750
     23          1           0        1.657108   -1.218051   -1.901250
     24          1           0        1.889278   -1.650750   -0.225326
     25          1           0       -3.807199    0.337371    0.721719
     26          1           0       -4.135900   -2.105587    0.623705
     27          1           0       -2.257946   -3.593815   -0.041807
     28          1           0       -0.050042   -2.648290   -0.582550
     29          1           0       -3.384088    2.378597   -0.002871
     30          1           0       -2.165545    3.526957    0.187456
 ---------------------------------------------------------------------

 SCF Done:  E(UB3LYP) =  -630.791370937     A.U. after   30 cycles

 The electronic state is 2-A.
 Alpha  occ. eigenvalues --  -14.18300 -14.16766 -14.16604 -10.07743 -10.05470
 Alpha  occ. eigenvalues --  -10.04797 -10.04508 -10.04422 -10.04140 -10.03919
 Alpha  occ. eigenvalues --  -10.03837 -10.02762 -10.02628 -10.01590 -10.01336
 Alpha  occ. eigenvalues --   -0.84877  -0.77785  -0.71323  -0.68934  -0.65548
 Alpha  occ. eigenvalues --   -0.62146  -0.60454  -0.60041  -0.53875  -0.49750
 Alpha  occ. eigenvalues --   -0.49041  -0.46164  -0.43526  -0.40801  -0.38094
 Alpha  occ. eigenvalues --   -0.35477  -0.35055  -0.34591  -0.34084  -0.31370
 Alpha  occ. eigenvalues --   -0.30025  -0.29107  -0.29051  -0.28028  -0.27055
 Alpha  occ. eigenvalues --   -0.26530  -0.25171  -0.22580  -0.21997  -0.21793
 Alpha  occ. eigenvalues --   -0.21369  -0.20903  -0.20098  -0.18791  -0.15112
 Alpha  occ. eigenvalues --   -0.12632  -0.12006  -0.08063  -0.07791   0.04911
 Alpha virt. eigenvalues --    0.07779   0.08597   0.09337   0.09652   0.10210
 Alpha virt. eigenvalues --    0.10937   0.11008   0.11775   0.12529   0.13104
 Alpha virt. eigenvalues --    0.13329   0.13731   0.14722   0.14868   0.15202

  Beta  occ. eigenvalues --  -14.18267 -14.16658 -14.16620 -10.07449 -10.05470
  Beta  occ. eigenvalues --  -10.04797 -10.04506 -10.04189 -10.04153 -10.03990
  Beta  occ. eigenvalues --  -10.03901 -10.02688 -10.02533 -10.01247 -10.00982
  Beta  occ. eigenvalues --   -0.84625  -0.77583  -0.70988  -0.68843  -0.65376
  Beta  occ. eigenvalues --   -0.61844  -0.60000  -0.59879  -0.53786  -0.49276
  Beta  occ. eigenvalues --   -0.48825  -0.45902  -0.43315  -0.40659  -0.37793
  Beta  occ. eigenvalues --   -0.35317  -0.34906  -0.34418  -0.34041  -0.31247
  Beta  occ. eigenvalues --   -0.29883  -0.28974  -0.28639  -0.27859  -0.26938
  Beta  occ. eigenvalues --   -0.26146  -0.25065  -0.22401  -0.21643  -0.21610
  Beta  occ. eigenvalues --   -0.20883  -0.20610  -0.19965  -0.18178  -0.15033
  Beta  occ. eigenvalues --   -0.11675  -0.10818  -0.07711  -0.06712
  Beta virt. eigenvalues --    0.07730   0.08598   0.09317   0.09456   0.10152
  Beta virt. eigenvalues --    0.10619   0.10932   0.11104   0.11783   0.12509
  Beta virt. eigenvalues --    0.13071   0.13396   0.13726   0.14726   0.14848

 Mulliken charges and spin densities:
               1          2
     1  C   -0.679295  -0.000092
     2  C   -0.081483   0.002767
     3  C   -0.293731  -0.033057
     4  C   -0.154988  -0.010503
     5  C   -0.522273   0.123346
     6  N   -0.173056   0.044861
     7  N    0.089015  -0.009803
     8  C   -0.536589   0.020578
     9  C    1.047161   0.092785
    10  C   -0.777950   0.189896
    11  C   -0.425660   0.044910
    12  C   -0.538783   0.054658
    13  C   -0.591529   0.252932
    14  C    1.130297   0.041980
    15  N   -0.312864  -0.000048
    16  H    0.150929   0.000372
    17  H    0.109094   0.001446
    18  H    0.115588  -0.000803
    19  H    0.173206   0.000950
    20  H    0.110466  -0.001274
    21  H    0.160135   0.003834
    22  H    0.105515   0.012283
    23  H    0.077651   0.077147
    24  H    0.110380   0.008448
    25  H    0.081258  -0.034245
    26  H    0.086720   0.008973
    27  H    0.105238  -0.005108
    28  H    0.080221  -0.018124
    29  H    0.099309   0.126830
    30  H    0.256017   0.004061
 Sum of Mulliken charges =  -1.00000   1.00000

 Dipole moment (field-independent basis, Debye):
    X=              2.3862    Y=             -1.7237    Z=              0.2000  Tot=              2.9504
 Quadrupole moment (field-independent basis, Debye-Ang):
   XX=           -119.1186   YY=           -113.9476   ZZ=           -104.1431
   XY=             -6.2536   XZ=              1.8672   YZ=              0.3603

 Summary of Natural Population Analysis:

                                       Natural Population
                Natural  -----------------------------------------------
    Atom  No    Charge         Core      Valence    Rydberg      Total
 -----------------------------------------------------------------------
      C    1   -0.28797      0.99967     2.28414    0.00416     3.28797
      C    2   -0.19335      0.99964     2.18701    0.00671     3.19335
      C    3   -0.18383      0.99964     2.17664    0.00755     3.18383
      C    4   -0.20625      0.99961     2.19740    0.00924     3.20625
      C    5    0.13061      0.99953     1.85362    0.01624     2.86939
      N    6   -0.14041      0.99965     2.62690    0.01386     3.64041
      N    7   -0.18870      0.99966     2.67297    0.01607     3.68870
      C    8    0.23794      0.99953     1.74609    0.01644     2.76206
      C    9   -0.05708      0.99946     2.04765    0.00996     3.05708
      C   10   -0.03933      0.99955     2.03087    0.00891     3.03933
      C   11   -0.08740      0.99957     2.07875    0.00908     3.08740
      C   12   -0.08878      0.99958     2.08023    0.00897     3.08878
      C   13   -0.03803      0.99954     2.03079    0.00770     3.03803
      C   14   -0.04176      0.99947     2.03211    0.01017     3.04176
      N   15   -0.40344      0.99971     2.89333    0.01039     3.90344
      H   16    0.10029      0.00000     0.39894    0.00077     0.39971
      H   17    0.09288      0.00000     0.40625    0.00086     0.40712
      H   18    0.08852      0.00000     0.41047    0.00101     0.41148
      H   19    0.11104      0.00000     0.38773    0.00123     0.38896
      H   20    0.08483      0.00000     0.41398    0.00120     0.41517
      H   21    0.10593      0.00000     0.39289    0.00117     0.39407
      H   22    0.08427      0.00000     0.41466    0.00107     0.41573
      H   23    0.10077      0.00000     0.39765    0.00158     0.39923
      H   24    0.09735      0.00000     0.40138    0.00127     0.40265
      H   25    0.08915      0.00000     0.40926    0.00160     0.41085
      H   26    0.08810      0.00000     0.41093    0.00097     0.41190
      H   27    0.08779      0.00000     0.41121    0.00099     0.41221
      H   28    0.08990      0.00000     0.40886    0.00124     0.41010
      H   29    0.18297      0.00000     0.31458    0.00244     0.31703
      H   30    0.18399      0.00000     0.31338    0.00263     0.31601
 =======================================================================
   * Total *    0.00000     14.99382    38.83069    0.17549    54.00000

 Normal termination of Gaussian 16 at Thu Dec 10 17:18:08 2020.
