 Gaussian 16, Revision A.03,

 -----------------------------------------------------------
 # opt freq B3LYP/6-31G(d) empiricaldispersion=gd3bj scf=xqc
 -----------------------------------------------------------

 ------------------------------
 CID_68628362_JID_3860_neutraal
 ------------------------------
 Symbolic Z-matrix:
 Charge =  0 Multiplicity = 1

 SCF Done:  E(RB3LYP) =  -544.556655640     A.U. after   14 cycles
 SCF Done:  E(RB3LYP) =  -544.560030847     A.U. after   11 cycles
 SCF Done:  E(RB3LYP) =  -544.560199855     A.U. after   10 cycles
 SCF Done:  E(RB3LYP) =  -544.560212114     A.U. after    8 cycles
 SCF Done:  E(RB3LYP) =  -544.560213278     A.U. after    7 cycles
 SCF Done:  E(RB3LYP) =  -544.560213422     A.U. after    7 cycles
 Optimization completed.
    -- Stationary point found.
 Normal termination of Gaussian 16 at Sun Dec 13 12:17:44 2020.

 --------------------------------------------------------------------
 #N Geom=AllCheck Guess=TCheck SCRF=Check GenChk RB3LYP/6-31G(d) Freq
 --------------------------------------------------------------------

 Structure from the checkpoint file:  "JID_3860.chk"
 ------------------------------
 CID_68628362_JID_3860_neutraal
 ------------------------------
 Charge =  0 Multiplicity = 1

 SCF Done:  E(RB3LYP) =  -544.560213422     A.U. after    1 cycles

  Exact polarizability: 161.911   1.638 120.354  -0.470  -6.137 102.107
 Approx polarizability: 199.531   4.955 182.905   4.835 -14.542 156.371

                      1                      2                      3
                      A                      A                      A
 Frequencies --     30.4063                41.3482                79.9408
 Red. masses --      4.1422                 3.9218                 3.2634
 Frc consts  --      0.0023                 0.0040                 0.0123
 IR Inten    --      0.7063                 0.2267                 0.5059

                      4                      5                      6
                      A                      A                      A
 Frequencies --     96.7461               127.1939               172.4606
 Red. masses --      2.4602                 2.8229                 1.1465
 Frc consts  --      0.0136                 0.0269                 0.0201
 IR Inten    --      0.9627                 2.1357                 0.6384

                      7                      8                      9
                      A                      A                      A
 Frequencies --    210.5848               215.4027               226.4486
 Red. masses --      2.5892                 1.8609                 2.1840
 Frc consts  --      0.0676                 0.0509                 0.0660
 IR Inten    --      0.1706                 1.7005                 5.2815

                     10                     11                     12
                      A                      A                      A
 Frequencies --    257.0501               263.2625               283.2943
 Red. masses --      2.2701                 1.3881                 1.8505
 Frc consts  --      0.0884                 0.0567                 0.0875
 IR Inten    --      0.1625                 1.0540                 0.3220

                     13                     14                     15
                      A                      A                      A
 Frequencies --    286.0054               295.2399               305.0255
 Red. masses --      1.7470                 1.3600                 3.1939
 Frc consts  --      0.0842                 0.0698                 0.1751
 IR Inten    --      0.7551                 0.0751                 0.9310

                     16                     17                     18
                      A                      A                      A
 Frequencies --    351.3245               373.4082               445.2970
 Red. masses --      2.1631                 1.2232                 2.6473
 Frc consts  --      0.1573                 0.1005                 0.3093
 IR Inten    --      9.1701                96.3513                18.6443

                     19                     20                     21
                      A                      A                      A
 Frequencies --    469.5641               494.9729               534.8308
 Red. masses --      2.1731                 3.0052                 2.8096
 Frc consts  --      0.2823                 0.4338                 0.4735
 IR Inten    --      7.2655                 7.5437                 0.9204

                     22                     23                     24
                      A                      A                      A
 Frequencies --    574.6628               590.0043               665.0199
 Red. masses --      2.7814                 3.0799                 3.9006
 Frc consts  --      0.5412                 0.6317                 1.0164
 IR Inten    --      0.4658                 3.0042                 1.5441

                     25                     26                     27
                      A                      A                      A
 Frequencies --    708.2860               808.4865               824.7444
 Red. masses --      3.1032                 2.2614                 1.2243
 Frc consts  --      0.9172                 0.8709                 0.4907
 IR Inten    --      1.2031                 0.8089                12.6512

                     28                     29                     30
                      A                      A                      A
 Frequencies --    852.1339               884.7303               934.9757
 Red. masses --      1.8013                 1.6850                 1.9866
 Frc consts  --      0.7706                 0.7771                 1.0232
 IR Inten    --      2.2238                 2.7290                 4.8503

                     31                     32                     33
                      A                      A                      A
 Frequencies --    947.9061               962.5347               971.7113
 Red. masses --      1.6064                 1.5557                 1.7447
 Frc consts  --      0.8504                 0.8492                 0.9706
 IR Inten    --      9.1354                 2.5570                 1.8359

                     34                     35                     36
                      A                      A                      A
 Frequencies --   1007.5548              1018.8076              1026.0916
 Red. masses --      1.4458                 1.4475                 1.6470
 Frc consts  --      0.8647                 0.8852                 1.0217
 IR Inten    --     21.5573                37.0669                 4.2794

                     37                     38                     39
                      A                      A                      A
 Frequencies --   1042.4234              1045.8318              1052.6905
 Red. masses --      1.5424                 4.1115                 1.5396
 Frc consts  --      0.9875                 2.6496                 1.0052
 IR Inten    --      7.8624                63.0256                 4.3848

                     40                     41                     42
                      A                      A                      A
 Frequencies --   1080.9104              1093.6488              1113.2456
 Red. masses --      1.5635                 2.9603                 2.8819
 Frc consts  --      1.0763                 2.0861                 2.1043
 IR Inten    --      1.9360                18.2564                 6.9136

                     43                     44                     45
                      A                      A                      A
 Frequencies --   1137.4969              1153.1487              1164.1314
 Red. masses --      1.9240                 1.7692                 2.2936
 Frc consts  --      1.4668                 1.3861                 1.8313
 IR Inten    --     14.5699                 3.3725                 4.4649

                     46                     47                     48
                      A                      A                      A
 Frequencies --   1185.5230              1222.7281              1252.1404
 Red. masses --      1.3116                 1.3998                 2.2788
 Frc consts  --      1.0861                 1.2330                 2.1050
 IR Inten    --      6.6096                 3.0385                 3.0819

                     49                     50                     51
                      A                      A                      A
 Frequencies --   1259.0019              1269.1344              1304.9430
 Red. masses --      2.0372                 1.5410                 1.3629
 Frc consts  --      1.9025                 1.4624                 1.3674
 IR Inten    --      5.8159                 2.0346                 1.7558

                     52                     53                     54
                      A                      A                      A
 Frequencies --   1328.5683              1339.5623              1343.4478
 Red. masses --      1.4416                 1.3182                 2.0712
 Frc consts  --      1.4992                 1.3936                 2.2025
 IR Inten    --      1.9895                 0.6485                 1.8414

                     55                     56                     57
                      A                      A                      A
 Frequencies --   1348.2002              1381.0202              1392.5061
 Red. masses --      1.2755                 1.3463                 1.3516
 Frc consts  --      1.3660                 1.5128                 1.5441
 IR Inten    --      1.4621                 5.5123                 3.8298

                     58                     59                     60
                      A                      A                      A
 Frequencies --   1401.4116              1425.2893              1438.3975
 Red. masses --      1.4403                 1.2409                 1.2739
 Frc consts  --      1.6666                 1.4852                 1.5529
 IR Inten    --      2.6193                 8.6903                88.1315

                     61                     62                     63
                      A                      A                      A
 Frequencies --   1441.2085              1448.8762              1506.4946
 Red. masses --      1.2956                 1.2214                 1.0657
 Frc consts  --      1.5855                 1.5107                 1.4250
 IR Inten    --      3.0381                 1.9071                 3.5850

                     64                     65                     66
                      A                      A                      A
 Frequencies --   1509.9463              1516.2722              1517.8603
 Red. masses --      1.0703                 1.0497                 1.0590
 Frc consts  --      1.4377                 1.4219                 1.4375
 IR Inten    --      5.4176                 0.3384                 6.6240

                     67                     68                     69
                      A                      A                      A
 Frequencies --   1522.3328              1530.9482              1532.4027
 Red. masses --      1.0928                 1.0558                 1.0937
 Frc consts  --      1.4922                 1.4579                 1.5131
 IR Inten    --      1.1400                 0.6005                 1.4585

                     70                     71                     72
                      A                      A                      A
 Frequencies --   1536.5463              1539.8488              1735.9502
 Red. masses --      1.0534                 1.0567                 7.1254
 Frc consts  --      1.4653                 1.4763                12.6512
 IR Inten    --      9.0002                 4.5178                 1.0205

                     73                     74                     75
                      A                      A                      A
 Frequencies --   1753.0509              2994.5427              2996.6708
 Red. masses --      6.0162                 1.0723                 1.0704
 Frc consts  --     10.8934                 5.6654                 5.6634
 IR Inten    --      7.1867                30.7636                64.7941

                     76                     77                     78
                      A                      A                      A
 Frequencies --   3024.7674              3033.5009              3033.9434
 Red. masses --      1.0718                 1.0576                 1.0488
 Frc consts  --      5.7773                 5.7339                 5.6880
 IR Inten    --      5.0172                24.4201                25.5558

                     79                     80                     81
                      A                      A                      A
 Frequencies --   3040.7667              3048.7360              3066.5000
 Red. masses --      1.0360                 1.0357                 1.0911
 Frc consts  --      5.6440                 5.6718                 6.0450
 IR Inten    --     28.5194                31.9967                35.1186

                     82                     83                     84
                      A                      A                      A
 Frequencies --   3074.1695              3079.7056              3080.9135
 Red. masses --      1.1005                 1.0991                 1.0926
 Frc consts  --      6.1274                 6.1417                 6.1105
 IR Inten    --     25.2048                27.5319                40.3723

                     85                     86                     87
                      A                      A                      A
 Frequencies --   3105.0066              3111.6237              3112.6787
 Red. masses --      1.1018                 1.1019                 1.1020
 Frc consts  --      6.2586                 6.2859                 6.2909
 IR Inten    --     12.2212                44.7321                50.2983

                     88                     89                     90
                      A                      A                      A
 Frequencies --   3119.3014              3122.0741              3135.1503
 Red. masses --      1.1023                 1.1003                 1.0890
 Frc consts  --      6.3192                 6.3191                 6.3067
 IR Inten    --     18.6632                31.1267                17.9475

                     91                     92                     93
                      A                      A                      A
 Frequencies --   3150.8957              3189.2994              3732.4211
 Red. masses --      1.0884                 1.0933                 1.0661
 Frc consts  --      6.3668                 6.5521                 8.7503
 IR Inten    --     26.2343                30.2466                 6.4728

 - Thermochemistry -
 -------------------
 Temperature   298.150 Kelvin.  Pressure   1.00000 Atm.
 Atom     1 has atomic number  6 and mass  12.00000

 Molecular mass:   180.15142 amu.
 Principal axes and moments of inertia in atomic units:
                           1         2         3
     Eigenvalues --  1092.340085598.307555821.75923
           X            0.99995   0.00535  -0.00789
           Y           -0.00559   0.99950  -0.03112
           Z            0.00772   0.03116   0.99948
 This molecule is an asymmetric top.
 Rotational symmetry number  1.
 Warning -- assumption of classical behavior for rotation
           may cause significant error
 Rotational temperatures (Kelvin)      0.07929     0.01547     0.01488
 Rotational constants (GHZ):           1.65218     0.32237     0.31000
 Zero-point vibrational energy     780307.7 (Joules/Mol)
                                  186.49802 (Kcal/Mol)
 Warning -- explicit consideration of  23 degrees of freedom as
           vibrations may cause significant error
 Vibrational temperatures:     43.75    59.49   115.02   139.20   183.00
          (Kelvin)            248.13   302.98   309.92   325.81   369.84
                              378.78   407.60   411.50   424.78   438.86
                              505.48   537.25   640.68   675.60   712.16
                              769.50   826.81   848.88   956.82  1019.07
                             1163.23  1186.62  1226.03  1272.93  1345.22
                             1363.83  1384.87  1398.08  1449.65  1465.84
                             1476.32  1499.81  1504.72  1514.59  1555.19
                             1573.52  1601.71  1636.60  1659.12  1674.93
                             1705.70  1759.23  1801.55  1811.42  1826.00
                             1877.52  1911.51  1927.33  1932.92  1939.76
                             1986.98  2003.51  2016.32  2050.67  2069.53
                             2073.58  2084.61  2167.51  2172.48  2181.58
                             2183.86  2190.30  2202.69  2204.79  2210.75
                             2215.50  2497.65  2522.25  4308.48  4311.54
                             4351.97  4364.53  4365.17  4374.99  4386.45
                             4412.01  4423.04  4431.01  4432.75  4467.41
                             4476.93  4478.45  4487.98  4491.97  4510.78
                             4533.44  4588.69  5370.12

 Zero-point correction=                           0.297204 (Hartree/Particle)
 Thermal correction to Energy=                    0.312043
 Thermal correction to Enthalpy=                  0.312987
 Thermal correction to Gibbs Free Energy=         0.255272
 Sum of electronic and zero-point Energies=           -544.263010
 Sum of electronic and thermal Energies=              -544.248171
 Sum of electronic and thermal Enthalpies=            -544.247226
 Sum of electronic and thermal Free Energies=         -544.304941

                     E (Thermal)             CV                S
                      KCal/Mol        Cal/Mol-Kelvin    Cal/Mol-Kelvin
 Total                  195.810             56.047            121.471
 Electronic               0.000              0.000              0.000
 Translational            0.889              2.981             41.473
 Rotational               0.889              2.981             31.943
 Vibrational            194.032             50.086             48.055
 Vibration     1          0.594              1.984              5.803
 Vibration     2          0.594              1.981              5.193
 Vibration     3          0.600              1.963              3.892
 Vibration     4          0.603              1.951              3.519
 Vibration     5          0.611              1.926              2.988
 Vibration     6          0.626              1.876              2.408
 Vibration     7          0.643              1.825              2.039
 Vibration     8          0.645              1.818              1.997
 Vibration     9          0.650              1.801              1.907
 Vibration    10          0.667              1.751              1.682
 Vibration    11          0.670              1.740              1.640
 Vibration    12          0.682              1.705              1.514
 Vibration    13          0.684              1.700              1.497
 Vibration    14          0.689              1.683              1.444
 Vibration    15          0.696              1.664              1.389
 Vibration    16          0.728              1.573              1.160
 Vibration    17          0.745              1.527              1.066
 Vibration    18          0.805              1.371              0.810
 Vibration    19          0.827              1.318              0.739
 Vibration    20          0.851              1.261              0.671
 Vibration    21          0.890              1.173              0.577
 Vibration    22          0.931              1.086              0.495
 Vibration    23          0.947              1.053              0.467

                           ! Non-Optimized Parameters !
 Normal termination of Gaussian 16 at Sun Dec 13 12:25:50 2020.

 ----------------------------------------------------------------------
 # B3LYP/6-311++G(d,p) empiricaldispersion=gd3bj scf=xqc pop=npa geom=c
 heck
 ----------------------------------------------------------------------

 --------------------------------------
 CID_68628362_JID_3860_Energie_neutraal
 --------------------------------------
 Structure from the checkpoint file:  "JID_3860.chk"
 Charge =  0 Multiplicity = 1

 SCF Done:  E(RB3LYP) =  -544.722666487     A.U. after   14 cycles
 Normal termination of Gaussian 16 at Sun Dec 13 12:29:25 2020.

 ----------------------------------------------------------------------
 # B3LYP/6-311++G(d,p) empiricaldispersion=gd3bj scf=xqc pop=npa geom=c
 heck
 ----------------------------------------------------------------------

 ------------------------------------
 CID_68628362_JID_3860_Energie_kation
 ------------------------------------
 Structure from the checkpoint file:  "JID_3860.chk"
 Charge =  1 Multiplicity = 2

 SCF Done:  E(UB3LYP) =  -544.417525168     A.U. after   24 cycles
 Normal termination of Gaussian 16 at Sun Dec 13 12:37:10 2020.
 Gaussian 16:  ES64L-G16RevA.03 25-Dec-2016

 ----------------------------------------------------------------------
 # B3LYP/6-311++G(d,p) empiricaldispersion=gd3bj scf=xqc pop=npa geom=c
 heck
 ----------------------------------------------------------------------

 -----------------------------------
 CID_68628362_JID_3860_Energie_anion
 -----------------------------------
 Structure from the checkpoint file:  "JID_3860.chk"
 Charge = -1 Multiplicity = 2

                         Standard orientation:
 ---------------------------------------------------------------------
 Center     Atomic      Atomic             Coordinates (Angstroms)
 Number     Number       Type             X           Y           Z
 ---------------------------------------------------------------------
      1          6           0       -4.069178    0.538892    0.763703
      2          6           0       -2.660420    0.656655    0.268497
      3          6           0       -2.042458    1.775347   -0.125330
      4          6           0       -0.633809    1.520019   -0.597169
      5          6           0       -0.350245    0.103290   -0.045184
      6          6           0       -1.757788   -0.566523    0.085657
      7          6           0       -2.181992   -1.312147   -1.196692
      8          6           0       -1.804104   -1.534159    1.275975
      9          6           0        0.706884   -0.696941   -0.821308
     10          6           0        2.059020   -0.043738   -0.779152
     11          6           0        3.142248   -0.549595   -0.183449
     12          6           0        4.470462    0.145413   -0.116168
     13          8           0        4.888594    0.373789    1.231224
     14          1           0       -4.655933   -0.155678    0.147680
     15          1           0       -4.576607    1.508573    0.753287
     16          1           0       -4.102511    0.150318    1.789898
     17          1           0       -2.502585    2.760288   -0.140972
     18          1           0        0.088454    2.260898   -0.233053
     19          1           0       -0.572722    1.543758   -1.697782
     20          1           0        0.023106    0.231936    0.979937
     21          1           0       -1.564277   -2.201581   -1.364894
     22          1           0       -3.223032   -1.645694   -1.120774
     23          1           0       -2.103256   -0.666858   -2.078208
     24          1           0       -1.589261   -1.013492    2.216171
     25          1           0       -2.786620   -2.011270    1.368543
     26          1           0       -1.062174   -2.332684    1.155031
     27          1           0        0.779398   -1.712102   -0.410492
     28          1           0        0.385661   -0.798601   -1.867137
     29          1           0        2.138283    0.930216   -1.266259
     30          1           0        3.086302   -1.515501    0.320461
     31          1           0        5.260966   -0.475206   -0.553781
     32          1           0        4.433266    1.085100   -0.691068
     33          1           0        4.163072    0.848179    1.667344
 ---------------------------------------------------------------------

 SCF Done:  E(UB3LYP) =  -544.707797348     A.U. after   33 cycles
 SCF Done:  E(UB3LYP) =  -544.707797348     a.u. after    1 cycles

 The electronic state is 2-A.
 Alpha  occ. eigenvalues --  -19.03219 -10.12949 -10.08505 -10.08503 -10.07838
 Alpha  occ. eigenvalues --  -10.07707 -10.07481 -10.07070 -10.06806 -10.06528
 Alpha  occ. eigenvalues --  -10.06059 -10.05976 -10.05948  -0.93158  -0.76492
 Alpha  occ. eigenvalues --   -0.71333  -0.66512  -0.66333  -0.62476  -0.58951
 Alpha  occ. eigenvalues --   -0.57372  -0.54233  -0.52659  -0.47256  -0.44662
 Alpha  occ. eigenvalues --   -0.42019  -0.40595  -0.38164  -0.37531  -0.35695
 Alpha  occ. eigenvalues --   -0.34854  -0.34088  -0.33155  -0.32040  -0.31966
 Alpha  occ. eigenvalues --   -0.30455  -0.29962  -0.29661  -0.27973  -0.27256
 Alpha  occ. eigenvalues --   -0.26297  -0.25379  -0.24933  -0.23797  -0.22712
 Alpha  occ. eigenvalues --   -0.22174  -0.20999  -0.19544  -0.16432  -0.13707
 Alpha  occ. eigenvalues --    0.04377
 Alpha virt. eigenvalues --    0.06105   0.07017   0.07157   0.08060   0.08370
 Alpha virt. eigenvalues --    0.08651   0.09080   0.09640   0.10043   0.10319
 Alpha virt. eigenvalues --    0.10996   0.11502   0.11662   0.12240   0.12899

  Beta  occ. eigenvalues --  -19.03193 -10.12935 -10.08500 -10.08487 -10.07838
  Beta  occ. eigenvalues --  -10.07696 -10.07471 -10.07070 -10.06791 -10.06493
  Beta  occ. eigenvalues --  -10.06031 -10.05965 -10.05923  -0.93101  -0.76475
  Beta  occ. eigenvalues --   -0.71307  -0.66486  -0.66306  -0.62436  -0.58899
  Beta  occ. eigenvalues --   -0.57323  -0.54181  -0.52614  -0.47214  -0.44620
  Beta  occ. eigenvalues --   -0.41969  -0.40550  -0.38125  -0.37491  -0.35661
  Beta  occ. eigenvalues --   -0.34818  -0.34053  -0.33126  -0.32009  -0.31935
  Beta  occ. eigenvalues --   -0.30425  -0.29931  -0.29627  -0.27943  -0.27219
  Beta  occ. eigenvalues --   -0.26262  -0.25340  -0.24904  -0.23768  -0.22684
  Beta  occ. eigenvalues --   -0.22142  -0.20973  -0.19514  -0.16394  -0.13692
  Beta virt. eigenvalues --    0.06459   0.06936   0.07528   0.07638   0.08442
  Beta virt. eigenvalues --    0.08686   0.09055   0.09470   0.09978   0.10381
  Beta virt. eigenvalues --    0.10659   0.11354   0.11753   0.11888   0.12579

 Mulliken charges and spin densities:
               1          2
     1  C    2.628410  -2.979553
     2  C   -1.598174   1.834092
     3  C   -0.471650   0.091785
     4  C    0.784968  -1.662078
     5  C   -0.736501   1.071283
     6  C   -0.555369   1.301013
     7  C    0.690331  -1.399363
     8  C    0.637030  -1.501315
     9  C   -0.148962  -0.519555
    10  C    0.796535  -0.535825
    11  C   -1.091637   0.944504
    12  C    0.658373  -1.259356
    13  O   -0.261168   0.025686
    14  H   -0.243398   0.402981
    15  H   -0.268898   0.420632
    16  H   -0.154609   0.322558
    17  H   -0.538310   0.697271
    18  H   -0.204534   0.359932
    19  H    0.031306   0.129234
    20  H    0.004325   0.231988
    21  H   -0.076412   0.227126
    22  H   -0.246256   0.404622
    23  H    0.013124   0.150055
    24  H   -0.156622   0.309618
    25  H   -0.166379   0.315110
    26  H   -0.037598   0.179875
    27  H    0.158169  -0.042706
    28  H   -0.078637   0.255761
    29  H   -0.083458   0.233215
    30  H   -0.175255   0.339903
    31  H    0.091634   0.048444
    32  H   -0.201866   0.364455
    33  H    0.001488   0.238606
 Sum of Mulliken charges =  -1.00000   1.00000

 Dipole moment (field-independent basis, Debye):
    X=              2.3490    Y=             -1.4620    Z=             -2.4126  Tot=              3.6710
 Quadrupole moment (field-independent basis, Debye-Ang):
   XX=           -178.7969   YY=           -123.2029   ZZ=           -120.2839
   XY=             -4.7249   XZ=             -4.9187   YZ=             -1.5988

 Summary of Natural Population Analysis:

                                       Natural Population
                Natural  -----------------------------------------------
    Atom  No    Charge         Core      Valence    Rydberg      Total
 -----------------------------------------------------------------------
      C    1   -0.29970      0.99961     2.29357    0.00652     3.29970
      C    2    0.00222      0.99943     1.98502    0.01332     2.99778
      C    3   -0.09574      0.99943     2.08675    0.00957     3.09574
      C    4   -0.20303      0.99961     2.19373    0.00969     3.20303
      C    5   -0.09351      0.99956     2.08211    0.01185     3.09351
      C    6   -0.04683      0.99952     2.03333    0.01399     3.04683
      C    7   -0.28699      0.99962     2.27981    0.00756     3.28699
      C    8   -0.28536      0.99963     2.27785    0.00788     3.28536
      C    9   -0.20646      0.99959     2.19759    0.00928     3.20646
      C   10   -0.06955      0.99951     2.06049    0.00955     3.06955
      C   11   -0.11614      0.99950     2.10821    0.00842     3.11614
      C   12   -0.02309      0.99958     2.01109    0.01242     3.02309
      O   13   -0.36767      0.99990     3.36110    0.00667     4.36767
      H   14    0.10404      0.00000     0.39447    0.00149     0.39596
      H   15    0.10434      0.00000     0.39451    0.00115     0.39566
      H   16    0.10498      0.00000     0.39368    0.00134     0.39502
      H   17    0.09710      0.00000     0.40193    0.00097     0.40290
      H   18    0.10269      0.00000     0.39583    0.00148     0.39731
      H   19    0.09562      0.00000     0.40289    0.00150     0.40438
      H   20    0.09902      0.00000     0.39885    0.00213     0.40098
      H   21    0.09898      0.00000     0.40000    0.00102     0.40102
      H   22    0.10235      0.00000     0.39660    0.00105     0.39765
      H   23    0.10134      0.00000     0.39752    0.00114     0.39866
      H   24    0.10227      0.00000     0.39650    0.00123     0.39773
      H   25    0.10099      0.00000     0.39801    0.00101     0.39901
      H   26    0.09905      0.00000     0.39981    0.00115     0.40095
      H   27    0.09888      0.00000     0.39866    0.00246     0.40112
      H   28    0.10305      0.00000     0.39555    0.00140     0.39695
      H   29    0.09211      0.00000     0.40632    0.00157     0.40789
      H   30    0.09317      0.00000     0.40550    0.00133     0.40683
      H   31    0.08522      0.00000     0.41316    0.00162     0.41478
      H   32    0.07727      0.00000     0.42079    0.00195     0.42273
      H   33    0.22940      0.00000     0.26640    0.00420     0.27060
 =======================================================================
   * Total *   -0.00000     12.99449    36.84760    0.15790    50.00000

 Normal termination of Gaussian 16 at Sun Dec 13 12:47:24 2020.
