 Gaussian 16, Revision A.03,

 -----------------------------------------------------------
 # opt freq B3LYP/6-31G(d) empiricaldispersion=gd3bj scf=xqc
 -----------------------------------------------------------

 -------------------------------
 CID_150467514_JID_2654_neutraal
 -------------------------------
 Symbolic Z-matrix:
 Charge =  0 Multiplicity = 1

 SCF Done:  E(RB3LYP) =  -564.552054663     A.U. after   16 cycles
 SCF Done:  E(RB3LYP) =  -564.554468696     A.U. after   16 cycles
 SCF Done:  E(RB3LYP) =  -564.555412793     A.U. after   14 cycles
 SCF Done:  E(RB3LYP) =  -564.555899025     A.U. after   12 cycles
 SCF Done:  E(RB3LYP) =  -564.556251075     A.U. after   13 cycles
 SCF Done:  E(RB3LYP) =  -564.491099110     A.U. after   17 cycles
 SCF Done:  E(RB3LYP) =  -564.503207100     A.U. after   15 cycles
 SCF Done:  E(RB3LYP) =  -564.556251710     A.U. after    8 cycles
 SCF Done:  E(RB3LYP) =  -564.560245120     A.U. after   17 cycles
 SCF Done:  E(RB3LYP) =  -564.461575271     A.U. after   17 cycles
 SCF Done:  E(RB3LYP) =  -564.563101650     A.U. after   12 cycles
 SCF Done:  E(RB3LYP) =  -564.563287195     A.U. after   13 cycles
 SCF Done:  E(RB3LYP) =  -564.563296536     A.U. after   11 cycles
 SCF Done:  E(RB3LYP) =  -564.563297911     A.U. after   11 cycles
 SCF Done:  E(RB3LYP) =  -564.563298380     A.U. after   10 cycles
 Optimization completed.
    -- Stationary point found.
 Normal termination of Gaussian 16 at Wed Dec  9 17:54:07 2020.

 --------------------------------------------------------------------
 #N Geom=AllCheck Guess=TCheck SCRF=Check GenChk RB3LYP/6-31G(d) Freq
 --------------------------------------------------------------------

 Structure from the checkpoint file:  "JID_2654.chk"
 -------------------------------
 CID_150467514_JID_2654_neutraal
 -------------------------------
 Charge =  0 Multiplicity = 1

 SCF Done:  E(RB3LYP) =  -564.563298380     A.U. after    1 cycles

  Exact polarizability: 187.047  13.099 102.816  -1.383   0.622  38.464
 Approx polarizability: 294.909  41.110 201.452  -3.124   3.421  58.849

                      1                      2                      3
                      A                      A                      A
 Frequencies --     51.6083                72.0955                96.0767
 Red. masses --      6.4123                 6.3625                 7.2821
 Frc consts  --      0.0101                 0.0195                 0.0396
 IR Inten    --      1.3241                 1.3094                 3.4907

                      4                      5                      6
                      A                      A                      A
 Frequencies --    135.9539               156.8910               214.4488
 Red. masses --      2.6588                 6.3973                 6.1482
 Frc consts  --      0.0290                 0.0928                 0.1666
 IR Inten    --      2.1861                 2.8062                 3.4677

                      7                      8                      9
                      A                      A                      A
 Frequencies --    324.3399               376.1800               393.2282
 Red. masses --      8.6086                 7.8707                 7.7555
 Frc consts  --      0.5336                 0.6562                 0.7066
 IR Inten    --      0.1263                 1.2267                 5.3812

                     10                     11                     12
                      A                      A                      A
 Frequencies --    421.5567               467.7385               527.4547
 Red. masses --      3.2049                 4.1297                 2.9938
 Frc consts  --      0.3356                 0.5323                 0.4907
 IR Inten    --      0.4139                 6.1745                 5.2014

                     13                     14                     15
                      A                      A                      A
 Frequencies --    536.6779               549.8285               634.2712
 Red. masses --      8.4667                 6.5745                 1.3038
 Frc consts  --      1.4368                 1.1710                 0.3090
 IR Inten    --     15.6433                18.8895               125.1565

                     16                     17                     18
                      A                      A                      A
 Frequencies --    654.5069               690.9472               722.0553
 Red. masses --      7.0097                 7.7850                 4.1385
 Frc consts  --      1.7692                 2.1898                 1.2712
 IR Inten    --      0.5674                15.4894                 2.7713

                     19                     20                     21
                      A                      A                      A
 Frequencies --    823.0976               828.9717               844.0678
 Red. masses --      2.2947                 1.9154                 1.7103
 Frc consts  --      0.9160                 0.7755                 0.7179
 IR Inten    --      1.1138                 4.8759                49.4163

                     22                     23                     24
                      A                      A                      A
 Frequencies --    901.0178               944.5282               955.7281
 Red. masses --      4.6691                 1.3119                 1.3110
 Frc consts  --      2.2333                 0.6896                 0.7055
 IR Inten    --      7.5392                 0.0185                 0.0968

                     25                     26                     27
                      A                      A                      A
 Frequencies --   1034.5752              1036.0118              1148.9786
 Red. masses --      2.1255                 1.8465                 1.3508
 Frc consts  --      1.3404                 1.1677                 1.0507
 IR Inten    --      0.9310                 3.3789                10.6920

                     28                     29                     30
                      A                      A                      A
 Frequencies --   1170.6685              1218.5947              1232.0573
 Red. masses --      3.9934                 1.2609                 2.9083
 Frc consts  --      3.2245                 1.1032                 2.6010
 IR Inten    --     26.1531                 1.6256                99.3521

                     31                     32                     33
                      A                      A                      A
 Frequencies --   1291.4571              1345.4375              1350.4657
 Red. masses --      2.1234                 4.6897                 1.5286
 Frc consts  --      2.0867                 5.0017                 1.6426
 IR Inten    --    253.2642                64.0013                32.2033

                     34                     35                     36
                      A                      A                      A
 Frequencies --   1381.2644              1412.2549              1459.2087
 Red. masses --      9.8442                 1.3520                 2.1723
 Frc consts  --     11.0658                 1.5887                 2.7252
 IR Inten    --     91.2660                28.3846                 0.5198

                     37                     38                     39
                      A                      A                      A
 Frequencies --   1517.5533              1564.6140              1638.7804
 Red. masses --      2.2097                 2.6551                 6.2475
 Frc consts  --      2.9983                 3.8295                 9.8856
 IR Inten    --      4.0691               283.3042                11.2984

                     40                     41                     42
                      A                      A                      A
 Frequencies --   1674.9757              1821.3838              2265.9401
 Red. masses --      5.8808                 6.9608                13.9839
 Frc consts  --      9.7208                13.6055                42.3034
 IR Inten    --     12.2420               660.6180               820.6741

                     43                     44                     45
                      A                      A                      A
 Frequencies --   3011.4674              3194.4159              3199.3896
 Red. masses --      1.0867                 1.0895                 1.0888
 Frc consts  --      5.8063                 6.5503                 6.5666
 IR Inten    --     51.0292                14.4265                 3.4910

                     46                     47                     48
                      A                      A                      A
 Frequencies --   3221.7004              3225.0532              3584.1323
 Red. masses --      1.0933                 1.0937                 1.0760
 Frc consts  --      6.6857                 6.7020                 8.1437
 IR Inten    --      7.7135                 2.1634                28.3013

 - Thermochemistry -
 -------------------
 Temperature   298.150 Kelvin.  Pressure   1.00000 Atm.
 Atom     1 has atomic number  6 and mass  12.00000

 Molecular mass:   162.05416 amu.
 Principal axes and moments of inertia in atomic units:
                           1         2         3
     Eigenvalues --   540.432254568.742715081.58488
           X            1.00000  -0.00056   0.00008
           Y            0.00056   1.00000   0.00002
           Z           -0.00008  -0.00002   1.00000
 This molecule is an asymmetric top.
 Rotational symmetry number  1.
 Warning -- assumption of classical behavior for rotation
           may cause significant error
 Rotational temperatures (Kelvin)      0.16027     0.01896     0.01704
 Rotational constants (GHZ):           3.33944     0.39502     0.35515
 Zero-point vibrational energy     342871.6 (Joules/Mol)
                                   81.94827 (Kcal/Mol)
 Warning -- explicit consideration of  14 degrees of freedom as
           vibrations may cause significant error
 Vibrational temperatures:     74.25   103.73   138.23   195.61   225.73
          (Kelvin)            308.54   466.65   541.24   565.77   606.53
                              672.97   758.89   772.16   791.08   912.57
                              941.69   994.12  1038.88  1184.25  1192.71
                             1214.43  1296.36  1358.97  1375.08  1488.52
                             1490.59  1653.12  1684.33  1753.29  1772.66
                             1858.12  1935.78  1943.02  1987.33  2031.92
                             2099.48  2183.42  2251.13  2357.84  2409.92
                             2620.56  3260.18  4332.83  4596.05  4603.21
                             4635.31  4640.13  5156.77

 Zero-point correction=                           0.130593 (Hartree/Particle)
 Thermal correction to Energy=                    0.140844
 Thermal correction to Enthalpy=                  0.141788
 Thermal correction to Gibbs Free Energy=         0.093640
 Sum of electronic and zero-point Energies=           -564.432705
 Sum of electronic and thermal Energies=              -564.422455
 Sum of electronic and thermal Enthalpies=            -564.421510
 Sum of electronic and thermal Free Energies=         -564.469659

                     E (Thermal)             CV                S
                      KCal/Mol        Cal/Mol-Kelvin    Cal/Mol-Kelvin
 Total                   88.381             37.518            101.337
 Electronic               0.000              0.000              0.000
 Translational            0.889              2.981             41.157
 Rotational               0.889              2.981             30.907
 Vibrational             86.603             31.557             29.273
 Vibration     1          0.596              1.977              4.755
 Vibration     2          0.598              1.967              4.095
 Vibration     3          0.603              1.952              3.532
 Vibration     4          0.614              1.917              2.860
 Vibration     5          0.621              1.895              2.587
 Vibration     6          0.644              1.819              2.005
 Vibration     7          0.709              1.627              1.288
 Vibration     8          0.747              1.521              1.054
 Vibration     9          0.760              1.485              0.988
 Vibration    10          0.784              1.423              0.887
 Vibration    11          0.825              1.322              0.744
 Vibration    12          0.882              1.189              0.593
 Vibration    13          0.892              1.169              0.572
 Vibration    14          0.905              1.140              0.545

 Optimization completed.
    -- Stationary point found.
 Normal termination of Gaussian 16 at Wed Dec  9 17:58:09 2020.

 ----------------------------------------------------------------------
 # B3LYP/6-311++G(d,p) empiricaldispersion=gd3bj scf=xqc pop=npa geom=c
 heck
 ----------------------------------------------------------------------

 ---------------------------------------
 CID_150467514_JID_2654_Energie_neutraal
 ---------------------------------------
 Structure from the checkpoint file:  "JID_2654.chk"
 Charge =  0 Multiplicity = 1

 SCF Done:  E(RB3LYP) =  -564.721565948     A.U. after   16 cycles
 Normal termination of Gaussian 16 at Wed Dec  9 17:59:41 2020.

 ----------------------------------------------------------------------
 # B3LYP/6-311++G(d,p) empiricaldispersion=gd3bj scf=xqc pop=npa geom=c
 heck
 ----------------------------------------------------------------------

 -------------------------------------
 CID_150467514_JID_2654_Energie_kation
 -------------------------------------
 Structure from the checkpoint file:  "JID_2654.chk"
 Charge =  1 Multiplicity = 2

 SCF Done:  E(UB3LYP) =  -564.422034854     A.U. after   25 cycles
 Normal termination of Gaussian 16 at Wed Dec  9 18:03:14 2020.
 Gaussian 16:  ES64L-G16RevA.03 25-Dec-2016

 ----------------------------------------------------------------------
 # B3LYP/6-311++G(d,p) empiricaldispersion=gd3bj scf=xqc pop=npa geom=c
 heck
 ----------------------------------------------------------------------

 ------------------------------------
 CID_150467514_JID_2654_Energie_anion
 ------------------------------------
 Structure from the checkpoint file:  "JID_2654.chk"
 Charge = -1 Multiplicity = 2

                         Standard orientation:
 ---------------------------------------------------------------------
 Center     Atomic      Atomic             Coordinates (Angstroms)
 Number     Number       Type             X           Y           Z
 ---------------------------------------------------------------------
      1          6           0        0.598759    1.558012    0.004187
      2          6           0       -0.786303    1.621467    0.071975
      3          6           0       -1.546546    0.448311    0.018529
      4          6           0       -0.901763   -0.785518   -0.126167
      5          6           0        0.484801   -0.844719   -0.220707
      6          6           0        1.251579    0.325646   -0.137421
      7          7           0        2.657234    0.294720   -0.211191
      8          6           0        3.484767   -0.709067    0.228883
      9          8           0        4.696834   -0.669562    0.146019
     10          7           0       -2.953530    0.606205    0.107277
     11          7           0       -3.654826   -0.411866    0.063379
     12          7           0       -4.410552   -1.266694    0.036064
     13          1           0        1.184481    2.470595    0.071592
     14          1           0       -1.294357    2.573711    0.178941
     15          1           0       -1.480944   -1.702030   -0.189699
     16          1           0        0.965083   -1.803120   -0.383916
     17          1           0        3.138430    1.129459   -0.526934
     18          1           0        2.932588   -1.553471    0.677493
 ---------------------------------------------------------------------

 SCF Done:  E(UB3LYP) =  -564.723066628     A.U. after   33 cycles
 SCF Done:  E(UB3LYP) =  -564.723066628     a.u. after    3 cycles

 The electronic state is 2-A.
 Alpha  occ. eigenvalues --  -18.97814 -14.32114 -14.23398 -14.23131 -14.22773
 Alpha  occ. eigenvalues --  -10.14986 -10.08479 -10.08229 -10.05891 -10.05407
 Alpha  occ. eigenvalues --  -10.05399 -10.05162  -0.99819  -0.92785  -0.84630
 Alpha  occ. eigenvalues --   -0.82446  -0.72973  -0.63640  -0.63320  -0.53926
 Alpha  occ. eigenvalues --   -0.52458  -0.47955  -0.44254  -0.42666  -0.38619
 Alpha  occ. eigenvalues --   -0.37437  -0.36576  -0.33689  -0.32767  -0.31883
 Alpha  occ. eigenvalues --   -0.31027  -0.30624  -0.29949  -0.28118  -0.26216
 Alpha  occ. eigenvalues --   -0.23773  -0.20826  -0.17771  -0.15393  -0.15201
 Alpha  occ. eigenvalues --   -0.14216  -0.08546   0.05029
 Alpha virt. eigenvalues --    0.07827   0.08596   0.09153   0.09595   0.10315
 Alpha virt. eigenvalues --    0.11564   0.11756   0.12430   0.13267   0.15114
 Alpha virt. eigenvalues --    0.15434   0.15821   0.16305   0.17329   0.18111

  Beta  occ. eigenvalues --  -18.97655 -14.31702 -14.23461 -14.22905 -14.22674
  Beta  occ. eigenvalues --  -10.14846 -10.08230 -10.07985 -10.05910 -10.05369
  Beta  occ. eigenvalues --  -10.05367 -10.05157  -0.99120  -0.92510  -0.84345
  Beta  occ. eigenvalues --   -0.82307  -0.72768  -0.63409  -0.63000  -0.53535
  Beta  occ. eigenvalues --   -0.52269  -0.47797  -0.44048  -0.42550  -0.38213
  Beta  occ. eigenvalues --   -0.36524  -0.35922  -0.33422  -0.32258  -0.31338
  Beta  occ. eigenvalues --   -0.30867  -0.30114  -0.29493  -0.27980  -0.25488
  Beta  occ. eigenvalues --   -0.23600  -0.20017  -0.17307  -0.15217  -0.14882
  Beta  occ. eigenvalues --   -0.13844  -0.07746
  Beta virt. eigenvalues --    0.08213   0.09142   0.09479   0.09741   0.10179
  Beta virt. eigenvalues --    0.11072   0.11593   0.12365   0.12783   0.13781
  Beta virt. eigenvalues --    0.15333   0.15622   0.15999   0.16325   0.17358

 Mulliken charges and spin densities:
               1          2
     1  C   -0.299090   0.414241
     2  C    0.257089  -0.165035
     3  C   -0.701474  -0.348503
     4  C   -0.298304   0.419286
     5  C    0.138601  -0.026735
     6  C    0.577739  -0.746605
     7  N   -0.152366  -0.006234
     8  C    0.118762   0.007963
     9  O   -0.407680   0.056275
    10  N    0.018851   0.192050
    11  N    0.235523  -0.007805
    12  N   -0.391126   0.147737
    13  H   -0.405864   0.549088
    14  H   -0.121788   0.299119
    15  H    0.160884  -0.008236
    16  H    0.058958   0.083925
    17  H    0.112285   0.168115
    18  H    0.099000  -0.028643
 Sum of Mulliken charges =  -1.00000   1.00000

 Dipole moment (field-independent basis, Debye):
    X=             -0.0156    Y=             -0.8863    Z=              0.3434  Tot=              0.9506
 Quadrupole moment (field-independent basis, Debye-Ang):
   XX=           -153.9255   YY=            -87.5659   ZZ=            -78.8618
   XY=             -2.9243   XZ=              0.8835   YZ=              0.9079

 Summary of Natural Population Analysis:

                                       Natural Population
                Natural  -----------------------------------------------
    Atom  No    Charge         Core      Valence    Rydberg      Total
 -----------------------------------------------------------------------
      C    1   -0.10578      0.99954     2.09679    0.00945     3.10578
      C    2   -0.10242      0.99953     2.09276    0.01012     3.10242
      C    3    0.09029      0.99942     1.89766    0.01263     2.90971
      C    4   -0.11389      0.99953     2.10660    0.00776     3.11389
      C    5   -0.11821      0.99954     2.10968    0.00899     3.11821
      C    6    0.09697      0.99947     1.89249    0.01107     2.90303
      N    7   -0.31441      0.99967     2.80607    0.00867     3.81441
      C    8    0.28831      0.99975     1.68959    0.02234     2.71169
      O    9   -0.30627      0.99988     3.29966    0.00672     4.30627
      N   10   -0.20913      0.99965     2.69635    0.01313     3.70913
      N   11    0.15279      0.99971     2.33094    0.01656     3.34721
      N   12   -0.00054      0.99982     2.48784    0.01288     3.50054
      H   13    0.09833      0.00000     0.40036    0.00131     0.40167
      H   14    0.10259      0.00000     0.39576    0.00165     0.39741
      H   15    0.10067      0.00000     0.39816    0.00117     0.39933
      H   16    0.09791      0.00000     0.40078    0.00131     0.40209
      H   17    0.19461      0.00000     0.30179    0.00360     0.30539
      H   18    0.04816      0.00000     0.45014    0.00170     0.45184
 =======================================================================
   * Total *   -0.00000     11.99552    29.85341    0.15108    42.00000

 Normal termination of Gaussian 16 at Wed Dec  9 18:23:43 2020.
