 Gaussian 16, Revision A.03,

 -----------------------------------------------------------
 # opt freq B3LYP/6-31G(d) empiricaldispersion=gd3bj scf=xqc
 -----------------------------------------------------------

 -------------------------------
 CID_130624115_JID_3479_neutraal
 -------------------------------
 Symbolic Z-matrix:
 Charge =  0 Multiplicity = 1

 SCF Done:  E(RB3LYP) =  -591.501906514     A.U. after   15 cycles
 SCF Done:  E(RB3LYP) =  -591.510319674     A.U. after   13 cycles
 SCF Done:  E(RB3LYP) =  -591.511899479     A.U. after   12 cycles
 SCF Done:  E(RB3LYP) =  -591.512324194     A.U. after   12 cycles
 SCF Done:  E(RB3LYP) =  -591.512468227     A.U. after   12 cycles
 SCF Done:  E(RB3LYP) =  -591.512541590     A.U. after   11 cycles
 SCF Done:  E(RB3LYP) =  -591.512622631     A.U. after   11 cycles
 SCF Done:  E(RB3LYP) =  -591.512763648     A.U. after   12 cycles
 SCF Done:  E(RB3LYP) =  -591.512810170     A.U. after   10 cycles
 SCF Done:  E(RB3LYP) =  -591.512831481     A.U. after   10 cycles
 SCF Done:  E(RB3LYP) =  -591.512868150     A.U. after    8 cycles
 SCF Done:  E(RB3LYP) =  -591.512869698     A.U. after    9 cycles
 SCF Done:  E(RB3LYP) =  -591.512869899     A.U. after    7 cycles
 SCF Done:  E(RB3LYP) =  -591.512870010     A.U. after    7 cycles
 Optimization completed.
    -- Stationary point found.
 Normal termination of Gaussian 16 at Mon Dec 14 13:11:36 2020.

 --------------------------------------------------------------------
 #N Geom=AllCheck Guess=TCheck SCRF=Check GenChk RB3LYP/6-31G(d) Freq
 --------------------------------------------------------------------

 Structure from the checkpoint file:  "JID_3479.chk"
 -------------------------------
 CID_130624115_JID_3479_neutraal
 -------------------------------
 Charge =  0 Multiplicity = 1

 SCF Done:  E(RB3LYP) =  -591.512870010     A.U. after    1 cycles

  Exact polarizability: 164.139   5.169 115.888  17.014  -4.614  78.652
 Approx polarizability: 224.703  22.685 191.836  34.102  -6.982 117.230

 ******    1 imaginary frequencies (negative Signs) ******

                      1                      2                      3
                      A                      A                      A
 Frequencies --    -45.4624                27.5261                47.4569
 Red. masses --      1.0402                 4.7409                 3.6641
 Frc consts  --      0.0013                 0.0021                 0.0049
 IR Inten    --      0.1599                 2.0044                 2.3529

                      4                      5                      6
                      A                      A                      A
 Frequencies --     62.0574               118.8393               140.0136
 Red. masses --      3.3878                 3.0713                 3.6786
 Frc consts  --      0.0077                 0.0256                 0.0425
 IR Inten    --      0.7763                10.6903                 3.0875

                      7                      8                      9
                      A                      A                      A
 Frequencies --    173.7419               197.7759               253.8769
 Red. masses --      2.9501                 1.8450                 2.5695
 Frc consts  --      0.0525                 0.0425                 0.0976
 IR Inten    --      3.8106                24.5197                14.8715

                     10                     11                     12
                      A                      A                      A
 Frequencies --    274.5817               296.9320               360.9290
 Red. masses --      2.0896                 3.2530                 2.4219
 Frc consts  --      0.0928                 0.1690                 0.1859
 IR Inten    --     12.2905                 2.5438                 2.7836

                     13                     14                     15
                      A                      A                      A
 Frequencies --    372.2937               423.8673               427.6191
 Red. masses --      3.4492                 2.5165                 3.2175
 Frc consts  --      0.2817                 0.2664                 0.3466
 IR Inten    --     13.3306                29.0639                16.8864

                     16                     17                     18
                      A                      A                      A
 Frequencies --    451.7619               504.3053               546.1214
 Red. masses --      2.8671                 1.8521                 2.5635
 Frc consts  --      0.3448                 0.2775                 0.4505
 IR Inten    --      6.1769                55.0881                35.7399

                     19                     20                     21
                      A                      A                      A
 Frequencies --    607.1106               637.0227               687.2292
 Red. masses --      4.4447                 2.9893                 3.5435
 Frc consts  --      0.9652                 0.7147                 0.9860
 IR Inten    --     10.4171                17.6867                 7.0993

                     22                     23                     24
                      A                      A                      A
 Frequencies --    714.1453               745.4025               751.9991
 Red. masses --      2.7344                 2.3609                 4.0139
 Frc consts  --      0.8217                 0.7729                 1.3374
 IR Inten    --      3.9552                 1.3048                13.0126

                     25                     26                     27
                      A                      A                      A
 Frequencies --    758.2315               804.7685               822.0166
 Red. masses --      1.7697                 1.8872                 1.7527
 Frc consts  --      0.5994                 0.7201                 0.6978
 IR Inten    --     13.1874                10.4452                54.5155

                     28                     29                     30
                      A                      A                      A
 Frequencies --    839.2441               873.1599               926.0593
 Red. masses --      2.8248                 1.3424                 1.2660
 Frc consts  --      1.1722                 0.6030                 0.6397
 IR Inten    --      1.4181               146.1624                 0.7786

                     31                     32                     33
                      A                      A                      A
 Frequencies --    954.4173               988.3394               995.1967
 Red. masses --      2.7967                 1.9348                 1.8199
 Frc consts  --      1.5010                 1.1135                 1.0620
 IR Inten    --     13.7120                 2.8632                 3.3292

                     34                     35                     36
                      A                      A                      A
 Frequencies --   1063.7363              1096.2832              1100.1561
 Red. masses --      1.8512                 2.0824                 2.3178
 Frc consts  --      1.2341                 1.4745                 1.6528
 IR Inten    --     13.8917                 5.9112                19.0911

                     37                     38                     39
                      A                      A                      A
 Frequencies --   1135.8529              1164.1501              1188.0013
 Red. masses --      2.3665                 1.2896                 1.4428
 Frc consts  --      1.7989                 1.0298                 1.1997
 IR Inten    --     11.3988                 0.7172                 3.4135

                     40                     41                     42
                      A                      A                      A
 Frequencies --   1203.7056              1222.0050              1245.4501
 Red. masses --      1.4955                 1.7359                 1.2166
 Frc consts  --      1.2767                 1.5273                 1.1118
 IR Inten    --      6.1924                 4.6817                 4.3365

                     43                     44                     45
                      A                      A                      A
 Frequencies --   1263.8091              1300.3723              1310.5056
 Red. masses --      2.4224                 2.1694                 1.4649
 Frc consts  --      2.2796                 2.1613                 1.4823
 IR Inten    --     65.7962                71.8497                66.3377

                     46                     47                     48
                      A                      A                      A
 Frequencies --   1360.9920              1368.3874              1387.5015
 Red. masses --      1.7042                 1.1554                 1.7871
 Frc consts  --      1.8599                 1.2747                 2.0270
 IR Inten    --     13.0331                 6.6804               132.5766

                     49                     50                     51
                      A                      A                      A
 Frequencies --   1405.2653              1413.9475              1449.2270
 Red. masses --      1.4397                 1.5256                 1.4174
 Frc consts  --      1.6751                 1.7971                 1.7539
 IR Inten    --      0.7061                13.2583                10.3227

                     52                     53                     54
                      A                      A                      A
 Frequencies --   1454.5083              1500.0974              1503.4019
 Red. masses --      1.3465                 1.3156                 1.3656
 Frc consts  --      1.6784                 1.7443                 1.8186
 IR Inten    --     66.5252                13.5004                 9.1416

                     55                     56                     57
                      A                      A                      A
 Frequencies --   1526.1540              1533.6813              1539.5313
 Red. masses --      1.1016                 1.1242                 1.0765
 Frc consts  --      1.5118                 1.5580                 1.5032
 IR Inten    --     36.9304                 4.7828                17.4421

                     58                     59                     60
                      A                      A                      A
 Frequencies --   1540.4016              1557.6998              1604.0919
 Red. masses --      1.0748                 2.6200                 3.2118
 Frc consts  --      1.5026                 3.7456                 4.8691
 IR Inten    --      2.9225                44.5526                97.2865

                     61                     62                     63
                      A                      A                      A
 Frequencies --   1693.2511              1703.2960              1765.1292
 Red. masses --      4.9047                 1.1167                 9.6155
 Frc consts  --      8.2852                 1.9089                17.6513
 IR Inten    --    191.7822                16.9458               742.7701

                     64                     65                     66
                      A                      A                      A
 Frequencies --   2973.5770              3052.6926              3058.4902
 Red. masses --      1.0735                 1.0606                 1.0366
 Frc consts  --      5.5924                 5.8230                 5.7132
 IR Inten    --     64.1389                11.7919                66.2605

                     67                     68                     69
                      A                      A                      A
 Frequencies --   3068.1195              3086.6341              3096.7023
 Red. masses --      1.0632                 1.0888                 1.1038
 Frc consts  --      5.8966                 6.1116                 6.2366
 IR Inten    --     37.7216                35.1391                32.6215

                     70                     71                     72
                      A                      A                      A
 Frequencies --   3111.8486              3118.3683              3192.3369
 Red. masses --      1.1029                 1.1061                 1.0985
 Frc consts  --      6.2927                 6.3373                 6.5956
 IR Inten    --     47.3319                27.1257                 1.6253

                     73                     74                     75
                      A                      A                      A
 Frequencies --   3207.0065              3208.8634              3253.7043
 Red. masses --      1.0903                 1.0906                 1.0931
 Frc consts  --      6.6066                 6.6164                 6.8182
 IR Inten    --     12.6931                 0.2834                 4.2848

                     76                     77                     78
                      A                      A                      A
 Frequencies --   3468.6419              3550.7638              3596.2441
 Red. masses --      1.0504                 1.0917                 1.0757
 Frc consts  --      7.4457                 8.1093                 8.1970
 IR Inten    --      2.5398                 1.1543                 9.7766

 - Thermochemistry -
 -------------------
 Temperature   298.150 Kelvin.  Pressure   1.00000 Atm.
 Atom     1 has atomic number  6 and mass  12.00000

 Molecular mass:   181.12151 amu.
 Principal axes and moments of inertia in atomic units:
                           1         2         3
     Eigenvalues --  1047.103604795.500445182.94742
           X            0.99989  -0.01455   0.00273
           Y            0.01458   0.99983  -0.01138
           Z           -0.00256   0.01142   0.99993
 This molecule is an asymmetric top.
 Rotational symmetry number  1.
 Warning -- assumption of classical behavior for rotation
           may cause significant error
 Rotational temperatures (Kelvin)      0.08272     0.01806     0.01671
 Rotational constants (GHZ):           1.72356     0.37634     0.34821
    1 imaginary frequencies ignored.
 Zero-point vibrational energy     636584.6 (Joules/Mol)
                                  152.14736 (Kcal/Mol)
 Warning -- explicit consideration of  18 degrees of freedom as
           vibrations may cause significant error
 Vibrational temperatures:     39.60    68.28    89.29   170.98   201.45
          (Kelvin)            249.98   284.56   365.27   395.06   427.22
                              519.30   535.65   609.85   615.25   649.98
                              725.58   785.75   873.50   916.53   988.77
                             1027.50  1072.47  1081.96  1090.93  1157.88
                             1182.70  1207.49  1256.28  1332.39  1373.19
                             1422.00  1431.87  1530.48  1577.31  1582.88
                             1634.24  1674.95  1709.27  1731.86  1758.19
                             1791.92  1818.34  1870.95  1885.53  1958.16
                             1968.80  1996.31  2021.86  2034.36  2085.11
                             2092.71  2158.31  2163.06  2195.80  2206.63
                             2215.04  2216.29  2241.18  2307.93  2436.21
                             2450.66  2539.63  4278.31  4392.14  4400.49
                             4414.34  4440.98  4455.46  4477.26  4486.64
                             4593.06  4614.17  4616.84  4681.35  4990.60
                             5108.76  5174.19

 Zero-point correction=                           0.242462 (Hartree/Particle)
 Thermal correction to Energy=                    0.255203
 Thermal correction to Enthalpy=                  0.256147
 Thermal correction to Gibbs Free Energy=         0.202153
 Sum of electronic and zero-point Energies=           -591.270408
 Sum of electronic and thermal Energies=              -591.257667
 Sum of electronic and thermal Enthalpies=            -591.256723
 Sum of electronic and thermal Free Energies=         -591.310717

                     E (Thermal)             CV                S
                      KCal/Mol        Cal/Mol-Kelvin    Cal/Mol-Kelvin
 Total                  160.142             48.111            113.640
 Electronic               0.000              0.000              0.000
 Translational            0.889              2.981             41.489
 Rotational               0.889              2.981             31.632
 Vibrational            158.365             42.150             40.519
 Vibration     1          0.593              1.984              6.000
 Vibration     2          0.595              1.979              4.921
 Vibration     3          0.597              1.972              4.391
 Vibration     4          0.609              1.934              3.119
 Vibration     5          0.615              1.913              2.804
 Vibration     6          0.627              1.875              2.395
 Vibration     7          0.637              1.843              2.154
 Vibration     8          0.665              1.756              1.704
 Vibration     9          0.677              1.720              1.567
 Vibration    10          0.691              1.679              1.434
 Vibration    11          0.735              1.553              1.118
 Vibration    12          0.744              1.529              1.070
 Vibration    13          0.786              1.418              0.879
 Vibration    14          0.789              1.410              0.866
 Vibration    15          0.810              1.357              0.790
 Vibration    16          0.860              1.240              0.647
 Vibration    17          0.901              1.148              0.552
 Vibration    18          0.966              1.017              0.438

                           ! Non-Optimized Parameters !
 Normal termination of Gaussian 16 at Mon Dec 14 13:17:59 2020.

 ----------------------------------------------------------------------
 # B3LYP/6-311++G(d,p) empiricaldispersion=gd3bj scf=xqc pop=npa geom=c
 heck
 ----------------------------------------------------------------------

 ---------------------------------------
 CID_130624115_JID_3479_Energie_neutraal
 ---------------------------------------
 Structure from the checkpoint file:  "JID_3479.chk"
 Charge =  0 Multiplicity = 1

 SCF Done:  E(RB3LYP) =  -591.691686557     A.U. after   16 cycles
 Normal termination of Gaussian 16 at Mon Dec 14 13:20:43 2020.

 ----------------------------------------------------------------------
 # B3LYP/6-311++G(d,p) empiricaldispersion=gd3bj scf=xqc pop=npa geom=c
 heck
 ----------------------------------------------------------------------

 -------------------------------------
 CID_130624115_JID_3479_Energie_kation
 -------------------------------------
 Structure from the checkpoint file:  "JID_3479.chk"
 Charge =  1 Multiplicity = 2

 SCF Done:  E(UB3LYP) =  -591.412813752     A.U. after   33 cycles
 SCF Done:  E(UB3LYP) =  -591.412813778     a.u. after    2 cycles
 Normal termination of Gaussian 16 at Mon Dec 14 13:33:53 2020.
 Gaussian 16:  ES64L-G16RevA.03 25-Dec-2016

 ----------------------------------------------------------------------
 # B3LYP/6-311++G(d,p) empiricaldispersion=gd3bj scf=xqc pop=npa geom=c
 heck
 ----------------------------------------------------------------------

 ------------------------------------
 CID_130624115_JID_3479_Energie_anion
 ------------------------------------
 Structure from the checkpoint file:  "JID_3479.chk"
 Charge = -1 Multiplicity = 2

                         Standard orientation:
 ---------------------------------------------------------------------
 Center     Atomic      Atomic             Coordinates (Angstroms)
 Number     Number       Type             X           Y           Z
 ---------------------------------------------------------------------
      1          6           0        3.999560   -0.524217    0.745255
      2          7           0        2.636476   -0.349116    0.252170
      3          6           0        1.809078   -1.422447    0.140290
      4          6           0        0.528579   -1.329998   -0.312798
      5          6           0        0.028724   -0.040303   -0.693566
      6          6           0        0.864475    1.053788   -0.577879
      7          6           0        2.216549    0.972043   -0.108622
      8          8           0        2.998748    1.916913    0.008711
      9          7           0       -1.245521    0.091774   -1.204746
     10          6           0       -2.327080   -0.848107   -0.926452
     11          6           0       -2.736441   -0.944075    0.551916
     12          6           0       -3.145740    0.396498    1.164896
     13          7           0       -4.313997    0.961204    0.474120
     14          1           0        3.991511   -0.994354    1.733791
     15          1           0        4.584028   -1.141866    0.054937
     16          1           0        4.441902    0.468965    0.809754
     17          1           0        2.236999   -2.374475    0.438281
     18          1           0       -0.076483   -2.222697   -0.389148
     19          1           0        0.524335    2.047691   -0.850352
     20          1           0       -1.535113    1.052897   -1.327243
     21          1           0       -3.184258   -0.533388   -1.529975
     22          1           0       -2.044181   -1.837677   -1.301809
     23          1           0       -3.576066   -1.645178    0.630988
     24          1           0       -1.901256   -1.355106    1.132036
     25          1           0       -3.431204    0.227805    2.209016
     26          1           0       -2.269163    1.067289    1.185233
     27          1           0       -4.680881    1.745615    1.009797
     28          1           0       -4.035083    1.353055   -0.424038
 ---------------------------------------------------------------------

 SCF Done:  E(UB3LYP) =  -591.684337899     A.U. after   33 cycles
 SCF Done:  E(UB3LYP) =  -591.684337899     a.u. after    1 cycles

 The electronic state is 2-A.
 Alpha  occ. eigenvalues --  -18.96290 -14.25554 -14.22469 -14.18761 -10.15348
 Alpha  occ. eigenvalues --  -10.11734 -10.11253 -10.10469 -10.10404 -10.08711
 Alpha  occ. eigenvalues --  -10.06547 -10.06409 -10.04686  -0.92057  -0.85086
 Alpha  occ. eigenvalues --   -0.83720  -0.77785  -0.70635  -0.66263  -0.63633
 Alpha  occ. eigenvalues --   -0.60844  -0.56997  -0.53742  -0.50430  -0.47249
 Alpha  occ. eigenvalues --   -0.43315  -0.41785  -0.39654  -0.38674  -0.37598
 Alpha  occ. eigenvalues --   -0.36740  -0.35302  -0.34280  -0.33180  -0.31831
 Alpha  occ. eigenvalues --   -0.30791  -0.30308  -0.29490  -0.28987  -0.26586
 Alpha  occ. eigenvalues --   -0.26018  -0.25551  -0.24507  -0.23359  -0.21396
 Alpha  occ. eigenvalues --   -0.14653  -0.14140  -0.12493  -0.10266   0.04178
 Alpha virt. eigenvalues --    0.05860   0.06703   0.07471   0.08096   0.09075
 Alpha virt. eigenvalues --    0.09777   0.10131   0.10630   0.11047   0.12075
 Alpha virt. eigenvalues --    0.12403   0.12504   0.12894   0.13407   0.14227

  Beta  occ. eigenvalues --  -18.96289 -14.25495 -14.22437 -14.18696 -10.15351
  Beta  occ. eigenvalues --  -10.11660 -10.11134 -10.10459 -10.10386 -10.08687
  Beta  occ. eigenvalues --  -10.06546 -10.06404 -10.04650  -0.92021  -0.84987
  Beta  occ. eigenvalues --   -0.83635  -0.77681  -0.70532  -0.66181  -0.63523
  Beta  occ. eigenvalues --   -0.60772  -0.56914  -0.53597  -0.50344  -0.47171
  Beta  occ. eigenvalues --   -0.43248  -0.41710  -0.39569  -0.38578  -0.37526
  Beta  occ. eigenvalues --   -0.36580  -0.35221  -0.34201  -0.33100  -0.31780
  Beta  occ. eigenvalues --   -0.30741  -0.30263  -0.29372  -0.28937  -0.26536
  Beta  occ. eigenvalues --   -0.25924  -0.25511  -0.24456  -0.23207  -0.21087
  Beta  occ. eigenvalues --   -0.14633  -0.14077  -0.12289  -0.10043
  Beta virt. eigenvalues --    0.06572   0.07022   0.07368   0.07956   0.08709
  Beta virt. eigenvalues --    0.09410   0.10145   0.10551   0.10852   0.11311
  Beta virt. eigenvalues --    0.12316   0.12631   0.12706   0.12982   0.13544

 Mulliken charges and spin densities:
               1          2
     1  C    0.116933  -0.432814
     2  N   -0.061702   0.093136
     3  C    1.609756  -2.035430
     4  C   -1.058833   1.303142
     5  C    0.588853  -1.273398
     6  C   -1.019101   1.668089
     7  C    0.204403  -0.612148
     8  O   -0.417437   0.005989
     9  N   -0.094851   0.079051
    10  C   -0.104506  -0.214409
    11  C    0.127136  -0.152152
    12  C    0.467549  -1.084369
    13  N   -0.278979  -0.064222
    14  H   -0.166356   0.327093
    15  H    0.109598   0.039723
    16  H    0.244572  -0.052700
    17  H   -0.337878   0.488359
    18  H   -0.296874   0.467701
    19  H   -0.045311   0.215993
    20  H    0.026840   0.242394
    21  H   -0.206421   0.401925
    22  H    0.032667   0.113560
    23  H    0.009654   0.133684
    24  H    0.091899   0.025559
    25  H   -0.262158   0.413390
    26  H    0.108966   0.062147
    27  H   -0.258702   0.501363
    28  H   -0.129717   0.339343
 Sum of Mulliken charges =  -1.00000   1.00000

 Dipole moment (field-independent basis, Debye):
    X=              3.7846    Y=             -3.2150    Z=             -1.2508  Tot=              5.1209
 Quadrupole moment (field-independent basis, Debye-Ang):
   XX=           -156.6118   YY=           -120.2451   ZZ=           -105.9199
   XY=              2.3006   XZ=             -0.1813   YZ=              2.1993

 Summary of Natural Population Analysis:

                                       Natural Population
                Natural  -----------------------------------------------
    Atom  No    Charge         Core      Valence    Rydberg      Total
 -----------------------------------------------------------------------
      C    1   -0.18281      0.99964     2.17506    0.00811     3.18281
      N    2   -0.22357      0.99963     2.71469    0.00925     3.72357
      C    3    0.06428      0.99956     1.92463    0.01153     2.93572
      C    4   -0.16830      0.99953     2.15949    0.00928     3.16830
      C    5    0.12463      0.99950     1.86446    0.01141     2.87537
      C    6   -0.18505      0.99949     2.17573    0.00983     3.18505
      C    7    0.31266      0.99960     1.66615    0.02159     2.68734
      O    8   -0.34948      0.99988     3.34387    0.00573     4.34948
      N    9   -0.30534      0.99968     2.79497    0.01069     3.80534
      C   10   -0.08833      0.99961     2.07832    0.01040     3.08833
      C   11   -0.20111      0.99962     2.19391    0.00758     3.20111
      C   12   -0.09301      0.99963     2.08143    0.01195     3.09301
      N   13   -0.42574      0.99977     2.91480    0.01116     3.92574
      H   14    0.09615      0.00000     0.40260    0.00125     0.40385
      H   15    0.09060      0.00000     0.40863    0.00078     0.40940
      H   16    0.11891      0.00000     0.37999    0.00111     0.38109
      H   17    0.09632      0.00000     0.40244    0.00124     0.40368
      H   18    0.10809      0.00000     0.39074    0.00118     0.39191
      H   19    0.10397      0.00000     0.39437    0.00166     0.39603
      H   20    0.18743      0.00000     0.30952    0.00304     0.31257
      H   21    0.10022      0.00000     0.39852    0.00126     0.39978
      H   22    0.09511      0.00000     0.40353    0.00136     0.40489
      H   23    0.09911      0.00000     0.39954    0.00135     0.40089
      H   24    0.10011      0.00000     0.39830    0.00159     0.39989
      H   25    0.09119      0.00000     0.40771    0.00110     0.40881
      H   26    0.08291      0.00000     0.41524    0.00185     0.41709
      H   27    0.17823      0.00000     0.31846    0.00331     0.32177
      H   28    0.17282      0.00000     0.32324    0.00394     0.32718
 =======================================================================
   * Total *    0.00000     12.99516    35.84032    0.16452    49.00000

 Normal termination of Gaussian 16 at Mon Dec 14 13:41:31 2020.
