 Gaussian 16, Revision A.03,

 -----------------------------------------------------------
 # opt freq B3LYP/6-31G(d) empiricaldispersion=gd3bj scf=xqc
 -----------------------------------------------------------

 ------------------------------
 CID_81775427_JID_8815_neutraal
 ------------------------------
 Symbolic Z-matrix:
 Charge =  0 Multiplicity = 1

 SCF Done:  E(RB3LYP) =  -876.155489464     A.U. after   15 cycles
 SCF Done:  E(RB3LYP) =  -876.158332805     A.U. after   13 cycles
 SCF Done:  E(RB3LYP) =  -876.161684636     A.U. after   13 cycles
 SCF Done:  E(RB3LYP) =  -876.161706147     A.U. after   13 cycles
 SCF Done:  E(RB3LYP) =  -876.163985997     A.U. after   12 cycles
 SCF Done:  E(RB3LYP) =  -876.164517574     A.U. after   13 cycles
 SCF Done:  E(RB3LYP) =  -876.165119316     A.U. after   12 cycles
 SCF Done:  E(RB3LYP) =  -876.165379654     A.U. after   12 cycles
 SCF Done:  E(RB3LYP) =  -876.165745573     A.U. after   12 cycles
 SCF Done:  E(RB3LYP) =  -876.165864584     A.U. after   11 cycles
 SCF Done:  E(RB3LYP) =  -876.165999282     A.U. after   10 cycles
 SCF Done:  E(RB3LYP) =  -876.166015363     A.U. after   11 cycles
 SCF Done:  E(RB3LYP) =  -876.166018912     A.U. after   10 cycles
 SCF Done:  E(RB3LYP) =  -876.166018731     A.U. after    9 cycles
 SCF Done:  E(RB3LYP) =  -876.166019490     A.U. after    8 cycles
 SCF Done:  E(RB3LYP) =  -876.166019537     A.U. after    7 cycles
 Optimization completed.
    -- Stationary point found.
 Normal termination of Gaussian 16 at Fri Dec 11 22:17:48 2020.

 --------------------------------------------------------------------
 #N Geom=AllCheck Guess=TCheck SCRF=Check GenChk RB3LYP/6-31G(d) Freq
 --------------------------------------------------------------------

 Structure from the checkpoint file:  "JID_8815.chk"
 ------------------------------
 CID_81775427_JID_8815_neutraal
 ------------------------------
 Charge =  0 Multiplicity = 1

 SCF Done:  E(RB3LYP) =  -876.166019537     A.U. after    1 cycles

  Exact polarizability: 189.152 -17.658 143.863  17.822  13.610 104.894
 Approx polarizability: 281.900 -25.367 233.204  46.958  36.622 175.002

                      1                      2                      3
                      A                      A                      A
 Frequencies --     18.8746                38.8359                50.7878
 Red. masses --      5.4412                 7.0959                 6.5881
 Frc consts  --      0.0011                 0.0063                 0.0100
 IR Inten    --      0.0924                 0.3544                 0.3226

                      4                      5                      6
                      A                      A                      A
 Frequencies --     61.2530                75.1937                83.8929
 Red. masses --      5.4849                 8.7053                 3.5617
 Frc consts  --      0.0121                 0.0290                 0.0148
 IR Inten    --      0.3477                 1.8323                 0.2723

                      7                      8                      9
                      A                      A                      A
 Frequencies --    102.1409               137.0688               181.1527
 Red. masses --      2.7612                 4.6085                 5.2044
 Frc consts  --      0.0170                 0.0510                 0.1006
 IR Inten    --      0.0438                 0.0654                 0.5765

                     10                     11                     12
                      A                      A                      A
 Frequencies --    191.1089               225.0704               274.2629
 Red. masses --      2.9083                 7.3028                 1.9873
 Frc consts  --      0.0626                 0.2180                 0.0881
 IR Inten    --      0.8392                 1.7778                19.8123

                     13                     14                     15
                      A                      A                      A
 Frequencies --    283.3953               316.4573               340.3699
 Red. masses --      3.6242                 1.4025                 3.8103
 Frc consts  --      0.1715                 0.0828                 0.2601
 IR Inten    --     13.5289                21.0970                10.2303

                     16                     17                     18
                      A                      A                      A
 Frequencies --    358.7649               366.0134               400.7270
 Red. masses --      7.0864                 7.3156                 2.4425
 Frc consts  --      0.5374                 0.5774                 0.2311
 IR Inten    --      1.7110                 0.4110                10.9856

                     19                     20                     21
                      A                      A                      A
 Frequencies --    413.7317               417.4113               442.5460
 Red. masses --      7.0726                 7.5237                 3.1314
 Frc consts  --      0.7133                 0.7723                 0.3613
 IR Inten    --      2.9253                 7.2985                11.6184

                     22                     23                     24
                      A                      A                      A
 Frequencies --    458.9843               529.1204               537.1293
 Red. masses --      2.7751                 1.2042                 2.5675
 Frc consts  --      0.3445                 0.1986                 0.4364
 IR Inten    --      5.9111                68.9633                 6.6812

                     25                     26                     27
                      A                      A                      A
 Frequencies --    559.2344               572.1270               600.0391
 Red. masses --      1.4482                 4.2228                 1.2441
 Frc consts  --      0.2669                 0.8144                 0.2639
 IR Inten    --    179.8296                20.0859                27.9782

                     28                     29                     30
                      A                      A                      A
 Frequencies --    619.0820               639.2996               652.6452
 Red. masses --      4.8025                 2.2661                 4.2563
 Frc consts  --      1.0845                 0.5457                 1.0682
 IR Inten    --     12.7024                49.0631                47.3002

                     31                     32                     33
                      A                      A                      A
 Frequencies --    661.4434               720.1026               737.3489
 Red. masses --      2.0810                 4.5622                 3.6653
 Frc consts  --      0.5364                 1.3939                 1.1741
 IR Inten    --     28.5274                 7.2567                11.2070

                     34                     35                     36
                      A                      A                      A
 Frequencies --    767.1737               776.8502               787.2605
 Red. masses --      4.8052                 6.6584                 4.5438
 Frc consts  --      1.6663                 2.3675                 1.6592
 IR Inten    --      2.5022                26.7566                12.9062

                     37                     38                     39
                      A                      A                      A
 Frequencies --    847.2423               862.9168               925.8332
 Red. masses --      1.8802                 2.7633                 1.6207
 Frc consts  --      0.7952                 1.2123                 0.8185
 IR Inten    --      5.7379                15.1942               100.3635

                     40                     41                     42
                      A                      A                      A
 Frequencies --    941.2117               946.5887               958.4658
 Red. masses --      1.5458                 1.3576                 2.2486
 Frc consts  --      0.8068                 0.7167                 1.2171
 IR Inten    --      8.9979                48.9563                 7.4548

                     43                     44                     45
                      A                      A                      A
 Frequencies --    973.1156               975.8248               981.2059
 Red. masses --      1.9745                 1.4677                 1.8184
 Frc consts  --      1.1016                 0.8235                 1.0315
 IR Inten    --     68.3557                25.2432                10.4101

                     46                     47                     48
                      A                      A                      A
 Frequencies --   1023.4394              1045.8533              1101.9248
 Red. masses --      2.8219                 1.1024                 2.9388
 Frc consts  --      1.7415                 0.7104                 2.1025
 IR Inten    --     30.2393                 9.4326                36.6550

                     49                     50                     51
                      A                      A                      A
 Frequencies --   1122.9938              1142.6308              1147.0209
 Red. masses --      1.4677                 1.7540                 2.2118
 Frc consts  --      1.0905                 1.3493                 1.7145
 IR Inten    --     16.2840               118.8781                12.9613

                     52                     53                     54
                      A                      A                      A
 Frequencies --   1183.6489              1217.9488              1234.6879
 Red. masses --      1.5116                 1.5478                 1.7894
 Frc consts  --      1.2477                 1.3528                 1.6072
 IR Inten    --    124.3517                 3.6517                93.7875

                     55                     56                     57
                      A                      A                      A
 Frequencies --   1260.2104              1283.2808              1292.1436
 Red. masses --      1.3951                 1.7317                 2.0516
 Frc consts  --      1.3054                 1.6802                 2.0182
 IR Inten    --      3.9750                51.6456               252.9554

                     58                     59                     60
                      A                      A                      A
 Frequencies --   1307.2061              1336.2057              1344.9321
 Red. masses --      2.6974                 1.2467                 2.8660
 Frc consts  --      2.7157                 1.3115                 3.0544
 IR Inten    --     38.8236                 4.8811                97.4323

                     61                     62                     63
                      A                      A                      A
 Frequencies --   1357.9900              1363.9267              1389.0933
 Red. masses --      2.7585                 1.3929                 1.6345
 Frc consts  --      2.9972                 1.5267                 1.8583
 IR Inten    --     47.9760                 4.5436                58.5212

                     64                     65                     66
                      A                      A                      A
 Frequencies --   1419.7469              1441.1349              1451.5026
 Red. masses --      2.2330                 1.3942                 2.2187
 Frc consts  --      2.6519                 1.7060                 2.7542
 IR Inten    --     73.0439                 5.9265                36.2373

                     67                     68                     69
                      A                      A                      A
 Frequencies --   1477.3947              1497.8269              1511.1361
 Red. masses --      1.1797                 2.9009                 1.1203
 Frc consts  --      1.5171                 3.8345                 1.5073
 IR Inten    --      2.6122                27.2697                 8.8187

                     70                     71                     72
                      A                      A                      A
 Frequencies --   1548.5455              1636.2771              1684.8191
 Red. masses --      3.6015                 4.4736                 6.1612
 Frc consts  --      5.0885                 7.0570                10.3043
 IR Inten    --    281.6722                38.6412                59.4012

                     73                     74                     75
                      A                      A                      A
 Frequencies --   1703.9634              1733.7625              1779.1995
 Red. masses --      1.0887                 4.4462                 8.4270
 Frc consts  --      1.8624                 7.8744                15.7171
 IR Inten    --     26.8460                 7.9733               347.3486

                     76                     77                     78
                      A                      A                      A
 Frequencies --   1826.7064              3044.7126              3104.0801
 Red. masses --      9.7294                 1.0643                 1.0907
 Frc consts  --     19.1282                 5.8130                 6.1921
 IR Inten    --    321.3052                18.9636                 8.6297

                     79                     80                     81
                      A                      A                      A
 Frequencies --   3117.6126              3146.4559              3155.7736
 Red. masses --      1.0923                 1.0796                 1.0708
 Frc consts  --      6.2552                 6.2975                 6.2832
 IR Inten    --     22.8132                22.9438                 2.5864

                     82                     83                     84
                      A                      A                      A
 Frequencies --   3204.8416              3227.1873              3239.6161
 Red. masses --      1.0895                 1.0941                 1.1152
 Frc consts  --      6.5928                 6.7137                 6.8960
 IR Inten    --      5.5895                 3.7449                11.1153

                     85                     86                     87
                      A                      A                      A
 Frequencies --   3257.3595              3445.8813              3529.4320
 Red. masses --      1.0911                 1.0498                 1.0912
 Frc consts  --      6.8207                 7.3445                 8.0087
 IR Inten    --      1.8018                 2.3996                 1.8940

                     88                     89                     90
                      A                      A                      A
 Frequencies --   3560.8609              3630.0456              3697.3881
 Red. masses --      1.0751                 1.0652                 1.0641
 Frc consts  --      8.0316                 8.2701                 8.5712
 IR Inten    --     22.6977               274.1187                70.8417

 - Thermochemistry -
 -------------------
 Temperature   298.150 Kelvin.  Pressure   1.00000 Atm.
 Atom     1 has atomic number  6 and mass  12.00000

 Molecular mass:   250.09536 amu.
 Principal axes and moments of inertia in atomic units:
                           1         2         3
     Eigenvalues --  2641.573986609.428717817.22640
           X            0.99998   0.00167  -0.00651
           Y           -0.00172   0.99997  -0.00740
           Z            0.00650   0.00741   0.99995
 This molecule is an asymmetric top.
 Rotational symmetry number  1.
 Warning -- assumption of classical behavior for rotation
           may cause significant error
 Rotational temperatures (Kelvin)      0.03279     0.01310     0.01108
 Rotational constants (GHZ):           0.68321     0.27306     0.23087
 Zero-point vibrational energy     670134.3 (Joules/Mol)
                                  160.16594 (Kcal/Mol)
 Warning -- explicit consideration of  28 degrees of freedom as
           vibrations may cause significant error
 Vibrational temperatures:     27.16    55.88    73.07    88.13   108.19
          (Kelvin)            120.70   146.96   197.21   260.64   274.96
                              323.83   394.60   407.74   455.31   489.72
                              516.18   526.61   576.56   595.27   600.56
                              636.73   660.38   761.29   772.81   804.61
                              823.16   863.32   890.72   919.81   939.01
                              951.67  1036.07  1060.88  1103.79  1117.71
                             1132.69  1218.99  1241.54  1332.07  1354.19
                             1361.93  1379.02  1400.10  1403.99  1411.74
                             1472.50  1504.75  1585.42  1615.74  1643.99
                             1650.31  1703.01  1752.36  1776.44  1813.16
                             1846.35  1859.11  1880.78  1922.50  1935.06
                             1953.84  1962.39  1998.60  2042.70  2073.47
                             2088.39  2125.64  2155.04  2174.19  2228.01
                             2354.24  2424.08  2451.62  2494.50  2559.87
                             2628.22  4380.66  4466.08  4485.55  4527.05
                             4540.45  4611.05  4643.20  4661.08  4686.61
                             4957.85  5078.07  5123.28  5222.83  5319.72

 Zero-point correction=                           0.255241 (Hartree/Particle)
 Thermal correction to Energy=                    0.272607
 Thermal correction to Enthalpy=                  0.273551
 Thermal correction to Gibbs Free Energy=         0.208422
 Sum of electronic and zero-point Energies=           -875.910779
 Sum of electronic and thermal Energies=              -875.893413
 Sum of electronic and thermal Enthalpies=            -875.892469
 Sum of electronic and thermal Free Energies=         -875.957598

                     E (Thermal)             CV                S
                      KCal/Mol        Cal/Mol-Kelvin    Cal/Mol-Kelvin
 Total                  171.063             65.418            137.076
 Electronic               0.000              0.000              0.000
 Translational            0.889              2.981             42.450
 Rotational               0.889              2.981             33.278
 Vibrational            169.286             59.456             61.347
 Vibration     1          0.593              1.986              6.749
 Vibration     2          0.594              1.981              5.318
 Vibration     3          0.595              1.977              4.786
 Vibration     4          0.597              1.973              4.416
 Vibration     5          0.599              1.966              4.013
 Vibration     6          0.601              1.960              3.798
 Vibration     7          0.604              1.947              3.413
 Vibration     8          0.614              1.916              2.844
 Vibration     9          0.630              1.865              2.316
 Vibration    10          0.634              1.852              2.217
 Vibration    11          0.650              1.803              1.918
 Vibration    12          0.677              1.721              1.569
 Vibration    13          0.682              1.704              1.513
 Vibration    14          0.703              1.642              1.328
 Vibration    15          0.720              1.595              1.210
 Vibration    16          0.734              1.557              1.127
 Vibration    17          0.739              1.542              1.096
 Vibration    18          0.767              1.469              0.960
 Vibration    19          0.777              1.440              0.914
 Vibration    20          0.780              1.432              0.901
 Vibration    21          0.802              1.377              0.819
 Vibration    22          0.817              1.341              0.769
 Vibration    23          0.884              1.186              0.589
 Vibration    24          0.892              1.168              0.571
 Vibration    25          0.915              1.120              0.525
 Vibration    26          0.928              1.092              0.500
 Vibration    27          0.958              1.032              0.450
 Vibration    28          0.979              0.992              0.418

 Optimization completed.
    -- Stationary point found.
 Normal termination of Gaussian 16 at Fri Dec 11 22:29:35 2020.

 ----------------------------------------------------------------------
 # B3LYP/6-311++G(d,p) empiricaldispersion=gd3bj scf=xqc pop=npa geom=c
 heck
 ----------------------------------------------------------------------

 --------------------------------------
 CID_81775427_JID_8815_Energie_neutraal
 --------------------------------------
 Structure from the checkpoint file:  "JID_8815.chk"
 Charge =  0 Multiplicity = 1

 SCF Done:  E(RB3LYP) =  -876.440357142     A.U. after   16 cycles
 Normal termination of Gaussian 16 at Fri Dec 11 22:34:33 2020.

 ----------------------------------------------------------------------
 # B3LYP/6-311++G(d,p) empiricaldispersion=gd3bj scf=xqc pop=npa geom=c
 heck
 ----------------------------------------------------------------------

 ------------------------------------
 CID_81775427_JID_8815_Energie_kation
 ------------------------------------
 Structure from the checkpoint file:  "JID_8815.chk"
 Charge =  1 Multiplicity = 2

 SCF Done:  E(UB3LYP) =  -876.131823132     A.U. after   32 cycles
 Normal termination of Gaussian 16 at Fri Dec 11 22:47:59 2020.
 Gaussian 16:  ES64L-G16RevA.03 25-Dec-2016

 ----------------------------------------------------------------------
 # B3LYP/6-311++G(d,p) empiricaldispersion=gd3bj scf=xqc pop=npa geom=c
 heck
 ----------------------------------------------------------------------

 -----------------------------------
 CID_81775427_JID_8815_Energie_anion
 -----------------------------------
 Structure from the checkpoint file:  "JID_8815.chk"
 Charge = -1 Multiplicity = 2

                         Standard orientation:
 ---------------------------------------------------------------------
 Center     Atomic      Atomic             Coordinates (Angstroms)
 Number     Number       Type             X           Y           Z
 ---------------------------------------------------------------------
      1          6           0       -0.524088   -2.730041    0.880900
      2          6           0       -1.554259   -2.166357    0.249475
      3          6           0       -2.678456   -1.432242    0.923950
      4          6           0       -2.617167    0.101493    0.737834
      5          6           0       -2.665787    0.437144   -0.760758
      6          8           0       -3.710999    0.321232   -1.390685
      7          7           0       -1.515038    0.872678   -1.374869
      8          6           0       -0.223179    1.022786   -0.785933
      9          6           0        0.717218    0.010153   -0.879058
     10          6           0        1.984358    0.127643   -0.284127
     11          6           0        2.309216    1.312567    0.420583
     12          6           0        1.353956    2.339397    0.503463
     13          6           0        0.112059    2.197562   -0.091776
     14          8           0        3.485644    1.542614    1.036479
     15          6           0        2.870477   -1.043382   -0.415845
     16          8           0        2.595542   -2.090149   -0.961834
     17          8           0        4.105092   -0.861402    0.162370
     18          7           0       -3.747232    0.704329    1.449280
     19          1           0       -0.447167   -2.710977    1.966514
     20          1           0        0.283228   -3.216329    0.340602
     21          1           0       -1.594888   -2.208249   -0.839545
     22          1           0       -3.643229   -1.770758    0.522633
     23          1           0       -2.679741   -1.625022    2.001245
     24          1           0       -1.690969    0.467102    1.187669
     25          1           0       -1.620548    1.030463   -2.371564
     26          1           0        0.483621   -0.908105   -1.401284
     27          1           0        1.621353    3.239300    1.046348
     28          1           0       -0.622303    2.994511   -0.021932
     29          1           0        4.067121    0.767459    0.916896
     30          1           0        4.598761   -1.692113    0.030779
     31          1           0       -3.643977    1.719174    1.443917
     32          1           0       -4.583689    0.515775    0.893957
 ---------------------------------------------------------------------

 SCF Done:  E(UB3LYP) =  -876.461864902     A.U. after   23 cycles

 The electronic state is 2-A.
 Alpha  occ. eigenvalues --  -19.03736 -19.01436 -18.98220 -18.94980 -14.22596
 Alpha  occ. eigenvalues --  -14.19843 -10.16081 -10.13329 -10.10110 -10.09599
 Alpha  occ. eigenvalues --  -10.07006 -10.06784 -10.06608 -10.05283 -10.02956
 Alpha  occ. eigenvalues --  -10.02522 -10.02519 -10.02462  -0.96826  -0.93338
 Alpha  occ. eigenvalues --   -0.93047  -0.86985  -0.81176  -0.79169  -0.70744
 Alpha  occ. eigenvalues --   -0.68917  -0.62380  -0.61603  -0.60180  -0.54346
 Alpha  occ. eigenvalues --   -0.53042  -0.49233  -0.46651  -0.46020  -0.43651
 Alpha  occ. eigenvalues --   -0.42109  -0.41544  -0.40304  -0.36831  -0.36240
 Alpha  occ. eigenvalues --   -0.35351  -0.34747  -0.33908  -0.32796  -0.31721
 Alpha  occ. eigenvalues --   -0.31197  -0.30395  -0.29517  -0.29457  -0.28014
 Alpha  occ. eigenvalues --   -0.27372  -0.26125  -0.25747  -0.25053  -0.24935
 Alpha  occ. eigenvalues --   -0.23682  -0.21339  -0.20467  -0.19254  -0.17146
 Alpha  occ. eigenvalues --   -0.15613  -0.15020  -0.14177  -0.13894  -0.12431
 Alpha  occ. eigenvalues --   -0.09604   0.03990
 Alpha virt. eigenvalues --    0.08123   0.08545   0.09288   0.09836   0.10136
 Alpha virt. eigenvalues --    0.10811   0.11213   0.11427   0.11925   0.12671
 Alpha virt. eigenvalues --    0.13084   0.13233   0.13472   0.14480   0.14947

  Beta  occ. eigenvalues --  -19.03637 -19.01384 -18.98216 -18.94637 -14.22586
  Beta  occ. eigenvalues --  -14.19838 -10.16080 -10.12972 -10.10109 -10.09446
  Beta  occ. eigenvalues --  -10.07002 -10.06922 -10.06611 -10.05271 -10.02846
  Beta  occ. eigenvalues --  -10.02456 -10.02240 -10.02094  -0.96471  -0.93332
  Beta  occ. eigenvalues --   -0.92894  -0.86448  -0.81178  -0.79158  -0.70341
  Beta  occ. eigenvalues --   -0.68908  -0.61728  -0.61564  -0.59893  -0.54311
  Beta  occ. eigenvalues --   -0.52294  -0.49116  -0.46634  -0.45707  -0.43633
  Beta  occ. eigenvalues --   -0.41809  -0.41490  -0.40219  -0.36821  -0.35976
  Beta  occ. eigenvalues --   -0.35293  -0.34650  -0.33789  -0.32557  -0.31129
  Beta  occ. eigenvalues --   -0.30377  -0.30298  -0.29453  -0.29217  -0.27752
  Beta  occ. eigenvalues --   -0.26603  -0.26010  -0.25589  -0.24944  -0.24880
  Beta  occ. eigenvalues --   -0.23670  -0.20429  -0.20276  -0.17821  -0.17132
  Beta  occ. eigenvalues --   -0.15482  -0.14903  -0.14130  -0.13565  -0.10618
  Beta  occ. eigenvalues --   -0.08726
  Beta virt. eigenvalues --    0.08088   0.08538   0.09148   0.09773   0.09983
  Beta virt. eigenvalues --    0.10395   0.10878   0.11201   0.11659   0.12051
  Beta virt. eigenvalues --    0.12742   0.13198   0.13231   0.13681   0.14614

 Mulliken charges and spin densities:
               1          2
     1  C   -0.590574  -0.000497
     2  C    0.359146   0.016073
     3  C   -0.591359  -0.022198
     4  C   -0.351569   0.029321
     5  C   -0.248539  -0.001748
     6  O   -0.324934   0.001627
     7  N   -0.072773   0.006747
     8  C   -0.956873  -0.118790
     9  C   -0.061529   0.284104
    10  C    0.710707   0.082974
    11  C   -0.643708   0.059700
    12  C   -0.050687   0.007566
    13  C    0.264412   0.327931
    14  O   -0.310699   0.015334
    15  C   -0.052129   0.206515
    16  O   -0.424571   0.124053
    17  O   -0.324506   0.015341
    18  N   -0.192414  -0.017725
    19  H    0.110858  -0.000307
    20  H    0.134122   0.015190
    21  H    0.174967  -0.001682
    22  H    0.150456   0.000632
    23  H    0.175612   0.000544
    24  H    0.283106   0.004153
    25  H    0.289146  -0.002959
    26  H    0.217217  -0.008117
    27  H    0.147149  -0.001136
    28  H    0.127564  -0.031943
    29  H    0.309339  -0.000280
    30  H    0.283877  -0.001771
    31  H    0.218480   0.010027
    32  H    0.240709   0.001319
 Sum of Mulliken charges =  -1.00000   1.00000

 Dipole moment (field-independent basis, Debye):
    X=             -0.9300    Y=              0.0967    Z=              1.2383  Tot=              1.5516
 Quadrupole moment (field-independent basis, Debye-Ang):
   XX=           -149.0004   YY=           -127.9347   ZZ=           -121.5576
   XY=             -5.2808   XZ=              0.1120   YZ=             -4.7172

 Summary of Natural Population Analysis:

                                       Natural Population
                Natural  -----------------------------------------------
    Atom  No    Charge         Core      Valence    Rydberg      Total
 -----------------------------------------------------------------------
      C    1   -0.18074      0.99957     2.17390    0.00727     3.18074
      C    2   -0.09151      0.99957     2.08283    0.00910     3.09151
      C    3   -0.20477      0.99960     2.19582    0.00936     3.20477
      C    4   -0.05452      0.99955     2.04005    0.01492     3.05452
      C    5    0.33904      0.99965     1.63686    0.02445     2.66096
      O    6   -0.34461      0.99988     3.33774    0.00699     4.34461
      N    7   -0.31161      0.99964     2.79889    0.01308     3.81161
      C    8    0.00058      0.99944     1.98842    0.01156     2.99942
      C    9   -0.01290      0.99950     2.00551    0.00789     3.01290
      C   10   -0.10841      0.99942     2.09764    0.01135     3.10841
      C   11    0.21042      0.99940     1.77810    0.01208     2.78958
      C   12   -0.13771      0.99954     2.12897    0.00919     3.13771
      C   13   -0.01498      0.99953     2.00752    0.00793     3.01498
      O   14   -0.34833      0.99987     3.34160    0.00685     4.34833
      C   15    0.43947      0.99966     1.53528    0.02559     2.56053
      O   16   -0.29929      0.99987     3.29262    0.00680     4.29929
      O   17   -0.37626      0.99986     3.36879    0.00760     4.37626
      N   18   -0.41663      0.99978     2.90748    0.00938     3.91663
      H   19    0.08444      0.00000     0.41436    0.00119     0.41556
      H   20    0.10379      0.00000     0.39505    0.00116     0.39621
      H   21    0.09393      0.00000     0.40471    0.00137     0.40607
      H   22    0.10128      0.00000     0.39735    0.00136     0.39872
      H   23    0.10156      0.00000     0.39697    0.00147     0.39844
      H   24    0.11116      0.00000     0.38746    0.00138     0.38884
      H   25    0.19045      0.00000     0.30774    0.00181     0.30955
      H   26    0.10571      0.00000     0.39282    0.00148     0.39429
      H   27    0.09510      0.00000     0.40315    0.00175     0.40490
      H   28    0.08871      0.00000     0.41036    0.00093     0.41129
      H   29    0.24800      0.00000     0.24947    0.00253     0.25200
      H   30    0.23813      0.00000     0.25898    0.00289     0.26187
      H   31    0.17330      0.00000     0.32528    0.00142     0.32670
      H   32    0.17717      0.00000     0.32101    0.00183     0.32283
 =======================================================================
   * Total *   -0.00000     17.99331    47.78272    0.22396    66.00000

 Normal termination of Gaussian 16 at Fri Dec 11 22:57:41 2020.
