 Gaussian 16, Revision A.03,

 -----------------------------------------------------------
 # opt freq B3LYP/6-31G(d) empiricaldispersion=gd3bj scf=xqc
 -----------------------------------------------------------

 ------------------------------
 CID_81923894_JID_8339_neutraal
 ------------------------------
 Symbolic Z-matrix:
 Charge =  0 Multiplicity = 1

 SCF Done:  E(RB3LYP) =  -750.000292224     A.U. after   15 cycles
 SCF Done:  E(RB3LYP) =  -750.004113720     A.U. after   12 cycles
 SCF Done:  E(RB3LYP) =  -750.003424834     A.U. after   13 cycles
 SCF Done:  E(RB3LYP) =  -750.004796786     A.U. after   12 cycles
 SCF Done:  E(RB3LYP) =  -750.005032152     A.U. after   12 cycles
 SCF Done:  E(RB3LYP) =  -750.004736664     A.U. after   13 cycles
 SCF Done:  E(RB3LYP) =  -750.005730052     A.U. after   12 cycles
 SCF Done:  E(RB3LYP) =  -750.005234469     A.U. after   15 cycles
 SCF Done:  E(RB3LYP) =  -750.006536282     A.U. after   13 cycles
 SCF Done:  E(RB3LYP) =  -750.007405653     A.U. after   12 cycles
 SCF Done:  E(RB3LYP) =  -750.007947236     A.U. after    9 cycles
 SCF Done:  E(RB3LYP) =  -750.007947449     A.U. after   10 cycles
 SCF Done:  E(RB3LYP) =  -750.007948254     A.U. after   10 cycles
 SCF Done:  E(RB3LYP) =  -750.007948538     A.U. after    9 cycles
 SCF Done:  E(RB3LYP) =  -750.007948740     A.U. after    9 cycles
 SCF Done:  E(RB3LYP) =  -750.007948739     A.U. after    6 cycles
 Optimization completed.
    -- Stationary point found.
 Normal termination of Gaussian 16 at Mon Dec 14 13:40:38 2020.

 --------------------------------------------------------------------
 #N Geom=AllCheck Guess=TCheck SCRF=Check GenChk RB3LYP/6-31G(d) Freq
 --------------------------------------------------------------------

 Structure from the checkpoint file:  "JID_8339.chk"
 ------------------------------
 CID_81923894_JID_8339_neutraal
 ------------------------------
 Charge =  0 Multiplicity = 1

 SCF Done:  E(RB3LYP) =  -750.007948739     A.U. after    1 cycles

  Exact polarizability: 179.946 -11.690 185.144  -0.572   0.691 138.446
 Approx polarizability: 242.189 -26.829 325.131  -1.097  -4.138 228.194

                      1                      2                      3
                      A                      A                      A
 Frequencies --     23.7292                24.4006                30.2254
 Red. masses --      1.3139                 2.3441                 4.1967
 Frc consts  --      0.0004                 0.0008                 0.0023
 IR Inten    --      0.6756                 0.9474                 0.1039

                      4                      5                      6
                      A                      A                      A
 Frequencies --     57.8999               105.5542               125.6420
 Red. masses --      4.1624                 4.1524                 3.1985
 Frc consts  --      0.0082                 0.0273                 0.0297
 IR Inten    --      0.3340                 1.0553                 2.5092

                      7                      8                      9
                      A                      A                      A
 Frequencies --    148.9764               165.9121               180.6182
 Red. masses --      4.5697                 3.6831                 1.3227
 Frc consts  --      0.0598                 0.0597                 0.0254
 IR Inten    --      0.1553                 1.2113                 0.7359

                     10                     11                     12
                      A                      A                      A
 Frequencies --    215.5790               220.4630               235.7560
 Red. masses --      1.7337                 1.9829                 1.9063
 Frc consts  --      0.0475                 0.0568                 0.0624
 IR Inten    --      0.5089                 0.4181                 0.2268

                     13                     14                     15
                      A                      A                      A
 Frequencies --    263.6248               291.9548               326.4488
 Red. masses --      3.7046                 4.4956                 2.6295
 Frc consts  --      0.1517                 0.2258                 0.1651
 IR Inten    --      5.5895                 0.3779                 0.6563

                     16                     17                     18
                      A                      A                      A
 Frequencies --    353.1505               389.2852               418.2371
 Red. masses --      2.4573                 3.3784                 3.3739
 Frc consts  --      0.1806                 0.3016                 0.3477
 IR Inten    --      7.9440                 0.0425                 0.4466

                     19                     20                     21
                      A                      A                      A
 Frequencies --    461.1535               477.8321               495.6452
 Red. masses --      2.7066                 4.1901                 4.6293
 Frc consts  --      0.3391                 0.5637                 0.6700
 IR Inten    --      1.0114                 4.6477                 1.0590

                     22                     23                     24
                      A                      A                      A
 Frequencies --    514.4265               528.2007               537.0320
 Red. masses --      3.5945                 3.1588                 5.3200
 Frc consts  --      0.5605                 0.5192                 0.9040
 IR Inten    --     13.2570                 0.0441                 3.8679

                     25                     26                     27
                      A                      A                      A
 Frequencies --    544.3548               551.0730               595.9798
 Red. masses --      4.8940                 4.3564                 4.5279
 Frc consts  --      0.8544                 0.7795                 0.9476
 IR Inten    --      1.7773                 0.1459                32.4790

                     28                     29                     30
                      A                      A                      A
 Frequencies --    664.6832               714.4529               747.9699
 Red. masses --      4.0885                 3.9266                 5.1226
 Frc consts  --      1.0643                 1.1809                 1.6885
 IR Inten    --     18.4467                 1.0269                 2.4266

                     31                     32                     33
                      A                      A                      A
 Frequencies --    758.2257               785.4358               791.1187
 Red. masses --      4.5786                 1.2409                 4.1071
 Frc consts  --      1.5509                 0.4510                 1.5145
 IR Inten    --      1.6578                20.0926                 5.5584

                     34                     35                     36
                      A                      A                      A
 Frequencies --    845.0267               868.1638               887.9784
 Red. masses --      1.6772                 2.5585                 3.5361
 Frc consts  --      0.7056                 1.1361                 1.6428
 IR Inten    --      9.0967                 3.9957                13.2530

                     37                     38                     39
                      A                      A                      A
 Frequencies --    899.8518               901.7365               944.8970
 Red. masses --      1.3120                 3.0091                 1.3624
 Frc consts  --      0.6259                 1.4416                 0.7167
 IR Inten    --      0.0172                 2.4115                 2.9649

                     40                     41                     42
                      A                      A                      A
 Frequencies --    966.4372               977.3134               985.5654
 Red. masses --      1.2702                 2.0477                 1.4603
 Frc consts  --      0.6990                 1.1523                 0.8357
 IR Inten    --      0.0296                 1.8271                 0.6121

                     43                     44                     45
                      A                      A                      A
 Frequencies --   1022.2138              1026.9911              1029.6855
 Red. masses --      6.8926                 1.4837                 1.5672
 Frc consts  --      4.2434                 0.9220                 0.9790
 IR Inten    --      5.8358                 3.7476                 4.4926

                     46                     47                     48
                      A                      A                      A
 Frequencies --   1065.4722              1071.7007              1076.9115
 Red. masses --      1.6612                 1.5853                 1.5620
 Frc consts  --      1.1111                 1.0728                 1.0673
 IR Inten    --     15.4341                 2.9335                10.7102

                     49                     50                     51
                      A                      A                      A
 Frequencies --   1079.0423              1102.4787              1130.5638
 Red. masses --      1.5231                 2.1790                 1.9157
 Frc consts  --      1.0448                 1.5604                 1.4426
 IR Inten    --      8.0807                 8.4426                 9.0871

                     52                     53                     54
                      A                      A                      A
 Frequencies --   1143.3489              1190.9489              1202.5009
 Red. masses --      1.5287                 1.5099                 1.4223
 Frc consts  --      1.1774                 1.2618                 1.2117
 IR Inten    --      5.1538                32.0388                 1.1386

                     55                     56                     57
                      A                      A                      A
 Frequencies --   1203.9838              1241.4253              1286.2042
 Red. masses --      2.3381                 1.8195                 3.4077
 Frc consts  --      1.9969                 1.6521                 3.3214
 IR Inten    --      5.2785                26.3705                 1.7220

                     58                     59                     60
                      A                      A                      A
 Frequencies --   1294.7639              1316.5944              1321.9861
 Red. masses --      1.6661                 3.4558                 1.6538
 Frc consts  --      1.6457                 3.5294                 1.7029
 IR Inten    --      5.1420                53.8908                 0.2897

                     61                     62                     63
                      A                      A                      A
 Frequencies --   1329.8642              1334.4125              1357.7117
 Red. masses --      2.0456                 2.9574                 3.2392
 Frc consts  --      2.1315                 3.1027                 3.5180
 IR Inten    --      0.0687                58.9256                16.1604

                     64                     65                     66
                      A                      A                      A
 Frequencies --   1434.0660              1441.1329              1449.0000
 Red. masses --      1.2478                 1.2856                 1.2284
 Frc consts  --      1.5120                 1.5731                 1.5196
 IR Inten    --      6.0819                 0.1074                 0.3804

                     67                     68                     69
                      A                      A                      A
 Frequencies --   1451.0659              1484.0325              1489.7880
 Red. masses --      2.9780                 2.2062                 1.1182
 Frc consts  --      3.6945                 2.8627                 1.4622
 IR Inten    --     21.0738                 2.3546                 8.3904

                     70                     71                     72
                      A                      A                      A
 Frequencies --   1510.5931              1515.5701              1517.3388
 Red. masses --      1.6591                 1.1115                 1.0549
 Frc consts  --      2.2306                 1.5043                 1.4310
 IR Inten    --      0.6181                 9.5246                 6.3082

                     73                     74                     75
                      A                      A                      A
 Frequencies --   1519.9575              1524.9518              1527.3264
 Red. masses --      1.1305                 1.2759                 1.8636
 Frc consts  --      1.5388                 1.7481                 2.5613
 IR Inten    --      5.6691                 3.6844                11.0905

                     76                     77                     78
                      A                      A                      A
 Frequencies --   1531.2662              1549.9110              1620.3473
 Red. masses --      1.3133                 1.1249                 6.0277
 Frc consts  --      1.8143                 1.5921                 9.3244
 IR Inten    --     20.5948                 8.8092                 4.4560

                     79                     80                     81
                      A                      A                      A
 Frequencies --   1645.4906              1655.2080              1656.1915
 Red. masses --      6.5872                 5.7450                 5.2812
 Frc consts  --     10.5086                 9.2736                 8.5350
 IR Inten    --      2.5160                52.4833                 0.4097

                     82                     83                     84
                      A                      A                      A
 Frequencies --   1780.4387              3042.6594              3050.5245
 Red. masses --     11.6258                 1.0407                 1.0398
 Frc consts  --     21.7134                 5.6765                 5.7010
 IR Inten    --    149.0707                35.4879                17.5786

                     85                     86                     87
                      A                      A                      A
 Frequencies --   3054.2872              3077.4721              3103.8971
 Red. masses --      1.0380                 1.0639                 1.0949
 Frc consts  --      5.7050                 5.9367                 6.2152
 IR Inten    --     20.2387                14.0719                14.9927

                     88                     89                     90
                      A                      A                      A
 Frequencies --   3109.0983              3110.6196              3130.9358
 Red. masses --      1.0979                 1.0963                 1.1027
 Frc consts  --      6.2531                 6.2499                 6.3690
 IR Inten    --     20.6222                14.1954                11.1899

                     91                     92                     93
                      A                      A                      A
 Frequencies --   3131.3465              3137.5782              3139.9704
 Red. masses --      1.1027                 1.1034                 1.0970
 Frc consts  --      6.3703                 6.3999                 6.3723
 IR Inten    --     17.3552                12.0740                 8.0457

                     94                     95                     96
                      A                      A                      A
 Frequencies --   3173.9076              3175.2316              3182.3122
 Red. masses --      1.0853                 1.0886                 1.0904
 Frc consts  --      6.4417                 6.4662                 6.5062
 IR Inten    --      0.4771                13.9686                32.0772

                     97                     98                     99
                      A                      A                      A
 Frequencies --   3200.8872              3201.1806              3222.6748
 Red. masses --      1.0947                 1.0962                 1.0909
 Frc consts  --      6.6081                 6.6188                 6.6755
 IR Inten    --     20.9934                37.0654                 1.3158

 - Thermochemistry -
 -------------------
 Temperature   298.150 Kelvin.  Pressure   1.00000 Atm.
 Atom     1 has atomic number  6 and mass  12.00000

 Molecular mass:   239.13101 amu.
 Principal axes and moments of inertia in atomic units:
                           1         2         3
     Eigenvalues --  2735.482876140.363306860.96122
           X            0.99989  -0.00147  -0.01482
           Y            0.00241   0.99800   0.06321
           Z            0.01470  -0.06323   0.99789
 This molecule is an asymmetric top.
 Rotational symmetry number  1.
 Warning -- assumption of classical behavior for rotation
           may cause significant error
 Rotational temperatures (Kelvin)      0.03166     0.01411     0.01262
 Rotational constants (GHZ):           0.65975     0.29391     0.26304
 Zero-point vibrational energy     767997.0 (Joules/Mol)
                                  183.55569 (Kcal/Mol)
 Warning -- explicit consideration of  27 degrees of freedom as
           vibrations may cause significant error
 Vibrational temperatures:     34.14    35.11    43.49    83.31   151.87
          (Kelvin)            180.77   214.34   238.71   259.87   310.17
                              317.20   339.20   379.30   420.06   469.69
                              508.10   560.09   601.75   663.50   687.49
                              713.12   740.15   759.96   772.67   783.21
                              792.87   857.48   956.33  1027.94  1076.16
                             1090.92  1130.07  1138.24  1215.80  1249.09
                             1277.60  1294.69  1297.40  1359.50  1390.49
                             1406.14  1418.01  1470.74  1477.61  1481.49
                             1532.98  1541.94  1549.44  1552.50  1586.22
                             1626.63  1645.02  1713.51  1730.13  1732.26
                             1786.13  1850.56  1862.88  1894.29  1902.04
                             1913.38  1919.92  1953.44  2063.30  2073.47
                             2084.79  2087.76  2135.19  2143.47  2173.41
                             2180.57  2183.11  2186.88  2194.07  2197.48
                             2203.15  2229.98  2331.32  2367.49  2381.48
                             2382.89  2561.65  4377.71  4389.02  4394.44
                             4427.80  4465.82  4473.30  4475.49  4504.72
                             4505.31  4514.28  4517.72  4566.55  4568.45
                             4578.64  4605.36  4605.78  4636.71

 Zero-point correction=                           0.292515 (Hartree/Particle)
 Thermal correction to Energy=                    0.309340
 Thermal correction to Enthalpy=                  0.310284
 Thermal correction to Gibbs Free Energy=         0.246214
 Sum of electronic and zero-point Energies=           -749.715434
 Sum of electronic and thermal Energies=              -749.698609
 Sum of electronic and thermal Enthalpies=            -749.697664
 Sum of electronic and thermal Free Energies=         -749.761734

                     E (Thermal)             CV                S
                      KCal/Mol        Cal/Mol-Kelvin    Cal/Mol-Kelvin
 Total                  194.114             64.054            134.846
 Electronic               0.000              0.000              0.000
 Translational            0.889              2.981             42.317
 Rotational               0.889              2.981             33.110
 Vibrational            192.336             58.092             59.419
 Vibration     1          0.593              1.985              6.295
 Vibration     2          0.593              1.985              6.239
 Vibration     3          0.594              1.984              5.815
 Vibration     4          0.596              1.974              4.528
 Vibration     5          0.605              1.945              3.349
 Vibration     6          0.611              1.927              3.012
 Vibration     7          0.618              1.904              2.685
 Vibration     8          0.624              1.884              2.481
 Vibration     9          0.630              1.866              2.322
 Vibration    10          0.645              1.817              1.996
 Vibration    11          0.647              1.810              1.955
 Vibration    12          0.655              1.786              1.835
 Vibration    13          0.670              1.740              1.638
 Vibration    14          0.687              1.689              1.463
 Vibration    15          0.710              1.623              1.278
 Vibration    16          0.729              1.569              1.152
 Vibration    17          0.757              1.493              1.003
 Vibration    18          0.781              1.431              0.898
 Vibration    19          0.819              1.336              0.763
 Vibration    20          0.834              1.299              0.716
 Vibration    21          0.851              1.260              0.669
 Vibration    22          0.869              1.218              0.623
 Vibration    23          0.883              1.188              0.591
 Vibration    24          0.892              1.168              0.572
 Vibration    25          0.899              1.152              0.556
 Vibration    26          0.906              1.137              0.542
 Vibration    27          0.954              1.040              0.457

 Optimization completed.
    -- Stationary point found.
 Normal termination of Gaussian 16 at Mon Dec 14 13:57:38 2020.

 ----------------------------------------------------------------------
 # B3LYP/6-311++G(d,p) empiricaldispersion=gd3bj scf=xqc pop=npa geom=c
 heck
 ----------------------------------------------------------------------

 --------------------------------------
 CID_81923894_JID_8339_Energie_neutraal
 --------------------------------------
 Structure from the checkpoint file:  "JID_8339.chk"
 Charge =  0 Multiplicity = 1

 SCF Done:  E(RB3LYP) =  -750.201387628     A.U. after   16 cycles
 Normal termination of Gaussian 16 at Mon Dec 14 14:05:00 2020.

 ----------------------------------------------------------------------
 # B3LYP/6-311++G(d,p) empiricaldispersion=gd3bj scf=xqc pop=npa geom=c
 heck
 ----------------------------------------------------------------------

 ------------------------------------
 CID_81923894_JID_8339_Energie_kation
 ------------------------------------
 Structure from the checkpoint file:  "JID_8339.chk"
 Charge =  1 Multiplicity = 2

 SCF Done:  E(UB3LYP) =  -749.908476289     A.U. after   26 cycles
 Normal termination of Gaussian 16 at Mon Dec 14 14:22:21 2020.
 Gaussian 16:  ES64L-G16RevA.03 25-Dec-2016

 ----------------------------------------------------------------------
 # B3LYP/6-311++G(d,p) empiricaldispersion=gd3bj scf=xqc pop=npa geom=c
 heck
 ----------------------------------------------------------------------

 -----------------------------------
 CID_81923894_JID_8339_Energie_anion
 -----------------------------------
 Structure from the checkpoint file:  "JID_8339.chk"
 Charge = -1 Multiplicity = 2

                         Standard orientation:
 ---------------------------------------------------------------------
 Center     Atomic      Atomic             Coordinates (Angstroms)
 Number     Number       Type             X           Y           Z
 ---------------------------------------------------------------------
      1          6           0       -4.712339    0.222101    1.269177
      2          6           0       -3.432146   -0.232531    0.618234
      3          6           0       -2.554308    0.675690    0.022471
      4          6           0       -1.386306    0.208485   -0.584436
      5          7           0       -1.055626   -1.090491   -0.643552
      6          6           0       -1.896816   -1.959828   -0.079967
      7          6           0       -3.077944   -1.584749    0.561105
      8          6           0       -0.447094    1.201037   -1.213787
      9          8           0       -0.813598    2.350623   -1.396997
     10          6           0        0.952548    0.730531   -1.593983
     11          6           0        1.779532    0.227211   -0.420834
     12          6           0        2.263663   -1.098390   -0.403741
     13          6           0        3.022903   -1.532250    0.687045
     14          6           0        3.312793   -0.678944    1.748073
     15          6           0        2.850717    0.631741    1.716786
     16          6           0        2.085724    1.101719    0.642752
     17          6           0        1.616730    2.538601    0.661385
     18          6           0        1.993334   -2.060841   -1.535459
     19          1           0       -4.610004    1.227900    1.687651
     20          1           0       -5.528145    0.253740    0.535722
     21          1           0       -5.017286   -0.458086    2.070531
     22          1           0       -2.752799    1.742216    0.018569
     23          1           0       -1.611914   -3.008555   -0.137124
     24          1           0       -3.713592   -2.341711    1.012283
     25          1           0        0.844065   -0.060935   -2.338479
     26          1           0        1.434592    1.584961   -2.080412
     27          1           0        3.393673   -2.554094    0.697099
     28          1           0        3.905446   -1.031303    2.587970
     29          1           0        3.084999    1.310850    2.532840
     30          1           0        1.725186    3.025806   -0.312730
     31          1           0        0.556970    2.623129    0.929227
     32          1           0        2.187762    3.114689    1.395622
     33          1           0        2.416887   -1.705925   -2.483771
     34          1           0        2.440055   -3.037175   -1.324625
     35          1           0        0.916312   -2.194550   -1.678458
 ---------------------------------------------------------------------

 SCF Done:  E(UB3LYP) =  -750.219908122     A.U. after   26 cycles

 The electronic state is 2-A.
 Alpha  occ. eigenvalues --  -18.92101 -14.14672 -10.06304 -10.06090 -10.05984
 Alpha  occ. eigenvalues --  -10.05833 -10.05630 -10.05609 -10.05570 -10.05250
 Alpha  occ. eigenvalues --  -10.05185 -10.04792 -10.04548 -10.04385 -10.03485
 Alpha  occ. eigenvalues --  -10.03154 -10.02133 -10.01955  -0.86421  -0.78850
 Alpha  occ. eigenvalues --   -0.74332  -0.67810  -0.66354  -0.65738  -0.61552
 Alpha  occ. eigenvalues --   -0.59502  -0.58118  -0.56145  -0.55468  -0.49296
 Alpha  occ. eigenvalues --   -0.46683  -0.46119  -0.45556  -0.39458  -0.37881
 Alpha  occ. eigenvalues --   -0.36746  -0.34947  -0.34626  -0.32419  -0.31214
 Alpha  occ. eigenvalues --   -0.30710  -0.30447  -0.29537  -0.29216  -0.29001
 Alpha  occ. eigenvalues --   -0.28526  -0.28114  -0.27653  -0.26472  -0.25978
 Alpha  occ. eigenvalues --   -0.25342  -0.24360  -0.24280  -0.22668  -0.22364
 Alpha  occ. eigenvalues --   -0.21976  -0.20796  -0.19390  -0.13844  -0.12450
 Alpha  occ. eigenvalues --   -0.12293  -0.11749  -0.11592  -0.07817   0.04041
 Alpha virt. eigenvalues --    0.07783   0.08299   0.08835   0.09514   0.10032
 Alpha virt. eigenvalues --    0.10422   0.10661   0.10883   0.11225   0.11519
 Alpha virt. eigenvalues --    0.11770   0.12500   0.13405   0.13460   0.13966

  Beta  occ. eigenvalues --  -18.91526 -14.14412 -10.06094 -10.05984 -10.05958
  Beta  occ. eigenvalues --  -10.05916 -10.05602 -10.05593 -10.05573 -10.05254
  Beta  occ. eigenvalues --  -10.05169 -10.04772 -10.04549 -10.04386 -10.03274
  Beta  occ. eigenvalues --  -10.03181 -10.01863 -10.01842  -0.85386  -0.78388
  Beta  occ. eigenvalues --   -0.74294  -0.67520  -0.66327  -0.65644  -0.61091
  Beta  occ. eigenvalues --   -0.59396  -0.57916  -0.56127  -0.55332  -0.48670
  Beta  occ. eigenvalues --   -0.46519  -0.45967  -0.45529  -0.39040  -0.37796
  Beta  occ. eigenvalues --   -0.36668  -0.34791  -0.34328  -0.32316  -0.31035
  Beta  occ. eigenvalues --   -0.30607  -0.30245  -0.29461  -0.29110  -0.28926
  Beta  occ. eigenvalues --   -0.28439  -0.27883  -0.27527  -0.26379  -0.25608
  Beta  occ. eigenvalues --   -0.24888  -0.24169  -0.23669  -0.22571  -0.21937
  Beta  occ. eigenvalues --   -0.21779  -0.20489  -0.17505  -0.12811  -0.12350
  Beta  occ. eigenvalues --   -0.11942  -0.11377  -0.10031  -0.07300
  Beta virt. eigenvalues --    0.07738   0.08238   0.08793   0.09465   0.09847
  Beta virt. eigenvalues --    0.10102   0.10619   0.10760   0.10967   0.11314
  Beta virt. eigenvalues --    0.11712   0.11940   0.12699   0.13365   0.13452

 Mulliken charges and spin densities:
               1          2
     1  C   -0.340788   0.017972
     2  C    0.635497  -0.001742
     3  C    0.304857   0.084487
     4  C   -0.598190   0.132584
     5  N    0.082133   0.128581
     6  C    0.186916  -0.054194
     7  C   -1.303038   0.240543
     8  C   -0.563474   0.180253
     9  O   -0.355066   0.203708
    10  C   -0.422301  -0.060075
    11  C    0.980375   0.046813
    12  C    0.431556   0.019165
    13  C   -0.420818  -0.003610
    14  C   -0.286715  -0.006377
    15  C   -0.394118   0.017023
    16  C    0.130889   0.009181
    17  C   -0.647827   0.023826
    18  C   -0.725111  -0.011371
    19  H    0.132299   0.000250
    20  H    0.137222   0.007029
    21  H    0.118226   0.007191
    22  H    0.199394  -0.008109
    23  H    0.099376   0.008314
    24  H    0.094437  -0.021467
    25  H    0.117677   0.014777
    26  H    0.183956   0.009141
    27  H    0.103573   0.003976
    28  H    0.125116   0.000923
    29  H    0.106106   0.003043
    30  H    0.160656  -0.000872
    31  H    0.178384   0.000519
    32  H    0.108313   0.000676
    33  H    0.146059   0.001735
    34  H    0.096813   0.002714
    35  H    0.197616   0.003394
 Sum of Mulliken charges =  -1.00000   1.00000

 Dipole moment (field-independent basis, Debye):
    X=              2.6162    Y=             -2.1726    Z=              2.1962  Tot=              4.0483
 Quadrupole moment (field-independent basis, Debye-Ang):
   XX=           -139.0601   YY=           -128.8505   ZZ=           -121.3591
   XY=              0.8236   XZ=             -3.6941   YZ=              7.3612

 Summary of Natural Population Analysis:

                                       Natural Population
                Natural  -----------------------------------------------
    Atom  No    Charge         Core      Valence    Rydberg      Total
 -----------------------------------------------------------------------
      C    1   -0.29111      0.99964     2.28671    0.00476     3.29111
      C    2   -0.01113      0.99952     2.00374    0.00787     3.01113
      C    3   -0.08498      0.99948     2.07783    0.00767     3.08498
      C    4    0.09659      0.99948     1.88819    0.01574     2.90341
      N    5   -0.21017      0.99968     2.69772    0.01277     3.71017
      C    6    0.00363      0.99960     1.98280    0.01397     2.99637
      C    7   -0.07779      0.99951     2.06969    0.00859     3.07779
      C    8    0.30946      0.99963     1.66957    0.02134     2.69054
      O    9   -0.24815      0.99988     3.24150    0.00678     4.24815
      C   10   -0.24221      0.99958     2.23483    0.00780     3.24221
      C   11    0.00258      0.99943     1.98603    0.01197     2.99742
      C   12   -0.00314      0.99948     1.99505    0.00861     3.00314
      C   13   -0.11042      0.99952     2.10208    0.00882     3.11042
      C   14   -0.10664      0.99957     2.09785    0.00922     3.10664
      C   15   -0.10634      0.99952     2.09817    0.00865     3.10634
      C   16   -0.01087      0.99947     2.00394    0.00746     3.01087
      C   17   -0.29610      0.99964     2.29150    0.00496     3.29610
      C   18   -0.29577      0.99965     2.29211    0.00401     3.29577
      H   19    0.09882      0.00000     0.40021    0.00097     0.40118
      H   20    0.09884      0.00000     0.40011    0.00105     0.40116
      H   21    0.09556      0.00000     0.40339    0.00105     0.40444
      H   22    0.10500      0.00000     0.39378    0.00122     0.39500
      H   23    0.07736      0.00000     0.42098    0.00166     0.42264
      H   24    0.08720      0.00000     0.41164    0.00116     0.41280
      H   25    0.11372      0.00000     0.38513    0.00115     0.38628
      H   26    0.10492      0.00000     0.39367    0.00142     0.39508
      H   27    0.09099      0.00000     0.40741    0.00160     0.40901
      H   28    0.09143      0.00000     0.40692    0.00165     0.40857
      H   29    0.09145      0.00000     0.40712    0.00142     0.40855
      H   30    0.10759      0.00000     0.39126    0.00116     0.39241
      H   31    0.11552      0.00000     0.38348    0.00100     0.38448
      H   32    0.09112      0.00000     0.40796    0.00092     0.40888
      H   33    0.09654      0.00000     0.40240    0.00106     0.40346
      H   34    0.09386      0.00000     0.40556    0.00058     0.40614
      H   35    0.12273      0.00000     0.37595    0.00132     0.37727
 =======================================================================
   * Total *    0.00007     17.99227    45.81628    0.19137    63.99993

 Normal termination of Gaussian 16 at Mon Dec 14 14:39:41 2020.
