 Gaussian 16, Revision A.03,

 -----------------------------------------------------------
 # opt freq B3LYP/6-31G(d) empiricaldispersion=gd3bj scf=xqc
 -----------------------------------------------------------

 -------------------------------
 CID_115002566_JID_7162_neutraal
 -------------------------------
 Symbolic Z-matrix:
 Charge =  0 Multiplicity = 1

 SCF Done:  E(RB3LYP) =  -826.851715528     A.U. after   14 cycles
 SCF Done:  E(RB3LYP) =  -826.857033642     A.U. after   12 cycles
 SCF Done:  E(RB3LYP) =  -826.856237766     A.U. after   13 cycles
 SCF Done:  E(RB3LYP) =  -826.857412224     A.U. after   11 cycles
 SCF Done:  E(RB3LYP) =  -826.858067353     A.U. after   12 cycles
 SCF Done:  E(RB3LYP) =  -826.858128342     A.U. after   11 cycles
 SCF Done:  E(RB3LYP) =  -826.858237613     A.U. after   11 cycles
 SCF Done:  E(RB3LYP) =  -826.858204680     A.U. after   11 cycles
 SCF Done:  E(RB3LYP) =  -826.858269064     A.U. after   11 cycles
 SCF Done:  E(RB3LYP) =  -826.858271916     A.U. after    9 cycles
 SCF Done:  E(RB3LYP) =  -826.858273125     A.U. after    9 cycles
 SCF Done:  E(RB3LYP) =  -826.858273836     A.U. after    8 cycles
 SCF Done:  E(RB3LYP) =  -826.858274073     A.U. after    7 cycles
 SCF Done:  E(RB3LYP) =  -826.858274141     A.U. after    7 cycles
 SCF Done:  E(RB3LYP) =  -826.858274184     A.U. after    7 cycles
 Optimization completed.
    -- Stationary point found.
 Normal termination of Gaussian 16 at Fri Dec 11 11:58:26 2020.

 --------------------------------------------------------------------
 #N Geom=AllCheck Guess=TCheck SCRF=Check GenChk RB3LYP/6-31G(d) Freq
 --------------------------------------------------------------------

 Structure from the checkpoint file:  "JID_7162.chk"
 -------------------------------
 CID_115002566_JID_7162_neutraal
 -------------------------------
 Charge =  0 Multiplicity = 1

 SCF Done:  E(RB3LYP) =  -826.858274184     A.U. after    1 cycles

  Exact polarizability: 154.898   2.685 138.699   2.154   6.034 131.991
 Approx polarizability: 207.275   4.138 186.750  -3.656  15.639 199.816

                      1                      2                      3
                      A                      A                      A
 Frequencies --     27.5964                43.9332                47.7584
 Red. masses --      4.0253                 3.6053                 7.8903
 Frc consts  --      0.0018                 0.0041                 0.0106
 IR Inten    --      0.8873                 0.7336                 0.1866

                      4                      5                      6
                      A                      A                      A
 Frequencies --     62.6988                70.4772                83.8372
 Red. masses --      3.6536                 3.5890                 3.6187
 Frc consts  --      0.0085                 0.0105                 0.0150
 IR Inten    --      1.3723                 0.2275                 0.3771

                      7                      8                      9
                      A                      A                      A
 Frequencies --     87.2841               132.5421               139.6225
 Red. masses --      4.8598                 2.0426                 1.1908
 Frc consts  --      0.0218                 0.0211                 0.0137
 IR Inten    --      1.3305                 0.0372                 0.2933

                     10                     11                     12
                      A                      A                      A
 Frequencies --    157.9018               187.7905               199.8647
 Red. masses --      2.5939                 3.0202                 4.0731
 Frc consts  --      0.0381                 0.0628                 0.0959
 IR Inten    --      0.1694                 1.1301                 2.0165

                     13                     14                     15
                      A                      A                      A
 Frequencies --    206.2545               235.2395               239.2384
 Red. masses --      2.0211                 1.3757                 1.4825
 Frc consts  --      0.0507                 0.0449                 0.0500
 IR Inten    --      0.5025                 0.0374                 0.2359

                     16                     17                     18
                      A                      A                      A
 Frequencies --    246.2217               270.4790               277.2722
 Red. masses --      1.8641                 2.7086                 1.6963
 Frc consts  --      0.0666                 0.1167                 0.0768
 IR Inten    --      1.9598                 0.6934                 0.7685

                     19                     20                     21
                      A                      A                      A
 Frequencies --    287.1186               303.8543               321.5311
 Red. masses --      1.6155                 2.7660                 1.3280
 Frc consts  --      0.0785                 0.1505                 0.0809
 IR Inten    --      0.5214                 3.1243                 0.8917

                     22                     23                     24
                      A                      A                      A
 Frequencies --    338.2268               377.9823               384.3863
 Red. masses --      3.6520                 4.3988                 2.1941
 Frc consts  --      0.2461                 0.3703                 0.1910
 IR Inten    --      3.5634                12.5205                 1.2839

                     25                     26                     27
                      A                      A                      A
 Frequencies --    394.4303               436.9217               443.4233
 Red. masses --      3.6043                 2.2075                 1.8416
 Frc consts  --      0.3304                 0.2483                 0.2133
 IR Inten    --      1.3936                 8.7394                 6.1915

                     28                     29                     30
                      A                      A                      A
 Frequencies --    466.3952               520.3446               548.3581
 Red. masses --      4.2306                 1.7341                 2.8837
 Frc consts  --      0.5422                 0.2766                 0.5109
 IR Inten    --      6.8318                39.2121                56.9502

                     31                     32                     33
                      A                      A                      A
 Frequencies --    593.2835               618.5062               630.2045
 Red. masses --      3.1363                 3.5931                 1.3570
 Frc consts  --      0.6504                 0.8099                 0.3175
 IR Inten    --     14.6080                31.3782               115.0276

                     34                     35                     36
                      A                      A                      A
 Frequencies --    679.9110               732.9025               770.1198
 Red. masses --      3.2653                 3.2822                 2.4220
 Frc consts  --      0.8894                 1.0387                 0.8463
 IR Inten    --     14.1696                 7.7495                 4.4012

                     37                     38                     39
                      A                      A                      A
 Frequencies --    778.5129               790.8375               824.8858
 Red. masses --      2.8211                 2.2174                 2.6582
 Frc consts  --      1.0074                 0.8171                 1.0657
 IR Inten    --     20.2992                26.1299                 3.3174

                     40                     41                     42
                      A                      A                      A
 Frequencies --    865.4801               877.1939               918.0444
 Red. masses --      2.5662                 2.2614                 2.4410
 Frc consts  --      1.1326                 1.0252                 1.2121
 IR Inten    --     19.1312                 7.2577                 6.7179

                     43                     44                     45
                      A                      A                      A
 Frequencies --    944.8004               949.6769               958.7357
 Red. masses --      1.3066                 1.6440                 1.8004
 Frc consts  --      0.6872                 0.8736                 0.9750
 IR Inten    --      2.5715                 1.0893                 2.5786

                     46                     47                     48
                      A                      A                      A
 Frequencies --    982.2538              1002.1197              1024.2619
 Red. masses --      1.6027                 1.9101                 1.9661
 Frc consts  --      0.9110                 1.1302                 1.2153
 IR Inten    --      0.3946                 4.6529                 3.7995

                     49                     50                     51
                      A                      A                      A
 Frequencies --   1042.2261              1065.7261              1077.5015
 Red. masses --      3.3069                 3.4691                 1.5749
 Frc consts  --      2.1164                 2.3214                 1.0773
 IR Inten    --      2.2319                43.5702                18.1858

                     52                     53                     54
                      A                      A                      A
 Frequencies --   1134.1454              1144.4863              1156.6146
 Red. masses --      2.4147                 2.3063                 2.3031
 Frc consts  --      1.8300                 1.7799                 1.8153
 IR Inten    --     80.7076                11.6192                61.4515

                     55                     56                     57
                      A                      A                      A
 Frequencies --   1165.0316              1187.3847              1201.5017
 Red. masses --      2.1278                 1.2800                 2.1946
 Frc consts  --      1.7016                 1.0632                 1.8666
 IR Inten    --     15.4636                 0.7020               254.4059

                     58                     59                     60
                      A                      A                      A
 Frequencies --   1205.2898              1218.1128              1231.3635
 Red. masses --      1.7409                 1.5883                 2.7527
 Frc consts  --      1.4901                 1.3885                 2.4592
 IR Inten    --      7.1059                 8.8840                39.4200

                     61                     62                     63
                      A                      A                      A
 Frequencies --   1261.7657              1269.2699              1297.8333
 Red. masses --      2.5036                 1.6780                 1.3707
 Frc consts  --      2.3484                 1.5928                 1.3603
 IR Inten    --     68.2368                54.0831                 1.9736

                     64                     65                     66
                      A                      A                      A
 Frequencies --   1304.2544              1348.1696              1355.0372
 Red. masses --      2.1813                 1.3872                 1.2831
 Frc consts  --      2.1862                 1.4855                 1.3881
 IR Inten    --    175.3931                 5.3382                 3.1061

                     67                     68                     69
                      A                      A                      A
 Frequencies --   1358.2109              1380.0559              1394.3070
 Red. masses --      1.4399                 2.0196                 1.3437
 Frc consts  --      1.5650                 2.2663                 1.5392
 IR Inten    --      8.2166                37.4996                 5.9753

                     70                     71                     72
                      A                      A                      A
 Frequencies --   1401.6250              1414.7235              1425.2265
 Red. masses --      1.4621                 1.4613                 1.2694
 Frc consts  --      1.6923                 1.7232                 1.5192
 IR Inten    --      8.2819                 1.2708                 6.1871

                     73                     74                     75
                      A                      A                      A
 Frequencies --   1431.9102              1447.7632              1452.8480
 Red. masses --      1.2605                 1.2191                 1.2273
 Frc consts  --      1.5228                 1.5055                 1.5263
 IR Inten    --      5.4893                 4.8326                 4.8027

                     76                     77                     78
                      A                      A                      A
 Frequencies --   1490.9935              1510.2107              1512.7498
 Red. masses --      1.2107                 1.0803                 1.0492
 Frc consts  --      1.5858                 1.4517                 1.4147
 IR Inten    --      6.1072                 4.4495                 4.6083

                     79                     80                     81
                      A                      A                      A
 Frequencies --   1517.7683              1518.8005              1523.0422
 Red. masses --      1.0728                 1.0671                 1.0491
 Frc consts  --      1.4561                 1.4504                 1.4339
 IR Inten    --      8.7614                 2.4970                 5.6579

                     82                     83                     84
                      A                      A                      A
 Frequencies --   1523.5926              1529.5897              1530.2968
 Red. masses --      1.0469                 1.0711                 1.0606
 Frc consts  --      1.4319                 1.4765                 1.4633
 IR Inten    --      4.9649                20.4663                10.6592

                     85                     86                     87
                      A                      A                      A
 Frequencies --   1533.1801              1538.1337              1542.1032
 Red. masses --      1.0973                 1.0659                 1.0980
 Frc consts  --      1.5197                 1.4858                 1.5384
 IR Inten    --     11.6159                26.7916                10.7181

                     88                     89                     90
                      A                      A                      A
 Frequencies --   1548.0648              1549.3877              1813.9103
 Red. masses --      1.1245                 1.0520                11.2630
 Frc consts  --      1.5878                 1.4879                21.8341
 IR Inten    --     14.1083                19.8169               169.2400

                     91                     92                     93
                      A                      A                      A
 Frequencies --   1835.9796              3037.4690              3038.3066
 Red. masses --      9.7968                 1.0423                 1.0740
 Frc consts  --     19.4567                 5.6660                 5.8412
 IR Inten    --    234.8571                19.5542                17.9221

                     94                     95                     96
                      A                      A                      A
 Frequencies --   3049.2930              3057.0125              3061.4096
 Red. masses --      1.0388                 1.0579                 1.0378
 Frc consts  --      5.6910                 5.8249                 5.7306
 IR Inten    --     32.3983                16.4169                10.8319

                     97                     98                     99
                      A                      A                      A
 Frequencies --   3064.1329              3070.4260              3076.2207
 Red. masses --      1.0394                 1.0668                 1.0299
 Frc consts  --      5.7496                 5.9254                 5.7420
 IR Inten    --     26.9924                 8.9479                33.0572

                    100                    101                    102
                      A                      A                      A
 Frequencies --   3078.8721              3094.5224              3103.7864
 Red. masses --      1.0808                 1.1031                 1.1020
 Frc consts  --      6.0362                 6.2236                 6.2550
 IR Inten    --     21.4632                12.0809                36.8348

                    103                    104                    105
                      A                      A                      A
 Frequencies --   3108.2351              3113.5180              3120.1536
 Red. masses --      1.1025                 1.1017                 1.0973
 Frc consts  --      6.2756                 6.2927                 6.2942
 IR Inten    --     35.1570                61.2122                11.1952

                    106                    107                    108
                      A                      A                      A
 Frequencies --   3123.3163              3129.3963              3131.9085
 Red. masses --      1.1013                 1.1027                 1.0995
 Frc consts  --      6.3299                 6.3623                 6.3543
 IR Inten    --     26.8302                18.7807                23.5142

                    109                    110                    111
                      A                      A                      A
 Frequencies --   3143.3560              3151.2393              3168.8881
 Red. masses --      1.1002                 1.1071                 1.0984
 Frc consts  --      6.4046                 6.4774                 6.4986
 IR Inten    --     49.5486                21.4868                15.7827

                    112                    113                    114
                      A                      A                      A
 Frequencies --   3185.7928              3588.6016              3683.1270
 Red. masses --      1.1072                 1.0744                 1.0640
 Frc consts  --      6.6207                 8.1524                 8.5043
 IR Inten    --     15.0892                12.7841                52.9065

 - Thermochemistry -
 -------------------
 Temperature   298.150 Kelvin.  Pressure   1.00000 Atm.
 Atom     1 has atomic number  6 and mass  12.00000

 Molecular mass:   245.16271 amu.
 Principal axes and moments of inertia in atomic units:
                           1         2         3
     Eigenvalues --  3327.952125592.152306507.43536
           X            0.99932   0.00562   0.03653
           Y           -0.00540   0.99997  -0.00617
           Z           -0.03657   0.00596   0.99931
 This molecule is an asymmetric top.
 Rotational symmetry number  1.
 Warning -- assumption of classical behavior for rotation
           may cause significant error
 Rotational temperatures (Kelvin)      0.02603     0.01549     0.01331
 Rotational constants (GHZ):           0.54230     0.32273     0.27734
 Zero-point vibrational energy     922619.2 (Joules/Mol)
                                  220.51128 (Kcal/Mol)
 Warning -- explicit consideration of  32 degrees of freedom as
           vibrations may cause significant error
 Vibrational temperatures:     39.71    63.21    68.71    90.21   101.40
          (Kelvin)            120.62   125.58   190.70   200.89   227.19
                              270.19   287.56   296.75   338.46   344.21
                              354.26   389.16   398.93   413.10   437.18
                              462.61   486.63   543.83   553.05   567.50
                              628.63   637.99   671.04   748.66   788.96
                              853.60   889.89   906.72   978.24  1054.48
                             1108.03  1120.11  1137.84  1186.83  1245.23
                             1262.09  1320.86  1359.36  1366.37  1379.41
                             1413.24  1441.83  1473.68  1499.53  1533.34
                             1550.28  1631.78  1646.66  1664.11  1676.22
                             1708.38  1728.69  1734.14  1752.59  1771.66
                             1815.40  1826.20  1867.29  1876.53  1939.72
                             1949.60  1954.16  1985.59  2006.10  2016.63
                             2035.47  2050.58  2060.20  2083.01  2090.32
                             2145.21  2172.86  2176.51  2183.73  2185.22
                             2191.32  2192.11  2200.74  2201.76  2205.90
                             2213.03  2218.74  2227.32  2229.22  2609.81
                             2641.57  4370.24  4371.45  4387.25  4398.36
                             4404.69  4408.60  4417.66  4426.00  4429.81
                             4452.33  4465.66  4472.06  4479.66  4489.21
                             4493.76  4502.50  4506.12  4522.59  4533.93
                             4559.32  4583.65  5163.20  5299.20

 Zero-point correction=                           0.351407 (Hartree/Particle)
 Thermal correction to Energy=                    0.371651
 Thermal correction to Enthalpy=                  0.372595
 Thermal correction to Gibbs Free Energy=         0.302383
 Sum of electronic and zero-point Energies=           -826.506867
 Sum of electronic and thermal Energies=              -826.486623
 Sum of electronic and thermal Enthalpies=            -826.485679
 Sum of electronic and thermal Free Energies=         -826.555891

                     E (Thermal)             CV                S
                      KCal/Mol        Cal/Mol-Kelvin    Cal/Mol-Kelvin
 Total                  233.215             74.326            147.774
 Electronic               0.000              0.000              0.000
 Translational            0.889              2.981             42.391
 Rotational               0.889              2.981             33.160
 Vibrational            231.437             68.365             72.223
 Vibration     1          0.593              1.984              5.995
 Vibration     2          0.595              1.980              5.073
 Vibration     3          0.595              1.978              4.908
 Vibration     4          0.597              1.972              4.370
 Vibration     5          0.598              1.968              4.140
 Vibration     6          0.601              1.960              3.799
 Vibration     7          0.601              1.958              3.720
 Vibration     8          0.613              1.921              2.909
 Vibration     9          0.615              1.914              2.809
 Vibration    10          0.621              1.894              2.575
 Vibration    11          0.632              1.857              2.250
 Vibration    12          0.638              1.840              2.134
 Vibration    13          0.641              1.831              2.077
 Vibration    14          0.655              1.787              1.839
 Vibration    15          0.657              1.780              1.809
 Vibration    16          0.661              1.769              1.757
 Vibration    17          0.674              1.728              1.593
 Vibration    18          0.678              1.715              1.550
 Vibration    19          0.684              1.698              1.491
 Vibration    20          0.695              1.666              1.396
 Vibration    21          0.707              1.632              1.302
 Vibration    22          0.719              1.599              1.221
 Vibration    23          0.748              1.517              1.047
 Vibration    24          0.753              1.504              1.022
 Vibration    25          0.761              1.482              0.983
 Vibration    26          0.797              1.390              0.836
 Vibration    27          0.803              1.375              0.816
 Vibration    28          0.824              1.325              0.748
 Vibration    29          0.875              1.205              0.609
 Vibration    30          0.904              1.143              0.548
 Vibration    31          0.951              1.046              0.461
 Vibration    32          0.978              0.993              0.419

 Optimization completed.
    -- Stationary point found.
 Normal termination of Gaussian 16 at Fri Dec 11 12:15:40 2020.

 ----------------------------------------------------------------------
 # B3LYP/6-311++G(d,p) empiricaldispersion=gd3bj scf=xqc pop=npa geom=c
 heck
 ----------------------------------------------------------------------

 ---------------------------------------
 CID_115002566_JID_7162_Energie_neutraal
 ---------------------------------------
 Structure from the checkpoint file:  "JID_7162.chk"
 Charge =  0 Multiplicity = 1

 SCF Done:  E(RB3LYP) =  -827.111339177     A.U. after   15 cycles
 Normal termination of Gaussian 16 at Fri Dec 11 12:25:28 2020.

 ----------------------------------------------------------------------
 # B3LYP/6-311++G(d,p) empiricaldispersion=gd3bj scf=xqc pop=npa geom=c
 heck
 ----------------------------------------------------------------------

 -------------------------------------
 CID_115002566_JID_7162_Energie_kation
 -------------------------------------
 Structure from the checkpoint file:  "JID_7162.chk"
 Charge =  1 Multiplicity = 2

 SCF Done:  E(UB3LYP) =  -826.817813137     A.U. after   21 cycles
 Normal termination of Gaussian 16 at Fri Dec 11 12:48:55 2020.
 Gaussian 16:  ES64L-G16RevA.03 25-Dec-2016

 ----------------------------------------------------------------------
 # B3LYP/6-311++G(d,p) empiricaldispersion=gd3bj scf=xqc pop=npa geom=c
 heck
 ----------------------------------------------------------------------

 ------------------------------------
 CID_115002566_JID_7162_Energie_anion
 ------------------------------------
 Structure from the checkpoint file:  "JID_7162.chk"
 Charge = -1 Multiplicity = 2

                         Standard orientation:
 ---------------------------------------------------------------------
 Center     Atomic      Atomic             Coordinates (Angstroms)
 Number     Number       Type             X           Y           Z
 ---------------------------------------------------------------------
      1          6           0        2.172024    0.961479    2.458975
      2          6           0        2.382089   -0.173388    1.447705
      3          6           0        1.797344    0.042598    0.023816
      4          6           0        1.996332    1.511198   -0.453409
      5          6           0        2.572150   -0.784194   -1.018841
      6          8           0        2.069467   -1.327270   -1.978217
      7          8           0        3.913520   -0.768527   -0.828958
      8          7           0        0.436505   -0.471371   -0.067873
      9          6           0       -0.631513   -0.061038    0.814025
     10          6           0       -1.215126    1.373470    0.656195
     11          6           0       -1.592679    1.801762   -0.770376
     12          6           0       -2.735125    0.966288   -1.365502
     13          6           0       -1.952419    3.292933   -0.782245
     14          6           0       -1.785824   -1.068446    0.792984
     15          8           0       -2.739594   -0.992006    1.539052
     16          8           0       -1.650590   -2.029345   -0.140599
     17          6           0       -2.739679   -2.962524   -0.212177
     18          1           0        2.709219    1.867916    2.162112
     19          1           0        2.562716    0.656502    3.435826
     20          1           0        1.121305    1.231976    2.597551
     21          1           0        3.458044   -0.337823    1.355007
     22          1           0        1.953885   -1.107273    1.829352
     23          1           0        3.052896    1.796303   -0.408558
     24          1           0        1.652916    1.618150   -1.487107
     25          1           0        1.427195    2.203268    0.168362
     26          1           0        4.291605   -1.254165   -1.586104
     27          1           0        0.152114   -0.608930   -1.029728
     28          1           0       -0.263848   -0.130679    1.843320
     29          1           0       -2.093586    1.444422    1.308631
     30          1           0       -0.478365    2.081658    1.051645
     31          1           0       -0.710198    1.666411   -1.410042
     32          1           0       -3.615255    0.983878   -0.711573
     33          1           0       -3.032181    1.362087   -2.343455
     34          1           0       -2.445450   -0.078608   -1.510844
     35          1           0       -1.127117    3.906260   -0.401332
     36          1           0       -2.186811    3.635000   -1.796841
     37          1           0       -2.830308    3.487201   -0.153084
     38          1           0       -2.862916   -3.479239    0.742692
     39          1           0       -3.670140   -2.443335   -0.457494
     40          1           0       -2.469136   -3.665023   -1.000359
 ---------------------------------------------------------------------

 SCF Done:  E(UB3LYP) =  -827.099215093     A.U. after   33 cycles
 SCF Done:  E(UB3LYP) =  -827.099215093     a.u. after    1 cycles

 The electronic state is 2-A.
 Alpha  occ. eigenvalues --  -19.08559 -19.07547 -19.02453 -19.02251 -14.20184
 Alpha  occ. eigenvalues --  -10.21309 -10.21105 -10.14273 -10.13594 -10.12764
 Alpha  occ. eigenvalues --  -10.08519 -10.07711 -10.07691 -10.07071 -10.07037
 Alpha  occ. eigenvalues --  -10.06946 -10.06825  -1.02582  -1.01803  -0.93581
 Alpha  occ. eigenvalues --   -0.92825  -0.82810  -0.72924  -0.70455  -0.66390
 Alpha  occ. eigenvalues --   -0.64275  -0.62646  -0.59698  -0.58050  -0.55703
 Alpha  occ. eigenvalues --   -0.52933  -0.49046  -0.48319  -0.46003  -0.45020
 Alpha  occ. eigenvalues --   -0.40768  -0.40102  -0.39759  -0.39255  -0.38088
 Alpha  occ. eigenvalues --   -0.37643  -0.36531  -0.35756  -0.35237  -0.34052
 Alpha  occ. eigenvalues --   -0.33496  -0.32487  -0.32113  -0.31589  -0.30318
 Alpha  occ. eigenvalues --   -0.29925  -0.29659  -0.29468  -0.28658  -0.28236
 Alpha  occ. eigenvalues --   -0.27335  -0.26699  -0.24865  -0.24780  -0.24169
 Alpha  occ. eigenvalues --   -0.23797  -0.23327  -0.23074  -0.22360  -0.19857
 Alpha  occ. eigenvalues --   -0.18662  -0.12752   0.04112
 Alpha virt. eigenvalues --    0.05800   0.06114   0.06679   0.08015   0.08403
 Alpha virt. eigenvalues --    0.08481   0.08730   0.09074   0.09564   0.09660
 Alpha virt. eigenvalues --    0.10269   0.10581   0.10903   0.11699   0.11948

  Beta  occ. eigenvalues --  -19.08554 -19.07493 -19.02443 -19.02238 -14.20180
  Beta  occ. eigenvalues --  -10.21298 -10.21103 -10.14254 -10.13586 -10.12760
  Beta  occ. eigenvalues --  -10.08514 -10.07702 -10.07676 -10.07042 -10.07007
  Beta  occ. eigenvalues --  -10.06923 -10.06807  -1.02567  -1.01738  -0.93566
  Beta  occ. eigenvalues --   -0.92769  -0.82795  -0.72902  -0.70429  -0.66361
  Beta  occ. eigenvalues --   -0.64242  -0.62612  -0.59657  -0.57982  -0.55663
  Beta  occ. eigenvalues --   -0.52848  -0.49013  -0.48265  -0.45965  -0.44996
  Beta  occ. eigenvalues --   -0.40734  -0.40077  -0.39732  -0.39226  -0.38059
  Beta  occ. eigenvalues --   -0.37613  -0.36497  -0.35733  -0.35212  -0.34028
  Beta  occ. eigenvalues --   -0.33471  -0.32443  -0.32081  -0.31562  -0.30290
  Beta  occ. eigenvalues --   -0.29888  -0.29631  -0.29436  -0.28631  -0.28214
  Beta  occ. eigenvalues --   -0.27296  -0.26676  -0.24837  -0.24751  -0.24142
  Beta  occ. eigenvalues --   -0.23770  -0.23307  -0.23038  -0.22329  -0.19841
  Beta  occ. eigenvalues --   -0.18623  -0.12730
  Beta virt. eigenvalues --    0.05929   0.06487   0.06999   0.07433   0.08380
  Beta virt. eigenvalues --    0.08564   0.08773   0.08985   0.09273   0.09721
  Beta virt. eigenvalues --    0.09824   0.10623   0.10948   0.11161   0.11880

 Mulliken charges and spin densities:
               1          2
     1  C    0.192065  -0.751215
     2  C   -0.194766  -0.175313
     3  C   -0.171748  -0.171872
     4  C    0.735439  -1.225202
     5  C   -0.045270   0.323057
     6  O   -0.215954  -0.027400
     7  O   -0.203411   0.069851
     8  N    0.141580   0.060478
     9  C   -0.256203   0.194495
    10  C    0.841579  -1.065220
    11  C   -0.665614   1.094655
    12  C   -0.377344  -0.317974
    13  C    0.374625  -1.008948
    14  C   -0.875690   0.032048
    15  O   -0.172992   0.012393
    16  O    0.020443   0.023358
    17  C    0.228938  -0.453351
    18  H   -0.140337   0.299170
    19  H   -0.237431   0.391496
    20  H   -0.133344   0.269872
    21  H   -0.078723   0.292695
    22  H    0.031334   0.151608
    23  H   -0.097033   0.286439
    24  H   -0.010395   0.181826
    25  H   -0.084631   0.237587
    26  H   -0.485664   0.798602
    27  H    0.500393  -0.193120
    28  H    0.198650  -0.014969
    29  H    0.093465   0.124140
    30  H    0.333516  -0.201730
    31  H    0.223293  -0.064042
    32  H    0.128626   0.028632
    33  H   -0.172031   0.332531
    34  H   -0.091163   0.220118
    35  H   -0.197792   0.334076
    36  H   -0.144665   0.287525
    37  H    0.036829   0.092258
    38  H    0.026651   0.147322
    39  H    0.005004   0.168525
    40  H   -0.060231   0.215601
 Sum of Mulliken charges =  -1.00000   1.00000

 Dipole moment (field-independent basis, Debye):
    X=             -5.0356    Y=             -1.0373    Z=              1.3926  Tot=              5.3266
 Quadrupole moment (field-independent basis, Debye-Ang):
   XX=           -187.1838   YY=           -152.6426   ZZ=           -151.3883
   XY=              5.6597   XZ=              4.5293   YZ=             -1.8597

 Summary of Natural Population Analysis:

                                       Natural Population
                Natural  -----------------------------------------------
    Atom  No    Charge         Core      Valence    Rydberg      Total
 -----------------------------------------------------------------------
      C    1   -0.28814      0.99966     2.28338    0.00510     3.28814
      C    2   -0.19749      0.99959     2.18824    0.00966     3.19749
      C    3    0.02884      0.99952     1.95624    0.01539     2.97116
      C    4   -0.29484      0.99962     2.28776    0.00746     3.29484
      C    5    0.41808      0.99964     1.55539    0.02689     2.58192
      O    6   -0.30919      0.99987     3.30303    0.00629     4.30919
      O    7   -0.34468      0.99987     3.33748    0.00732     4.34468
      N    8   -0.35101      0.99969     2.83909    0.01222     3.85101
      C    9   -0.04903      0.99953     2.03675    0.01275     3.04903
      C   10   -0.19329      0.99959     2.18462    0.00909     3.19329
      C   11   -0.12210      0.99961     2.11340    0.00909     3.12210
      C   12   -0.28909      0.99965     2.28317    0.00628     3.28909
      C   13   -0.28106      0.99965     2.27532    0.00608     3.28106
      C   14    0.41782      0.99966     1.55746    0.02506     2.58218
      O   15   -0.31326      0.99987     3.30794    0.00544     4.31326
      O   16   -0.27132      0.99985     3.26360    0.00786     4.27132
      C   17   -0.10482      0.99959     2.09710    0.00812     3.10482
      H   18    0.10045      0.00000     0.39849    0.00106     0.39955
      H   19    0.10208      0.00000     0.39709    0.00083     0.39792
      H   20    0.09365      0.00000     0.40512    0.00123     0.40635
      H   21    0.11280      0.00000     0.38536    0.00183     0.38720
      H   22    0.10159      0.00000     0.39720    0.00121     0.39841
      H   23    0.10756      0.00000     0.39106    0.00138     0.39244
      H   24    0.10353      0.00000     0.39496    0.00151     0.39647
      H   25    0.10331      0.00000     0.39532    0.00137     0.39669
      H   26    0.24569      0.00000     0.23786    0.01645     0.25431
      H   27    0.19337      0.00000     0.30303    0.00360     0.30663
      H   28    0.11062      0.00000     0.38767    0.00171     0.38938
      H   29    0.10626      0.00000     0.39259    0.00114     0.39374
      H   30    0.09982      0.00000     0.39892    0.00126     0.40018
      H   31    0.09618      0.00000     0.40149    0.00233     0.40382
      H   32    0.09838      0.00000     0.40076    0.00086     0.40162
      H   33    0.10007      0.00000     0.39914    0.00079     0.39993
      H   34    0.09973      0.00000     0.39891    0.00136     0.40027
      H   35    0.10023      0.00000     0.39881    0.00096     0.39977
      H   36    0.09900      0.00000     0.40020    0.00081     0.40100
      H   37    0.09501      0.00000     0.40415    0.00084     0.40499
      H   38    0.09123      0.00000     0.40743    0.00134     0.40877
      H   39    0.09130      0.00000     0.40731    0.00139     0.40870
      H   40    0.09271      0.00000     0.40623    0.00107     0.40729
 =======================================================================
   * Total *    0.00000     16.99448    49.77907    0.22644    67.00000

 Normal termination of Gaussian 16 at Fri Dec 11 13:18:26 2020.
