 Gaussian 16, Revision A.03,

 -----------------------------------------------------------
 # opt freq B3LYP/6-31G(d) empiricaldispersion=gd3bj scf=xqc
 -----------------------------------------------------------

 ------------------------------
 CID_130766236_JID_496_neutraal
 ------------------------------
 Symbolic Z-matrix:
 Charge =  0 Multiplicity = 1

 SCF Done:  E(RB3LYP) =  -459.835562252     A.U. after   14 cycles
 SCF Done:  E(RB3LYP) =  -459.845087474     A.U. after   12 cycles
 SCF Done:  E(RB3LYP) =  -459.847494899     A.U. after   13 cycles
 SCF Done:  E(RB3LYP) =  -459.848591336     A.U. after   12 cycles
 SCF Done:  E(RB3LYP) =  -459.848859312     A.U. after   12 cycles
 SCF Done:  E(RB3LYP) =  -459.849462280     A.U. after   12 cycles
 SCF Done:  E(RB3LYP) =  -459.849952358     A.U. after   11 cycles
 SCF Done:  E(RB3LYP) =  -459.850035780     A.U. after   11 cycles
 SCF Done:  E(RB3LYP) =  -459.850053647     A.U. after   10 cycles
 SCF Done:  E(RB3LYP) =  -459.850058681     A.U. after    8 cycles
 SCF Done:  E(RB3LYP) =  -459.850061149     A.U. after    9 cycles
 SCF Done:  E(RB3LYP) =  -459.850062377     A.U. after    9 cycles
 SCF Done:  E(RB3LYP) =  -459.850063076     A.U. after    8 cycles
 SCF Done:  E(RB3LYP) =  -459.850063212     A.U. after    7 cycles
 Optimization completed.
    -- Stationary point found.
 Normal termination of Gaussian 16 at Tue Dec  8 10:45:51 2020.

 --------------------------------------------------------------------
 #N Geom=AllCheck Guess=TCheck SCRF=Check GenChk RB3LYP/6-31G(d) Freq
 --------------------------------------------------------------------

 Structure from the checkpoint file:  "JID_496.chk"
 ------------------------------
 CID_130766236_JID_496_neutraal
 ------------------------------
 Charge =  0 Multiplicity = 1

 SCF Done:  E(RB3LYP) =  -459.850063212     A.U. after    1 cycles

  Exact polarizability: 117.588  -5.491  84.134   1.072   2.500  72.215
 Approx polarizability: 153.591 -11.567 121.597   6.923   0.753 105.127

                      1                      2                      3
                      A                      A                      A
 Frequencies --     43.1652                97.8830               109.2553
 Red. masses --      3.5934                 2.7090                 3.0608
 Frc consts  --      0.0039                 0.0153                 0.0215
 IR Inten    --      1.6747                 2.4719                 2.2579

                      4                      5                      6
                      A                      A                      A
 Frequencies --    183.3039               211.7639               222.3878
 Red. masses --      2.6959                 1.3476                 3.0120
 Frc consts  --      0.0534                 0.0356                 0.0878
 IR Inten    --      3.5791                 0.7764                 2.6042

                      7                      8                      9
                      A                      A                      A
 Frequencies --    275.7841               294.2062               321.2351
 Red. masses --      2.4664                 1.0917                 1.7744
 Frc consts  --      0.1105                 0.0557                 0.1079
 IR Inten    --     11.2079                 0.1421                14.3374

                     10                     11                     12
                      A                      A                      A
 Frequencies --    326.9588               358.8573               404.2758
 Red. masses --      2.0723                 1.8861                 2.4429
 Frc consts  --      0.1305                 0.1431                 0.2352
 IR Inten    --      6.0885                 4.0092                 3.3440

                     13                     14                     15
                      A                      A                      A
 Frequencies --    446.3769               484.0966               523.6793
 Red. masses --      3.2043                 2.1386                 3.2744
 Frc consts  --      0.3762                 0.2953                 0.5291
 IR Inten    --      4.2085                21.3821                 0.3819

                     16                     17                     18
                      A                      A                      A
 Frequencies --    623.0561               634.2100               739.3381
 Red. masses --      2.2554                 4.1805                 3.1183
 Frc consts  --      0.5159                 0.9907                 1.0043
 IR Inten    --      4.3429                 1.1141                52.0157

                     19                     20                     21
                      A                      A                      A
 Frequencies --    796.5892               807.6071               818.5144
 Red. masses --      1.5262                 2.5594                 1.5127
 Frc consts  --      0.5706                 0.9836                 0.5971
 IR Inten    --    211.0727                 5.5914                73.4639

                     22                     23                     24
                      A                      A                      A
 Frequencies --    921.2481               930.5205               949.2130
 Red. masses --      2.8332                 1.4049                 1.7539
 Frc consts  --      1.4167                 0.7167                 0.9310
 IR Inten    --      4.3702                 0.2057                 3.6386

                     25                     26                     27
                      A                      A                      A
 Frequencies --    955.2604               976.7314              1036.2683
 Red. masses --      1.8735                 2.8919                 1.2284
 Frc consts  --      1.0072                 1.6255                 0.7772
 IR Inten    --      4.5838                 8.2188                 2.3367

                     28                     29                     30
                      A                      A                      A
 Frequencies --   1058.8150              1122.2584              1144.4370
 Red. masses --      2.2170                 2.0997                 2.5047
 Frc consts  --      1.4644                 1.5581                 1.9328
 IR Inten    --     29.0064                63.8479                 8.2322

                     31                     32                     33
                      A                      A                      A
 Frequencies --   1159.7577              1180.9603              1191.4972
 Red. masses --      2.2002                 3.3149                 1.7387
 Frc consts  --      1.7436                 2.7239                 1.4543
 IR Inten    --     13.0583                13.9043                32.4584

                     34                     35                     36
                      A                      A                      A
 Frequencies --   1213.1672              1214.0751              1234.2010
 Red. masses --      1.9853                 1.4601                 1.9647
 Frc consts  --      1.7216                 1.2681                 1.7633
 IR Inten    --     55.5516                 5.3524                86.9755

                     37                     38                     39
                      A                      A                      A
 Frequencies --   1280.2082              1300.3763              1358.3660
 Red. masses --      1.9015                 1.2927                 1.4575
 Frc consts  --      1.8361                 1.2879                 1.5845
 IR Inten    --    140.9815                 6.8484                 3.1911

                     40                     41                     42
                      A                      A                      A
 Frequencies --   1388.7410              1417.1110              1427.5831
 Red. masses --      1.3049                 1.1512                 1.2944
 Frc consts  --      1.4828                 1.3621                 1.5542
 IR Inten    --      6.3259                 1.5010                16.2126

                     43                     44                     45
                      A                      A                      A
 Frequencies --   1441.2068              1445.0406              1482.7296
 Red. masses --      1.2277                 1.2393                 1.0911
 Frc consts  --      1.5025                 1.5247                 1.4134
 IR Inten    --     11.2659                14.9619                 4.2365

                     46                     47                     48
                      A                      A                      A
 Frequencies --   1504.2744              1518.6119              1523.6664
 Red. masses --      1.1157                 1.0511                 1.0579
 Frc consts  --      1.4875                 1.4283                 1.4470
 IR Inten    --      8.4245                 0.8511                 1.0271

                     49                     50                     51
                      A                      A                      A
 Frequencies --   1530.7474              1542.4461              1692.4593
 Red. masses --      1.0488                 1.0544                 1.1052
 Frc consts  --      1.4479                 1.4781                 1.8652
 IR Inten    --      6.4500                 5.1872                24.9317

                     52                     53                     54
                      A                      A                      A
 Frequencies --   1783.4764              3051.3444              3053.3756
 Red. masses --      9.0872                 1.0850                 1.0671
 Frc consts  --     17.0300                 5.9521                 5.8613
 IR Inten    --      3.6101                29.1298                13.0466

                     55                     56                     57
                      A                      A                      A
 Frequencies --   3056.7978              3062.1568              3078.8481
 Red. masses --      1.0375                 1.0392                 1.0773
 Frc consts  --      5.7120                 5.7412                 6.0169
 IR Inten    --     20.7460                14.0872                24.3992

                     58                     59                     60
                      A                      A                      A
 Frequencies --   3081.6206              3120.7089              3121.3651
 Red. masses --      1.0671                 1.0980                 1.1014
 Frc consts  --      5.9707                 6.3000                 6.3227
 IR Inten    --     19.5917                81.0805                16.5081

                     61                     62                     63
                      A                      A                      A
 Frequencies --   3127.2041              3131.3711              3139.8322
 Red. masses --      1.1023                 1.1013                 1.1032
 Frc consts  --      6.3513                 6.3625                 6.4077
 IR Inten    --     38.0001                 1.4615                11.8205

                     64                     65                     66
                      A                      A                      A
 Frequencies --   3147.3258              3416.2389              3587.6116
 Red. masses --      1.0996                 1.0533                 1.0897
 Frc consts  --      6.4177                 7.2427                 8.2634
 IR Inten    --     43.9399                 7.9190                 5.5415

 - Thermochemistry -
 -------------------
 Temperature   298.150 Kelvin.  Pressure   1.00000 Atm.
 Atom     1 has atomic number  6 and mass  12.00000

 Molecular mass:   142.11061 amu.
 Principal axes and moments of inertia in atomic units:
                           1         2         3
     Eigenvalues --   701.034742573.746002698.97551
           X            0.99980   0.00917  -0.01756
           Y           -0.00730   0.99457   0.10378
           Z            0.01842  -0.10363   0.99445
 This molecule is an asymmetric top.
 Rotational symmetry number  1.
 Warning -- assumption of classical behavior for rotation
           may cause significant error
 Rotational temperatures (Kelvin)      0.12355     0.03365     0.03209
 Rotational constants (GHZ):           2.57440     0.70121     0.66868
 Zero-point vibrational energy     555209.6 (Joules/Mol)
                                  132.69828 (Kcal/Mol)
 Warning -- explicit consideration of  15 degrees of freedom as
           vibrations may cause significant error
 Vibrational temperatures:     62.11   140.83   157.19   263.73   304.68
          (Kelvin)            319.97   396.79   423.30   462.19   470.42
                              516.32   581.66   642.24   696.51   753.46
                              896.44   912.49  1063.74  1146.11  1161.97
                             1177.66  1325.47  1338.81  1365.71  1374.41
                             1405.30  1490.96  1523.40  1614.68  1646.59
                             1668.63  1699.14  1714.30  1745.48  1746.78
                             1775.74  1841.93  1870.95  1954.39  1998.09
                             2038.91  2053.97  2073.58  2079.09  2133.32
                             2164.32  2184.94  2192.22  2202.40  2219.24
                             2435.07  2566.02  4390.20  4393.13  4398.05
                             4405.76  4429.78  4433.76  4490.00  4490.95
                             4499.35  4505.34  4517.52  4528.30  4915.21
                             5161.77

 Zero-point correction=                           0.211468 (Hartree/Particle)
 Thermal correction to Energy=                    0.222437
 Thermal correction to Enthalpy=                  0.223381
 Thermal correction to Gibbs Free Energy=         0.175082
 Sum of electronic and zero-point Energies=           -459.638595
 Sum of electronic and thermal Energies=              -459.627627
 Sum of electronic and thermal Enthalpies=            -459.626682
 Sum of electronic and thermal Free Energies=         -459.674981

                     E (Thermal)             CV                S
                      KCal/Mol        Cal/Mol-Kelvin    Cal/Mol-Kelvin
 Total                  139.581             41.473            101.653
 Electronic               0.000              0.000              0.000
 Translational            0.889              2.981             40.766
 Rotational               0.889              2.981             29.966
 Vibrational            137.804             35.512             30.921
 Vibration     1          0.595              1.980              5.108
 Vibration     2          0.603              1.951              3.496
 Vibration     3          0.606              1.942              3.282
 Vibration     4          0.631              1.863              2.294
 Vibration     5          0.643              1.823              2.028
 Vibration     6          0.648              1.807              1.940
 Vibration     7          0.677              1.718              1.560
 Vibration     8          0.689              1.685              1.450
 Vibration     9          0.707              1.633              1.304
 Vibration    10          0.711              1.622              1.275
 Vibration    11          0.734              1.557              1.127
 Vibration    12          0.769              1.461              0.947
 Vibration    13          0.806              1.369              0.807
 Vibration    14          0.840              1.285              0.699
 Vibration    15          0.879              1.198              0.601

 Optimization completed.
    -- Stationary point found.
 Normal termination of Gaussian 16 at Tue Dec  8 10:50:18 2020.

 ----------------------------------------------------------------------
 # B3LYP/6-311++G(d,p) empiricaldispersion=gd3bj scf=xqc pop=npa geom=c
 heck
 ----------------------------------------------------------------------

 --------------------------------------
 CID_130766236_JID_496_Energie_neutraal
 --------------------------------------
 Structure from the checkpoint file:  "JID_496.chk"
 Charge =  0 Multiplicity = 1

 SCF Done:  E(RB3LYP) =  -459.987832404     A.U. after   13 cycles
 Normal termination of Gaussian 16 at Tue Dec  8 10:52:35 2020.

 ----------------------------------------------------------------------
 # B3LYP/6-311++G(d,p) empiricaldispersion=gd3bj scf=xqc pop=npa geom=c
 heck
 ----------------------------------------------------------------------

 ------------------------------------
 CID_130766236_JID_496_Energie_kation
 ------------------------------------
 Structure from the checkpoint file:  "JID_496.chk"
 Charge =  1 Multiplicity = 2

 SCF Done:  E(UB3LYP) =  -459.675796457     A.U. after   26 cycles
 Normal termination of Gaussian 16 at Tue Dec  8 11:00:28 2020.
 Gaussian 16:  ES64L-G16RevA.03 25-Dec-2016

 ----------------------------------------------------------------------
 # B3LYP/6-311++G(d,p) empiricaldispersion=gd3bj scf=xqc pop=npa geom=c
 heck
 ----------------------------------------------------------------------

 -----------------------------------
 CID_130766236_JID_496_Energie_anion
 -----------------------------------
 Structure from the checkpoint file:  "JID_496.chk"
 Charge = -1 Multiplicity = 2

                         Standard orientation:
 ---------------------------------------------------------------------
 Center     Atomic      Atomic             Coordinates (Angstroms)
 Number     Number       Type             X           Y           Z
 ---------------------------------------------------------------------
      1          6           0       -2.612408   -1.429562   -0.256276
      2          6           0       -2.382699    0.036973    0.125561
      3          6           0       -1.915224    0.213160    1.572717
      4          8           0       -1.601068    0.726157   -0.858430
      5          6           0       -0.201517    0.639486   -0.935206
      6          6           0        0.710118    1.499364    0.005553
      7          6           0        1.653798    0.317059    0.034431
      8          7           0        2.872611    0.234534    0.385089
      9          7           0        3.461703   -1.022815    0.331177
     10          6           0        0.630099   -0.638353   -0.569949
     11          1           0       -1.720846   -2.046977   -0.115441
     12          1           0       -2.911911   -1.494672   -1.306656
     13          1           0       -3.413339   -1.855803    0.358999
     14          1           0       -3.350331    0.545423    0.037173
     15          1           0       -0.959834   -0.280822    1.773551
     16          1           0       -1.816488    1.273723    1.822387
     17          1           0       -2.659552   -0.225285    2.247044
     18          1           0        0.023088    0.907650   -1.972185
     19          1           0        1.089045    2.441309   -0.403275
     20          1           0        0.251212    1.699701    0.978540
     21          1           0        3.071811   -1.627539   -0.395851
     22          1           0        4.458445   -0.903964    0.184824
     23          1           0        0.175414   -1.276871    0.191936
     24          1           0        0.938631   -1.275926   -1.408454
 ---------------------------------------------------------------------

 SCF Done:  E(UB3LYP) =  -459.973804159     A.U. after   30 cycles

 The electronic state is 2-A.
 Alpha  occ. eigenvalues --  -19.02057 -14.22913 -14.22723 -10.12768 -10.12384
 Alpha  occ. eigenvalues --  -10.09919 -10.07211 -10.07021 -10.06254 -10.05467
 Alpha  occ. eigenvalues --   -0.93191  -0.88057  -0.75045  -0.68501  -0.66571
 Alpha  occ. eigenvalues --   -0.59295  -0.57538  -0.54266  -0.46174  -0.44438
 Alpha  occ. eigenvalues --   -0.41330  -0.39300  -0.38612  -0.36944  -0.34058
 Alpha  occ. eigenvalues --   -0.33300  -0.30661  -0.29916  -0.29317  -0.29213
 Alpha  occ. eigenvalues --   -0.27828  -0.26603  -0.26366  -0.24447  -0.22911
 Alpha  occ. eigenvalues --   -0.19501  -0.16468  -0.15223  -0.12423   0.04601
 Alpha virt. eigenvalues --    0.06457   0.08121   0.08340   0.09151   0.09701
 Alpha virt. eigenvalues --    0.10015   0.10680   0.11059   0.12003   0.12949
 Alpha virt. eigenvalues --    0.13334   0.13448   0.14772   0.15753   0.15778

  Beta  occ. eigenvalues --  -19.02057 -14.22900 -14.22668 -10.12758 -10.12371
  Beta  occ. eigenvalues --  -10.09921 -10.07164 -10.07016 -10.06222 -10.05429
  Beta  occ. eigenvalues --   -0.93181  -0.88010  -0.75011  -0.68450  -0.66505
  Beta  occ. eigenvalues --   -0.59229  -0.57478  -0.54213  -0.46113  -0.44375
  Beta  occ. eigenvalues --   -0.41270  -0.39233  -0.38556  -0.36912  -0.34018
  Beta  occ. eigenvalues --   -0.33264  -0.30623  -0.29880  -0.29285  -0.29176
  Beta  occ. eigenvalues --   -0.27798  -0.26567  -0.26329  -0.24410  -0.22868
  Beta  occ. eigenvalues --   -0.19468  -0.16430  -0.15198  -0.12378
  Beta virt. eigenvalues --    0.07060   0.07851   0.08492   0.08826   0.09776
  Beta virt. eigenvalues --    0.10099   0.10579   0.11082   0.11599   0.12458
  Beta virt. eigenvalues --    0.13163   0.13729   0.14007   0.14894   0.15951

 Mulliken charges and spin densities:
               1          2
     1  C    1.067224  -1.564377
     2  C   -0.924125   0.966482
     3  C    0.713417  -1.295826
     4  O   -0.095227   0.004021
     5  C   -0.061247  -0.160800
     6  C    0.779798  -1.087589
     7  C   -0.081089  -0.141075
     8  N   -0.124454   0.061219
     9  N   -0.141206  -0.146201
    10  C    0.002507  -0.174162
    11  H   -0.368450   0.497850
    12  H   -0.097676   0.255788
    13  H   -0.403971   0.538748
    14  H   -0.339758   0.521496
    15  H   -0.107902   0.272740
    16  H   -0.009069   0.158038
    17  H   -0.288505   0.440611
    18  H    0.018279   0.191182
    19  H    0.073405   0.096383
    20  H    0.127612   0.011923
    21  H   -0.285943   0.511525
    22  H   -0.133062   0.384797
    23  H    0.237915  -0.071040
    24  H   -0.558475   0.728267
 Sum of Mulliken charges =  -1.00000   1.00000

 Dipole moment (field-independent basis, Debye):
    X=             -0.6549    Y=              4.3271    Z=              0.3078  Tot=              4.3872
 Quadrupole moment (field-independent basis, Debye-Ang):
   XX=           -135.0502   YY=            -98.1784   ZZ=            -95.6715
   XY=              2.9369   XZ=              5.1274   YZ=             -2.1937

 Summary of Natural Population Analysis:

                                       Natural Population
                Natural  -----------------------------------------------
    Atom  No    Charge         Core      Valence    Rydberg      Total
 -----------------------------------------------------------------------
      C    1   -0.29635      0.99964     2.29108    0.00563     3.29635
      C    2    0.06622      0.99956     1.91985    0.01438     2.93378
      C    3   -0.30187      0.99964     2.29652    0.00570     3.30187
      O    4   -0.30438      0.99987     3.29460    0.00991     4.30438
      C    5    0.07385      0.99954     1.91045    0.01616     2.92615
      C    6   -0.21490      0.99959     2.20787    0.00744     3.21490
      C    7    0.10881      0.99960     1.87460    0.01700     2.89119
      N    8   -0.14351      0.99958     2.62883    0.01511     3.64351
      N    9   -0.31156      0.99975     2.79942    0.01238     3.81156
      C   10   -0.23845      0.99959     2.22960    0.00926     3.23845
      H   11    0.09754      0.00000     0.40095    0.00152     0.40246
      H   12    0.10347      0.00000     0.39525    0.00128     0.39653
      H   13    0.10174      0.00000     0.39659    0.00168     0.39826
      H   14    0.08795      0.00000     0.41044    0.00161     0.41205
      H   15    0.09750      0.00000     0.40087    0.00163     0.40250
      H   16    0.10056      0.00000     0.39845    0.00099     0.39944
      H   17    0.10595      0.00000     0.39273    0.00132     0.39405
      H   18    0.08936      0.00000     0.40917    0.00146     0.41064
      H   19    0.10171      0.00000     0.39709    0.00120     0.39829
      H   20    0.10575      0.00000     0.39270    0.00155     0.39425
      H   21    0.17249      0.00000     0.32084    0.00667     0.32751
      H   22    0.17846      0.00000     0.31872    0.00282     0.32154
      H   23    0.10936      0.00000     0.38869    0.00194     0.39064
      H   24    0.11030      0.00000     0.38702    0.00268     0.38970
 =======================================================================
   * Total *    0.00000      9.99634    28.86233    0.14132    39.00000

 Normal termination of Gaussian 16 at Tue Dec  8 11:07:34 2020.
