 Gaussian 16, Revision A.03,

 -----------------------------------------------------------
 # opt freq B3LYP/6-31G(d) empiricaldispersion=gd3bj scf=xqc
 -----------------------------------------------------------

 -------------------------------
 CID_131505399_JID_6546_neutraal
 -------------------------------
 Symbolic Z-matrix:
 Charge =  0 Multiplicity = 1

 SCF Done:  E(RB3LYP) =  -1082.18772757     A.U. after   15 cycles
 SCF Done:  E(RB3LYP) =  -1082.19225247     A.U. after   12 cycles
 SCF Done:  E(RB3LYP) =  -1082.19273836     A.U. after   12 cycles
 SCF Done:  E(RB3LYP) =  -1082.19272029     A.U. after   11 cycles
 SCF Done:  E(RB3LYP) =  -1082.19277183     A.U. after   11 cycles
 SCF Done:  E(RB3LYP) =  -1082.19279495     A.U. after   10 cycles
 SCF Done:  E(RB3LYP) =  -1082.19279618     A.U. after    9 cycles
 SCF Done:  E(RB3LYP) =  -1082.19279646     A.U. after    8 cycles
 SCF Done:  E(RB3LYP) =  -1082.19279651     A.U. after    7 cycles
 SCF Done:  E(RB3LYP) =  -1082.19279653     A.U. after    7 cycles
 Optimization completed.
    -- Stationary point found.
 Normal termination of Gaussian 16 at Thu Dec 10 23:27:47 2020.

 --------------------------------------------------------------------
 #N Geom=AllCheck Guess=TCheck SCRF=Check GenChk RB3LYP/6-31G(d) Freq
 --------------------------------------------------------------------

 Structure from the checkpoint file:  "JID_6546.chk"
 -------------------------------
 CID_131505399_JID_6546_neutraal
 -------------------------------
 Charge =  0 Multiplicity = 1

 SCF Done:  E(RB3LYP) =  -1082.19279653     A.U. after    1 cycles

  Exact polarizability: 225.384  -2.714 155.607   0.871   2.672  65.536
 Approx polarizability: 344.318   0.710 280.857   2.732   6.130 107.300

                      1                      2                      3
                      A                      A                      A
 Frequencies --     41.0290                65.9661                89.2683
 Red. masses --     10.9639                 5.5644                 7.0162
 Frc consts  --      0.0109                 0.0143                 0.0329
 IR Inten    --      1.2641                 0.0425                 0.0445

                      4                      5                      6
                      A                      A                      A
 Frequencies --    116.7247               151.5969               209.8574
 Red. masses --      6.2373                 4.0360                 3.7888
 Frc consts  --      0.0501                 0.0546                 0.0983
 IR Inten    --      1.1423                 1.5300                 2.0555

                      7                      8                      9
                      A                      A                      A
 Frequencies --    243.5426               260.0599               322.2606
 Red. masses --      3.9181                 5.7328                 8.3858
 Frc consts  --      0.1369                 0.2284                 0.5131
 IR Inten    --      0.7741                 1.1001                 0.4542

                     10                     11                     12
                      A                      A                      A
 Frequencies --    344.5437               372.5299               433.9351
 Red. masses --      3.3024                 7.8950                 6.4426
 Frc consts  --      0.2310                 0.6455                 0.7148
 IR Inten    --      1.5856                 4.2250                 0.7195

                     13                     14                     15
                      A                      A                      A
 Frequencies --    450.9606               471.9822               505.3239
 Red. masses --      4.8343                 5.4583                 5.4994
 Frc consts  --      0.5792                 0.7164                 0.8274
 IR Inten    --      1.3380                11.1072                 3.9950

                     16                     17                     18
                      A                      A                      A
 Frequencies --    526.5565               550.3430               591.7178
 Red. masses --      3.0395                 5.2686                 4.6153
 Frc consts  --      0.4965                 0.9402                 0.9521
 IR Inten    --     17.2546                10.2734                11.3635

                     19                     20                     21
                      A                      A                      A
 Frequencies --    607.7642               635.0661               669.4703
 Red. masses --      2.3216                 2.7191                 2.2646
 Frc consts  --      0.5053                 0.6461                 0.5980
 IR Inten    --     64.1806                64.3934                 1.3251

                     22                     23                     24
                      A                      A                      A
 Frequencies --    676.0543               712.4860               724.6945
 Red. masses --      5.9959                 2.7590                 2.9807
 Frc consts  --      1.6146                 0.8252                 0.9223
 IR Inten    --     12.3923                23.2441                43.4676

                     25                     26                     27
                      A                      A                      A
 Frequencies --    746.8735               785.7069               786.9297
 Red. masses --      2.5218                 4.2340                 6.0211
 Frc consts  --      0.8288                 1.5400                 2.1968
 IR Inten    --     33.5251                 0.4066                17.0721

                     28                     29                     30
                      A                      A                      A
 Frequencies --    819.5991               860.3907               913.6946
 Red. masses --      4.3399                 4.3760                 1.3242
 Frc consts  --      1.7176                 1.9086                 0.6513
 IR Inten    --      0.8421                19.2898                 1.6224

                     31                     32                     33
                      A                      A                      A
 Frequencies --    926.4346               939.6744               979.4388
 Red. masses --      2.9074                 1.5010                 4.1377
 Frc consts  --      1.4702                 0.7809                 2.3386
 IR Inten    --      9.0400                 3.2536                 2.8098

                     34                     35                     36
                      A                      A                      A
 Frequencies --    991.9812              1049.1139              1099.5255
 Red. masses --      2.4158                 2.2325                 3.2561
 Frc consts  --      1.4006                 1.4477                 2.3193
 IR Inten    --      0.3545                 9.7720                 6.1945

                     37                     38                     39
                      A                      A                      A
 Frequencies --   1110.4728              1158.7869              1180.3882
 Red. masses --      1.3173                 3.6808                 2.3629
 Frc consts  --      0.9571                 2.9121                 1.9398
 IR Inten    --     10.2554               302.6687                34.6246

                     40                     41                     42
                      A                      A                      A
 Frequencies --   1200.1211              1217.7341              1241.8569
 Red. masses --      1.3067                 2.2214                 1.6235
 Frc consts  --      1.1089                 1.9408                 1.4752
 IR Inten    --     24.6121                94.2614                31.3071

                     43                     44                     45
                      A                      A                      A
 Frequencies --   1261.6039              1289.2025              1316.8622
 Red. masses --      2.8925                 2.2953                 2.1396
 Frc consts  --      2.7125                 2.2476                 2.1860
 IR Inten    --     27.8389                 8.4265                 6.6940

                     46                     47                     48
                      A                      A                      A
 Frequencies --   1368.0908              1373.4405              1384.9288
 Red. masses --      1.5674                 3.4905                 1.9386
 Frc consts  --      1.7285                 3.8793                 2.1907
 IR Inten    --     12.1403                61.2439                55.3783

                     49                     50                     51
                      A                      A                      A
 Frequencies --   1394.6744              1477.4244              1485.8281
 Red. masses --      1.9610                 5.2993                 5.1433
 Frc consts  --      2.2474                 6.8152                 6.6900
 IR Inten    --     11.8273                10.9169                97.6725

                     52                     53                     54
                      A                      A                      A
 Frequencies --   1494.2084              1510.6535              1518.1110
 Red. masses --      1.2040                 1.8175                 1.8147
 Frc consts  --      1.5838                 2.4437                 2.4642
 IR Inten    --     20.3841                 7.7032                 0.3086

                     55                     56                     57
                      A                      A                      A
 Frequencies --   1591.1997              1600.6275              1611.0385
 Red. masses --      6.9598                 8.2614                 6.6682
 Frc consts  --     10.3824                12.4705                10.1970
 IR Inten    --     12.7205                59.2221                 6.1708

                     58                     59                     60
                      A                      A                      A
 Frequencies --   1849.8428              3020.1914              3031.0288
 Red. masses --     10.3034                 1.0726                 1.0681
 Frc consts  --     20.7730                 5.7645                 5.7814
 IR Inten    --    256.8521                13.8678                27.3112

                     61                     62                     63
                      A                      A                      A
 Frequencies --   3097.1646              3123.7304              3227.0591
 Red. masses --      1.0927                 1.0926                 1.0921
 Frc consts  --      6.1758                 6.2814                 6.7007
 IR Inten    --     18.5288                12.8149                 4.9540

                     64                     65                     66
                      A                      A                      A
 Frequencies --   3247.2691              3275.6414              3700.6800
 Red. masses --      1.0900                 1.0987                 1.0642
 Frc consts  --      6.7721                 6.9460                 8.5871
 IR Inten    --      1.2483                 0.2013                85.5596

 - Thermochemistry -
 -------------------
 Temperature   298.150 Kelvin.  Pressure   1.00000 Atm.
 Atom     1 has atomic number  6 and mass  12.00000

 Molecular mass:   232.03065 amu.
 Principal axes and moments of inertia in atomic units:
                           1         2         3
     Eigenvalues --  1716.593686166.350557814.41283
           X            1.00000   0.00288  -0.00024
           Y           -0.00287   0.99999   0.00263
           Z            0.00025  -0.00263   1.00000
 This molecule is an asymmetric top.
 Rotational symmetry number  1.
 Warning -- assumption of classical behavior for rotation
           may cause significant error
 Rotational temperatures (Kelvin)      0.05046     0.01405     0.01108
 Rotational constants (GHZ):           1.05135     0.29268     0.23095
 Zero-point vibrational energy     460759.4 (Joules/Mol)
                                  110.12414 (Kcal/Mol)
 Warning -- explicit consideration of  19 degrees of freedom as
           vibrations may cause significant error
 Vibrational temperatures:     59.03    94.91   128.44   167.94   218.11
          (Kelvin)            301.94   350.40   374.17   463.66   495.72
                              535.99   624.34   648.83   679.08   727.05
                              757.60   791.82   851.35   874.44   913.72
                              963.22   972.69  1025.11  1042.67  1074.58
                             1130.46  1132.22  1179.22  1237.91  1314.60
                             1332.93  1351.98  1409.19  1427.24  1509.44
                             1581.97  1597.72  1667.24  1698.32  1726.71
                             1752.05  1786.76  1815.17  1854.87  1894.67
                             1968.38  1976.07  1992.60  2006.63  2125.68
                             2137.78  2149.83  2173.49  2184.22  2289.38
                             2302.95  2317.93  2661.51  4345.38  4360.97
                             4456.13  4494.35  4643.02  4672.10  4712.92
                             5324.45

 Zero-point correction=                           0.175494 (Hartree/Particle)
 Thermal correction to Energy=                    0.187902
 Thermal correction to Enthalpy=                  0.188846
 Thermal correction to Gibbs Free Energy=         0.135636
 Sum of electronic and zero-point Energies=          -1082.017303
 Sum of electronic and thermal Energies=             -1082.004895
 Sum of electronic and thermal Enthalpies=           -1082.003951
 Sum of electronic and thermal Free Energies=        -1082.057160

                     E (Thermal)             CV                S
                      KCal/Mol        Cal/Mol-Kelvin    Cal/Mol-Kelvin
 Total                  117.910             48.633            111.989
 Electronic               0.000              0.000              0.000
 Translational            0.889              2.981             42.227
 Rotational               0.889              2.981             32.781
 Vibrational            116.133             42.671             36.981
 Vibration     1          0.594              1.981              5.209
 Vibration     2          0.597              1.971              4.270
 Vibration     3          0.602              1.957              3.676
 Vibration     4          0.608              1.935              3.154
 Vibration     5          0.619              1.901              2.652
 Vibration     6          0.642              1.826              2.045
 Vibration     7          0.659              1.773              1.777
 Vibration     8          0.668              1.746              1.661
 Vibration     9          0.707              1.631              1.299
 Vibration    10          0.723              1.586              1.191
 Vibration    11          0.744              1.529              1.069
 Vibration    12          0.795              1.396              0.846
 Vibration    13          0.810              1.359              0.793
 Vibration    14          0.829              1.312              0.732
 Vibration    15          0.861              1.238              0.645
 Vibration    16          0.882              1.191              0.595
 Vibration    17          0.906              1.139              0.543
 Vibration    18          0.949              1.049              0.464
 Vibration    19          0.967              1.015              0.436

                           ! Non-Optimized Parameters !
 Normal termination of Gaussian 16 at Thu Dec 10 23:35:25 2020.

 ----------------------------------------------------------------------
 # B3LYP/6-311++G(d,p) empiricaldispersion=gd3bj scf=xqc pop=npa geom=c
 heck
 ----------------------------------------------------------------------

 ---------------------------------------
 CID_131505399_JID_6546_Energie_neutraal
 ---------------------------------------
 Structure from the checkpoint file:  "JID_6546.chk"
 Charge =  0 Multiplicity = 1

 SCF Done:  E(RB3LYP) =  -1082.40557515     A.U. after   16 cycles
 Normal termination of Gaussian 16 at Thu Dec 10 23:38:21 2020.

 ----------------------------------------------------------------------
 # B3LYP/6-311++G(d,p) empiricaldispersion=gd3bj scf=xqc pop=npa geom=c
 heck
 ----------------------------------------------------------------------

 -------------------------------------
 CID_131505399_JID_6546_Energie_kation
 -------------------------------------
 Structure from the checkpoint file:  "JID_6546.chk"
 Charge =  1 Multiplicity = 2

 SCF Done:  E(UB3LYP) =  -1082.10705574     A.U. after   26 cycles
 Normal termination of Gaussian 16 at Thu Dec 10 23:44:54 2020.
 Gaussian 16:  ES64L-G16RevA.03 25-Dec-2016

 ----------------------------------------------------------------------
 # B3LYP/6-311++G(d,p) empiricaldispersion=gd3bj scf=xqc pop=npa geom=c
 heck
 ----------------------------------------------------------------------

 ------------------------------------
 CID_131505399_JID_6546_Energie_anion
 ------------------------------------
 Structure from the checkpoint file:  "JID_6546.chk"
 Charge = -1 Multiplicity = 2

                         Standard orientation:
 ---------------------------------------------------------------------
 Center     Atomic      Atomic             Coordinates (Angstroms)
 Number     Number       Type             X           Y           Z
 ---------------------------------------------------------------------
      1          6           0        2.321090    1.787782    0.379151
      2          6           0        1.085076    2.381537   -0.321790
      3          6           0       -0.159009    1.547036   -0.132138
      4          7           0       -1.341261    2.155430   -0.084427
      5          6           0       -2.427105    1.369772   -0.001481
      6          6           0       -2.325879   -0.022754    0.013659
      7          7           0       -1.137821   -0.645091   -0.018100
      8          6           0       -0.054409    0.130267   -0.077941
      9          6           0        1.274211   -0.476616   -0.080494
     10          6           0        2.388556    0.311196    0.111819
     11         16           0        3.833427   -0.646973    0.123000
     12          6           0        2.920034   -2.112610   -0.138671
     13          6           0        1.581692   -1.869009   -0.221749
     14          6           0       -3.529498   -0.910243    0.066774
     15          8           0       -3.511951   -2.118451    0.063317
     16          8           0       -4.681836   -0.189811    0.119549
     17          1           0        3.224282    2.301209    0.034319
     18          1           0        2.256555    1.960484    1.463610
     19          1           0        1.285453    2.432436   -1.402513
     20          1           0        0.885224    3.401855    0.015679
     21          1           0       -3.391845    1.863149    0.046643
     22          1           0        3.437581   -3.058063   -0.224707
     23          1           0        0.824759   -2.627213   -0.379431
     24          1           0       -5.401521   -0.846704    0.150331
 ---------------------------------------------------------------------

 SCF Done:  E(UB3LYP) =  -1082.42964213     A.U. after   31 cycles

 The electronic state is 2-A.
 Alpha  occ. eigenvalues --  -88.76982 -19.02446 -18.95005 -14.15581 -14.14607
 Alpha  occ. eigenvalues --  -10.13432 -10.09137 -10.09094 -10.07672 -10.06839
 Alpha  occ. eigenvalues --  -10.06496 -10.06229 -10.05954 -10.05333 -10.04837
 Alpha  occ. eigenvalues --  -10.04371  -7.85614  -5.81898  -5.81542  -5.81213
 Alpha  occ. eigenvalues --   -0.96004  -0.86649  -0.82283  -0.77666  -0.74919
 Alpha  occ. eigenvalues --   -0.69401  -0.64818  -0.60978  -0.60457  -0.55186
 Alpha  occ. eigenvalues --   -0.50703  -0.49449  -0.46895  -0.43983  -0.41032
 Alpha  occ. eigenvalues --   -0.39320  -0.36834  -0.35805  -0.34892  -0.33388
 Alpha  occ. eigenvalues --   -0.31940  -0.31000  -0.30682  -0.29214  -0.28544
 Alpha  occ. eigenvalues --   -0.27434  -0.27113  -0.25685  -0.24893  -0.23912
 Alpha  occ. eigenvalues --   -0.23889  -0.21998  -0.18887  -0.18162  -0.15325
 Alpha  occ. eigenvalues --   -0.15068  -0.13519  -0.12951  -0.09628  -0.09319
 Alpha  occ. eigenvalues --    0.03533
 Alpha virt. eigenvalues --    0.07734   0.08000   0.08178   0.09274   0.10212
 Alpha virt. eigenvalues --    0.10530   0.11238   0.11528   0.11972   0.12501
 Alpha virt. eigenvalues --    0.13730   0.14114   0.14342   0.15179   0.15494

  Beta  occ. eigenvalues --  -88.76983 -19.02369 -18.94752 -14.15347 -14.14055
  Beta  occ. eigenvalues --  -10.13237 -10.09182 -10.09056 -10.07652 -10.06978
  Beta  occ. eigenvalues --  -10.06503 -10.06205 -10.05995 -10.05371 -10.04397
  Beta  occ. eigenvalues --  -10.04135  -7.85615  -5.81898  -5.81542  -5.81216
  Beta  occ. eigenvalues --   -0.95733  -0.86258  -0.81682  -0.77637  -0.74121
  Beta  occ. eigenvalues --   -0.69258  -0.64663  -0.60721  -0.60330  -0.54628
  Beta  occ. eigenvalues --   -0.50619  -0.49228  -0.46696  -0.43656  -0.40888
  Beta  occ. eigenvalues --   -0.39248  -0.36599  -0.35611  -0.34747  -0.33117
  Beta  occ. eigenvalues --   -0.31796  -0.30546  -0.29748  -0.29096  -0.28324
  Beta  occ. eigenvalues --   -0.27210  -0.26599  -0.25449  -0.24824  -0.23791
  Beta  occ. eigenvalues --   -0.23312  -0.21847  -0.17648  -0.17328  -0.14668
  Beta  occ. eigenvalues --   -0.13871  -0.13061  -0.12608  -0.08862  -0.08614
  Beta virt. eigenvalues --    0.07831   0.07930   0.08122   0.09273   0.10142
  Beta virt. eigenvalues --    0.10540   0.10897   0.11254   0.11512   0.11999
  Beta virt. eigenvalues --    0.12503   0.13742   0.14065   0.14319   0.15456

 Mulliken charges and spin densities:
               1          2
     1  C    0.209298   0.122418
     2  C   -0.360580  -0.046012
     3  C   -0.467338   0.214274
     4  N   -0.087967   0.118976
     5  C   -0.011539  -0.012418
     6  C   -0.141106   0.147837
     7  N    0.027085   0.263073
     8  C   -0.697463  -0.090689
     9  C   -1.671063  -0.070148
    10  C    2.115515  -0.048740
    11  S   -0.746902   0.009017
    12  C   -0.204825   0.027384
    13  C   -0.003689  -0.002586
    14  C    0.349981   0.123810
    15  O   -0.385179   0.091778
    16  O   -0.220754   0.015547
    17  H    0.062529   0.063438
    18  H    0.149027  -0.009541
    19  H    0.055680   0.102117
    20  H    0.158723  -0.017274
    21  H    0.190982   0.001846
    22  H    0.217518  -0.001645
    23  H    0.205817  -0.001813
    24  H    0.256251  -0.000650
 Sum of Mulliken charges =  -1.00000   1.00000

 Dipole moment (field-independent basis, Debye):
    X=              5.2819    Y=              0.8223    Z=              0.2324  Tot=              5.3506
 Quadrupole moment (field-independent basis, Debye-Ang):
   XX=           -132.2758   YY=           -123.1702   ZZ=           -106.5839
   XY=             -4.8280   XZ=              0.6411   YZ=              2.1795

 Summary of Natural Population Analysis:

                                       Natural Population
                Natural  -----------------------------------------------
    Atom  No    Charge         Core      Valence    Rydberg      Total
 -----------------------------------------------------------------------
      C    1   -0.19791      0.99959     2.18868    0.00965     3.19791
      C    2   -0.20096      0.99961     2.19173    0.00961     3.20096
      C    3    0.17617      0.99951     1.80878    0.01553     2.82383
      N    4   -0.21178      0.99968     2.70026    0.01184     3.71178
      C    5    0.01643      0.99956     1.97115    0.01285     2.98357
      C    6    0.05165      0.99949     1.93618    0.01268     2.94835
      N    7   -0.12232      0.99966     2.61119    0.01148     3.62232
      C    8    0.04590      0.99946     1.94215    0.01248     2.95410
      C    9   -0.04528      0.99940     2.03565    0.01023     3.04528
      C   10   -0.10308      0.99943     2.09249    0.01117     3.10308
      S   11    0.18352      4.99941     2.79433    0.02275     7.81648
      C   12   -0.19315      0.99955     2.18320    0.01040     3.19315
      C   13   -0.10912      0.99950     2.09973    0.00989     3.10912
      C   14    0.41355      0.99970     1.56204    0.02471     2.58645
      O   15   -0.29206      0.99987     3.28506    0.00713     4.29206
      O   16   -0.35485      0.99988     3.34905    0.00592     4.35485
      H   17    0.09800      0.00000     0.39988    0.00212     0.40200
      H   18    0.09982      0.00000     0.39830    0.00188     0.40018
      H   19    0.10144      0.00000     0.39649    0.00207     0.39856
      H   20    0.10453      0.00000     0.39282    0.00264     0.39547
      H   21    0.09110      0.00000     0.40747    0.00143     0.40890
      H   22    0.10308      0.00000     0.39600    0.00092     0.39692
      H   23    0.11900      0.00000     0.37994    0.00107     0.38100
      H   24    0.22634      0.00000     0.26736    0.00630     0.27366
 =======================================================================
   * Total *    0.00000     19.99330    39.78994    0.21676    60.00000

 Normal termination of Gaussian 16 at Thu Dec 10 23:52:48 2020.
