 Gaussian 16, Revision A.03,

 -----------------------------------------------------------
 # opt freq B3LYP/6-31G(d) empiricaldispersion=gd3bj scf=xqc
 -----------------------------------------------------------

 -------------------------------
 CID_140166133_JID_6131_neutraal
 -------------------------------
 Symbolic Z-matrix:
 Charge =  0 Multiplicity = 1

 SCF Done:  E(RB3LYP) =  -725.673617842     A.U. after   15 cycles
 SCF Done:  E(RB3LYP) =  -725.677198724     A.U. after   13 cycles
 SCF Done:  E(RB3LYP) =  -725.677841642     A.U. after   13 cycles
 SCF Done:  E(RB3LYP) =  -725.678290586     A.U. after   13 cycles
 SCF Done:  E(RB3LYP) =  -725.679733060     A.U. after   13 cycles
 SCF Done:  E(RB3LYP) =  -725.680157046     A.U. after   12 cycles
 SCF Done:  E(RB3LYP) =  -725.680465545     A.U. after   12 cycles
 SCF Done:  E(RB3LYP) =  -725.680697773     A.U. after   11 cycles
 SCF Done:  E(RB3LYP) =  -725.680757156     A.U. after   12 cycles
 SCF Done:  E(RB3LYP) =  -725.680843544     A.U. after   11 cycles
 SCF Done:  E(RB3LYP) =  -725.680917782     A.U. after   10 cycles
 SCF Done:  E(RB3LYP) =  -725.680922802     A.U. after   10 cycles
 SCF Done:  E(RB3LYP) =  -725.680924295     A.U. after    9 cycles
 SCF Done:  E(RB3LYP) =  -725.680924506     A.U. after    8 cycles
 SCF Done:  E(RB3LYP) =  -725.680924650     A.U. after    7 cycles
 Optimization completed.
    -- Stationary point found.
 Normal termination of Gaussian 16 at Thu Dec 10 21:19:24 2020.

 --------------------------------------------------------------------
 #N Geom=AllCheck Guess=TCheck SCRF=Check GenChk RB3LYP/6-31G(d) Freq
 --------------------------------------------------------------------

 Structure from the checkpoint file:  "JID_6131.chk"
 -------------------------------
 CID_140166133_JID_6131_neutraal
 -------------------------------
 Charge =  0 Multiplicity = 1

 SCF Done:  E(RB3LYP) =  -725.680924650     A.U. after    1 cycles

  Exact polarizability: 157.169  14.466 132.170  -5.037  -4.890 107.662
 Approx polarizability: 232.593  21.483 193.812 -18.867 -12.985 188.650

                      1                      2                      3
                      A                      A                      A
 Frequencies --     37.6162                56.2029                68.5766
 Red. masses --      3.9334                 3.9252                 5.2594
 Frc consts  --      0.0033                 0.0073                 0.0146
 IR Inten    --      0.0683                 0.4138                 0.6276

                      4                      5                      6
                      A                      A                      A
 Frequencies --     80.3580               110.0362               126.8929
 Red. masses --      5.6987                 3.1413                 2.9995
 Frc consts  --      0.0217                 0.0224                 0.0285
 IR Inten    --      0.6648                 0.2471                 0.7441

                      7                      8                      9
                      A                      A                      A
 Frequencies --    135.5260               158.1828               196.7816
 Red. masses --      1.2887                 3.4229                 3.2814
 Frc consts  --      0.0139                 0.0505                 0.0749
 IR Inten    --      0.6855                 1.3222                 5.4348

                     10                     11                     12
                      A                      A                      A
 Frequencies --    229.1574               250.4314               308.6459
 Red. masses --      4.4834                 3.1479                 4.1471
 Frc consts  --      0.1387                 0.1163                 0.2328
 IR Inten    --      1.6442                11.3121                 7.3104

                     13                     14                     15
                      A                      A                      A
 Frequencies --    327.7812               368.8641               391.1273
 Red. masses --      4.1223                 4.4453                 2.7122
 Frc consts  --      0.2610                 0.3564                 0.2445
 IR Inten    --      5.0109                 5.3332                 5.0976

                     16                     17                     18
                      A                      A                      A
 Frequencies --    422.3829               504.0269               560.2264
 Red. masses --      4.0239                 2.7087                 4.1577
 Frc consts  --      0.4230                 0.4054                 0.7688
 IR Inten    --      4.0296                 1.0865                 4.5522

                     19                     20                     21
                      A                      A                      A
 Frequencies --    579.0019               608.6067               637.2513
 Red. masses --      3.3605                 5.4798                 2.8415
 Frc consts  --      0.6638                 1.1959                 0.6799
 IR Inten    --     10.4622                 1.7559                 6.8600

                     22                     23                     24
                      A                      A                      A
 Frequencies --    643.6277               702.8600               713.5999
 Red. masses --      2.1476                 4.5928                 1.3995
 Frc consts  --      0.5242                 1.3368                 0.4199
 IR Inten    --     13.3411                 4.5732                36.2708

                     25                     26                     27
                      A                      A                      A
 Frequencies --    739.0353               762.8662               787.7532
 Red. masses --      3.3363                 2.1955                 4.2010
 Frc consts  --      1.0736                 0.7528                 1.5360
 IR Inten    --     10.8844                43.6618                 6.4623

                     28                     29                     30
                      A                      A                      A
 Frequencies --    803.2620               842.9957               878.2557
 Red. masses --      1.6843                 1.3020                 3.9046
 Frc consts  --      0.6403                 0.5452                 1.7745
 IR Inten    --     16.0894                 6.7936                 1.3901

                     31                     32                     33
                      A                      A                      A
 Frequencies --    909.5375               933.5950               950.2139
 Red. masses --      5.0749                 5.7707                 2.4514
 Frc consts  --      2.4735                 2.9634                 1.3041
 IR Inten    --      1.4022                 3.7252                 6.4392

                     34                     35                     36
                      A                      A                      A
 Frequencies --    956.8441               975.4877               982.2941
 Red. masses --      2.4851                 1.7411                 1.7708
 Frc consts  --      1.3405                 0.9761                 1.0067
 IR Inten    --      7.2466                 3.9508                 0.3714

                     37                     38                     39
                      A                      A                      A
 Frequencies --    994.9928               998.4110              1012.0934
 Red. masses --      2.4355                 1.3117                 3.1026
 Frc consts  --      1.4206                 0.7704                 1.8725
 IR Inten    --      4.5750                 1.1250                 9.3548

                     40                     41                     42
                      A                      A                      A
 Frequencies --   1039.5413              1104.8744              1111.6768
 Red. masses --      5.3279                 2.0450                 1.3796
 Frc consts  --      3.3923                 1.4709                 1.0046
 IR Inten    --     25.4339                 0.9585                 6.6183

                     43                     44                     45
                      A                      A                      A
 Frequencies --   1152.3107              1186.2956              1193.2853
 Red. masses --      1.9680                 1.2751                 1.8667
 Frc consts  --      1.5396                 1.0573                 1.5660
 IR Inten    --     27.3654                 1.0679                 7.9301

                     46                     47                     48
                      A                      A                      A
 Frequencies --   1198.4953              1217.7233              1220.2354
 Red. masses --      1.1885                 1.5529                 1.1049
 Frc consts  --      1.0058                 1.3568                 0.9693
 IR Inten    --      4.7265                22.1191                 0.5657

                     49                     50                     51
                      A                      A                      A
 Frequencies --   1231.4046              1245.1461              1286.5184
 Red. masses --      1.3006                 3.3796                 1.7404
 Frc consts  --      1.1620                 3.0871                 1.6972
 IR Inten    --      3.2240               333.9468                13.2535

                     52                     53                     54
                      A                      A                      A
 Frequencies --   1312.8922              1323.9458              1336.0416
 Red. masses --      1.6580                 1.9225                 1.5078
 Frc consts  --      1.6838                 1.9854                 1.5858
 IR Inten    --     21.0912                28.9319                 6.1036

                     55                     56                     57
                      A                      A                      A
 Frequencies --   1373.6440              1414.0036              1418.7782
 Red. masses --      1.3145                 1.5993                 1.5874
 Frc consts  --      1.4613                 1.8839                 1.8826
 IR Inten    --      1.2562                 1.4859                14.3104

                     58                     59                     60
                      A                      A                      A
 Frequencies --   1423.1844              1460.1731              1471.1513
 Red. masses --      2.8779                 1.7591                 3.7478
 Frc consts  --      3.4344                 2.2098                 4.7790
 IR Inten    --      0.7243                 2.5698                23.1241

                     61                     62                     63
                      A                      A                      A
 Frequencies --   1492.4150              1501.4490              1504.1903
 Red. masses --      1.2122                 1.1792                 1.2294
 Frc consts  --      1.5907                 1.5663                 1.6389
 IR Inten    --     12.1243                10.5415                 2.4783

                     64                     65                     66
                      A                      A                      A
 Frequencies --   1512.9738              1524.0960              1532.2564
 Red. masses --      1.0479                 1.0507                 2.9071
 Frc consts  --      1.4132                 1.4380                 4.0213
 IR Inten    --      6.2304                 8.0755                44.4372

                     67                     68                     69
                      A                      A                      A
 Frequencies --   1570.7176              1664.1370              1727.7486
 Red. masses --      5.0382                 7.2010                 5.4707
 Frc consts  --      7.3235                11.7495                 9.6218
 IR Inten    --      7.1156                 4.7475                 1.5684

                     70                     71                     72
                      A                      A                      A
 Frequencies --   1849.6021              3014.1902              3077.0919
 Red. masses --     11.3057                 1.0721                 1.0394
 Frc consts  --     22.7878                 5.7389                 5.7984
 IR Inten    --    145.5132                29.1135                39.0459

                     73                     74                     75
                      A                      A                      A
 Frequencies --   3077.3439              3081.9761              3082.5850
 Red. masses --      1.0733                 1.0858                 1.0690
 Frc consts  --      5.9887                 6.0764                 5.9847
 IR Inten    --      0.6869                 4.9694                25.6533

                     76                     77                     78
                      A                      A                      A
 Frequencies --   3140.4307              3152.7566              3171.8152
 Red. masses --      1.0997                 1.1074                 1.0845
 Frc consts  --      6.3899                 6.4856                 6.4281
 IR Inten    --     10.2004                20.1312                 0.3208

                     79                     80                     81
                      A                      A                      A
 Frequencies --   3179.5440              3185.4788              3197.4801
 Red. masses --      1.0874                 1.1073                 1.0950
 Frc consts  --      6.4771                 6.6201                 6.5960
 IR Inten    --     17.1780                14.7150                31.1774

                     82                     83                     84
                      A                      A                      A
 Frequencies --   3206.2918              3259.1173              3286.4720
 Red. masses --      1.0973                 1.0912                 1.1044
 Frc consts  --      6.6466                 6.8290                 7.0283
 IR Inten    --     16.2532                 9.3746                 6.1004

 - Thermochemistry -
 -------------------
 Temperature   298.150 Kelvin.  Pressure   1.00000 Atm.
 Atom     1 has atomic number  6 and mass  12.00000

 Molecular mass:   218.10553 amu.
 Principal axes and moments of inertia in atomic units:
                           1         2         3
     Eigenvalues --  2559.506323277.705344895.27146
           X            0.99971  -0.02282   0.00774
           Y            0.02284   0.99974  -0.00240
           Z           -0.00768   0.00258   0.99997
 This molecule is an asymmetric top.
 Rotational symmetry number  1.
 Warning -- assumption of classical behavior for rotation
           may cause significant error
 Rotational temperatures (Kelvin)      0.03384     0.02643     0.01769
 Rotational constants (GHZ):           0.70511     0.55061     0.36867
 Zero-point vibrational energy     648728.2 (Joules/Mol)
                                  155.04976 (Kcal/Mol)
 Warning -- explicit consideration of  20 degrees of freedom as
           vibrations may cause significant error
 Vibrational temperatures:     54.12    80.86    98.67   115.62   158.32
          (Kelvin)            182.57   194.99   227.59   283.12   329.71
                              360.31   444.07   471.60   530.71   562.75
                              607.71   725.18   806.04   833.05   875.65
                              916.86   926.04  1011.26  1026.71  1063.31
                             1097.59  1133.40  1155.71  1212.88  1263.61
                             1308.62  1343.24  1367.15  1376.69  1403.51
                             1413.30  1431.57  1436.49  1456.18  1495.67
                             1589.67  1599.46  1657.92  1706.81  1716.87
                             1724.37  1752.03  1755.65  1771.72  1791.49
                             1851.01  1888.96  1904.86  1922.27  1976.37
                             2034.44  2041.31  2047.64  2100.86  2116.66
                             2147.25  2160.25  2164.19  2176.83  2192.83
                             2204.58  2259.91  2394.32  2485.84  2661.16
                             4336.75  4427.25  4427.61  4434.28  4435.15
                             4518.38  4536.11  4563.53  4574.65  4583.19
                             4600.46  4613.14  4689.14  4728.50

 Zero-point correction=                           0.247088 (Hartree/Particle)
 Thermal correction to Energy=                    0.261592
 Thermal correction to Enthalpy=                  0.262536
 Thermal correction to Gibbs Free Energy=         0.204694
 Sum of electronic and zero-point Energies=           -725.433837
 Sum of electronic and thermal Energies=              -725.419333
 Sum of electronic and thermal Enthalpies=            -725.418388
 Sum of electronic and thermal Free Energies=         -725.476230

                     E (Thermal)             CV                S
                      KCal/Mol        Cal/Mol-Kelvin    Cal/Mol-Kelvin
 Total                  164.152             54.492            121.738
 Electronic               0.000              0.000              0.000
 Translational            0.889              2.981             42.042
 Rotational               0.889              2.981             32.085
 Vibrational            162.374             48.530             47.611
 Vibration     1          0.594              1.982              5.381
 Vibration     2          0.596              1.975              4.586
 Vibration     3          0.598              1.969              4.194
 Vibration     4          0.600              1.962              3.882
 Vibration     5          0.606              1.941              3.268
 Vibration     6          0.611              1.926              2.993
 Vibration     7          0.613              1.918              2.866
 Vibration     8          0.621              1.893              2.571
 Vibration     9          0.636              1.844              2.163
 Vibration    10          0.652              1.797              1.886
 Vibration    11          0.663              1.762              1.728
 Vibration    12          0.698              1.657              1.370
 Vibration    13          0.711              1.620              1.271
 Vibration    14          0.741              1.536              1.085
 Vibration    15          0.759              1.489              0.996
 Vibration    16          0.785              1.422              0.884
 Vibration    17          0.859              1.241              0.648
 Vibration    18          0.916              1.117              0.523
 Vibration    19          0.936              1.077              0.487
 Vibration    20          0.967              1.014              0.435

 Optimization completed.
    -- Stationary point found.
 Normal termination of Gaussian 16 at Thu Dec 10 21:30:52 2020.

 ----------------------------------------------------------------------
 # B3LYP/6-311++G(d,p) empiricaldispersion=gd3bj scf=xqc pop=npa geom=c
 heck
 ----------------------------------------------------------------------

 ---------------------------------------
 CID_140166133_JID_6131_Energie_neutraal
 ---------------------------------------
 Structure from the checkpoint file:  "JID_6131.chk"
 Charge =  0 Multiplicity = 1

 SCF Done:  E(RB3LYP) =  -725.881620591     A.U. after   15 cycles
 Normal termination of Gaussian 16 at Thu Dec 10 21:35:11 2020.

 ----------------------------------------------------------------------
 # B3LYP/6-311++G(d,p) empiricaldispersion=gd3bj scf=xqc pop=npa geom=c
 heck
 ----------------------------------------------------------------------

 -------------------------------------
 CID_140166133_JID_6131_Energie_kation
 -------------------------------------
 Structure from the checkpoint file:  "JID_6131.chk"
 Charge =  1 Multiplicity = 2

 SCF Done:  E(UB3LYP) =  -725.591695906     A.U. after   24 cycles
 Normal termination of Gaussian 16 at Thu Dec 10 21:44:46 2020.
 Gaussian 16:  ES64L-G16RevA.03 25-Dec-2016

 ----------------------------------------------------------------------
 # B3LYP/6-311++G(d,p) empiricaldispersion=gd3bj scf=xqc pop=npa geom=c
 heck
 ----------------------------------------------------------------------

 ------------------------------------
 CID_140166133_JID_6131_Energie_anion
 ------------------------------------
 Structure from the checkpoint file:  "JID_6131.chk"
 Charge = -1 Multiplicity = 2

                         Standard orientation:
 ---------------------------------------------------------------------
 Center     Atomic      Atomic             Coordinates (Angstroms)
 Number     Number       Type             X           Y           Z
 ---------------------------------------------------------------------
      1          6           0        3.625435   -1.287152    0.239448
      2          8           0        2.518346   -0.902427   -0.591742
      3          6           0        1.306811   -1.286349   -0.139791
      4          8           0        1.120595   -1.931334    0.863435
      5          6           0        0.231220   -0.806700   -1.107424
      6          7           0       -1.095472   -0.915313   -0.552663
      7          6           0       -1.908874   -2.028727   -0.656957
      8          6           0       -3.026858   -1.742845    0.080735
      9          7           0       -2.919811   -0.491940    0.646271
     10          6           0       -1.749610   -0.014345    0.260495
     11          6           0       -1.232498    1.338934    0.680835
     12          6           0       -1.202502    2.410478   -0.454448
     13          6           0        0.159299    2.684034   -1.040991
     14          6           0        1.285141    2.409272   -0.362810
     15          6           0        1.233599    1.733303    0.933962
     16          6           0        0.087691    1.227994    1.417543
     17          1           0        4.516251   -0.920005   -0.270154
     18          1           0        3.663125   -2.373485    0.351655
     19          1           0        3.529901   -0.830154    1.227914
     20          1           0        0.443740    0.224822   -1.394820
     21          1           0        0.288954   -1.412401   -2.018099
     22          1           0       -1.608075   -2.890576   -1.233728
     23          1           0       -3.901812   -2.359055    0.236107
     24          1           0       -1.992295    1.654911    1.402641
     25          1           0       -1.912931    2.128117   -1.239540
     26          1           0       -1.580401    3.358795   -0.043741
     27          1           0        0.201779    3.176102   -2.010130
     28          1           0        2.258046    2.659969   -0.777122
     29          1           0        2.160281    1.609017    1.488662
     30          1           0        0.075755    0.667419    2.347976
 ---------------------------------------------------------------------

 SCF Done:  E(UB3LYP) =  -725.876106325     A.U. after   33 cycles
 SCF Done:  E(UB3LYP) =  -725.876106325     a.u. after    1 cycles

 The electronic state is 2-A.
 Alpha  occ. eigenvalues --  -19.07013 -19.01169 -14.26278 -14.18160 -10.20178
 Alpha  occ. eigenvalues --  -10.12475 -10.11990 -10.11563 -10.09032 -10.07635
 Alpha  occ. eigenvalues --  -10.07315 -10.06121 -10.03907 -10.03781 -10.03698
 Alpha  occ. eigenvalues --  -10.03693  -1.01001  -0.92486  -0.90961  -0.78277
 Alpha  occ. eigenvalues --   -0.72313  -0.66738  -0.65608  -0.62306  -0.61464
 Alpha  occ. eigenvalues --   -0.59629  -0.51643  -0.49638  -0.48698  -0.47223
 Alpha  occ. eigenvalues --   -0.44271  -0.42321  -0.41186  -0.39113  -0.38425
 Alpha  occ. eigenvalues --   -0.37353  -0.35837  -0.34570  -0.33875  -0.33423
 Alpha  occ. eigenvalues --   -0.32317  -0.31496  -0.30989  -0.29251  -0.29079
 Alpha  occ. eigenvalues --   -0.27829  -0.26851  -0.26470  -0.25926  -0.21651
 Alpha  occ. eigenvalues --   -0.21121  -0.20442  -0.19190  -0.18798  -0.16668
 Alpha  occ. eigenvalues --   -0.16524  -0.11921  -0.10020   0.04490
 Alpha virt. eigenvalues --    0.06424   0.07108   0.08245   0.08673   0.09334
 Alpha virt. eigenvalues --    0.09718   0.10121   0.10473   0.11014   0.11239
 Alpha virt. eigenvalues --    0.12034   0.12432   0.12767   0.13498   0.14108

  Beta  occ. eigenvalues --  -19.07009 -19.01159 -14.26268 -14.18147 -10.20173
  Beta  occ. eigenvalues --  -10.12440 -10.11970 -10.11546 -10.09022 -10.07633
  Beta  occ. eigenvalues --  -10.07327 -10.06135 -10.03846 -10.03664 -10.03512
  Beta  occ. eigenvalues --  -10.03465  -1.00988  -0.92468  -0.90942  -0.78253
  Beta  occ. eigenvalues --   -0.72068  -0.66679  -0.65465  -0.61971  -0.61355
  Beta  occ. eigenvalues --   -0.59534  -0.51560  -0.49613  -0.48657  -0.46738
  Beta  occ. eigenvalues --   -0.44214  -0.42249  -0.41117  -0.39084  -0.38303
  Beta  occ. eigenvalues --   -0.37325  -0.35662  -0.34494  -0.33806  -0.33314
  Beta  occ. eigenvalues --   -0.32198  -0.31397  -0.30960  -0.29144  -0.28951
  Beta  occ. eigenvalues --   -0.27764  -0.26766  -0.26443  -0.25743  -0.21500
  Beta  occ. eigenvalues --   -0.21097  -0.20318  -0.18796  -0.18268  -0.16611
  Beta  occ. eigenvalues --   -0.16493  -0.11863  -0.08876
  Beta virt. eigenvalues --    0.06960   0.07767   0.08265   0.08741   0.08970
  Beta virt. eigenvalues --    0.09604   0.09933   0.10334   0.10735   0.11123
  Beta virt. eigenvalues --    0.11365   0.12208   0.12462   0.12800   0.13679

 Mulliken charges and spin densities:
               1          2
     1  C    0.691227  -0.892100
     2  O    0.033723   0.044293
     3  C   -0.213158   0.339617
     4  O   -0.187120  -0.002031
     5  C   -0.163096  -0.657924
     6  N    0.319767  -0.024370
     7  C    0.059378  -0.058488
     8  C    0.128716  -0.202078
     9  N   -0.057122   0.017116
    10  C   -0.693849  -0.003831
    11  C    0.186772   0.197482
    12  C   -0.227887  -0.639236
    13  C   -0.465322   0.586631
    14  C    0.395435  -0.655409
    15  C   -0.460057   0.173284
    16  C    0.040579   0.031938
    17  H   -0.379285   0.532502
    18  H   -0.211722   0.378052
    19  H    0.001373   0.179199
    20  H    0.266239   0.016326
    21  H   -0.533230   0.726070
    22  H   -0.179560   0.328832
    23  H    0.116004   0.025326
    24  H    0.191821   0.055590
    25  H    0.154944   0.008165
    26  H    0.063184   0.081568
    27  H    0.004824   0.127918
    28  H   -0.065171   0.198990
    29  H   -0.009254   0.118197
    30  H    0.191846  -0.031627
 Sum of Mulliken charges =  -1.00000   1.00000

 Dipole moment (field-independent basis, Debye):
    X=             -2.4860    Y=              0.0333    Z=             -0.4872  Tot=              2.5335
 Quadrupole moment (field-independent basis, Debye-Ang):
   XX=           -147.5593   YY=           -133.8533   ZZ=           -120.2621
   XY=              2.0610   XZ=              4.5589   YZ=             -0.4271

 Summary of Natural Population Analysis:

                                       Natural Population
                Natural  -----------------------------------------------
    Atom  No    Charge         Core      Valence    Rydberg      Total
 -----------------------------------------------------------------------
      C    1   -0.10388      0.99959     2.09539    0.00889     3.10388
      O    2   -0.27779      0.99986     3.26836    0.00957     4.27779
      C    3    0.40901      0.99970     1.56558    0.02571     2.59099
      O    4   -0.29903      0.99987     3.29388    0.00528     4.29903
      C    5   -0.13784      0.99955     2.12571    0.01258     3.13784
      N    6   -0.20554      0.99960     2.69512    0.01082     3.70554
      C    7   -0.03363      0.99955     2.02220    0.01188     3.03363
      C    8   -0.03868      0.99958     2.02597    0.01313     3.03868
      N    9   -0.26217      0.99970     2.75277    0.00970     3.76217
      C   10    0.21286      0.99956     1.76751    0.02007     2.78714
      C   11   -0.14806      0.99954     2.13825    0.01027     3.14806
      C   12   -0.20235      0.99961     2.19474    0.00801     3.20235
      C   13   -0.05403      0.99954     2.04500    0.00948     3.05403
      C   14   -0.11483      0.99952     2.10352    0.01179     3.11483
      C   15   -0.11553      0.99952     2.10507    0.01094     3.11553
      C   16   -0.04452      0.99953     2.03594    0.00905     3.04452
      H   17    0.09285      0.00000     0.40571    0.00144     0.40715
      H   18    0.09169      0.00000     0.40694    0.00137     0.40831
      H   19    0.09234      0.00000     0.40649    0.00116     0.40766
      H   20    0.13190      0.00000     0.36564    0.00246     0.36810
      H   21    0.11259      0.00000     0.38576    0.00165     0.38741
      H   22    0.10127      0.00000     0.39769    0.00105     0.39873
      H   23    0.09252      0.00000     0.40658    0.00090     0.40748
      H   24    0.11796      0.00000     0.37993    0.00211     0.38204
      H   25    0.10199      0.00000     0.39678    0.00123     0.39801
      H   26    0.10317      0.00000     0.39549    0.00134     0.39683
      H   27    0.09032      0.00000     0.40884    0.00084     0.40968
      H   28    0.09708      0.00000     0.40196    0.00096     0.40292
      H   29    0.09484      0.00000     0.40362    0.00154     0.40516
      H   30    0.09549      0.00000     0.40350    0.00101     0.40451
 =======================================================================
   * Total *   -0.00000     15.99382    41.79994    0.20624    58.00000

 Normal termination of Gaussian 16 at Thu Dec 10 21:57:45 2020.
