 Gaussian 16, Revision A.03,

 -----------------------------------------------------------
 # opt freq B3LYP/6-31G(d) empiricaldispersion=gd3bj scf=xqc
 -----------------------------------------------------------

 -------------------------------
 CID_131181597_JID_1079_neutraal
 -------------------------------
 Symbolic Z-matrix:
 Charge =  0 Multiplicity = 1

 SCF Done:  E(RB3LYP) =  -481.854629621     A.U. after   14 cycles
 SCF Done:  E(RB3LYP) =  -481.876771947     A.U. after   12 cycles
 SCF Done:  E(RB3LYP) =  -481.878737734     A.U. after   12 cycles
 SCF Done:  E(RB3LYP) =  -481.878620022     A.U. after   12 cycles
 SCF Done:  E(RB3LYP) =  -481.876587859     A.U. after   12 cycles
 SCF Done:  E(RB3LYP) =  -481.876186562     A.U. after   12 cycles
 SCF Done:  E(RB3LYP) =  -481.878861433     A.U. after   10 cycles
 SCF Done:  E(RB3LYP) =  -481.879237295     A.U. after   12 cycles
 SCF Done:  E(RB3LYP) =  -481.878719355     A.U. after   12 cycles
 SCF Done:  E(RB3LYP) =  -481.879061598     A.U. after   11 cycles
 SCF Done:  E(RB3LYP) =  -481.879672733     A.U. after   10 cycles
 SCF Done:  E(RB3LYP) =  -481.879676475     A.U. after   10 cycles
 SCF Done:  E(RB3LYP) =  -481.879677562     A.U. after    9 cycles
 SCF Done:  E(RB3LYP) =  -481.879677793     A.U. after    7 cycles
 SCF Done:  E(RB3LYP) =  -481.879677812     A.U. after    6 cycles
 Optimization completed.
    -- Stationary point found.
 Normal termination of Gaussian 16 at Tue Dec  8 19:18:21 2020.

 --------------------------------------------------------------------
 #N Geom=AllCheck Guess=TCheck SCRF=Check GenChk RB3LYP/6-31G(d) Freq
 --------------------------------------------------------------------

 Structure from the checkpoint file:  "JID_1079.chk"
 -------------------------------
 CID_131181597_JID_1079_neutraal
 -------------------------------
 Charge =  0 Multiplicity = 1

 SCF Done:  E(RB3LYP) =  -481.879677812     A.U. after    1 cycles

  Exact polarizability: 117.497  12.157 102.004   2.677   0.080  82.610
 Approx polarizability: 157.840  24.403 143.752   3.666   1.983 118.184

                      1                      2                      3
                      A                      A                      A
 Frequencies --     21.8408                27.6212                51.4648
 Red. masses --      1.0141                 3.7761                 2.5335
 Frc consts  --      0.0003                 0.0017                 0.0040
 IR Inten    --      0.0062                 0.6807                 3.3711

                      4                      5                      6
                      A                      A                      A
 Frequencies --     68.6693               117.9334               183.2801
 Red. masses --      3.5299                 3.6122                 3.3531
 Frc consts  --      0.0098                 0.0296                 0.0664
 IR Inten    --      0.7759                 5.1280                 3.3821

                      7                      8                      9
                      A                      A                      A
 Frequencies --    208.6689               217.7667               269.0805
 Red. masses --      4.1061                 2.5747                 2.3507
 Frc consts  --      0.1053                 0.0719                 0.1003
 IR Inten    --      2.4480                 3.3008                 1.8872

                     10                     11                     12
                      A                      A                      A
 Frequencies --    288.2615               314.3889               348.5409
 Red. masses --      1.3934                 3.4153                 2.1845
 Frc consts  --      0.0682                 0.1989                 0.1564
 IR Inten    --      1.1209                 2.0348                 2.7267

                     13                     14                     15
                      A                      A                      A
 Frequencies --    366.5364               376.6288               421.1804
 Red. masses --      3.4083                 3.1037                 3.4189
 Frc consts  --      0.2698                 0.2594                 0.3573
 IR Inten    --      1.0617                 0.1748                 0.5694

                     16                     17                     18
                      A                      A                      A
 Frequencies --    453.8691               538.9728               645.8059
 Red. masses --      3.7060                 3.9095                 2.0859
 Frc consts  --      0.4498                 0.6691                 0.5126
 IR Inten    --      2.5322                 1.9986                32.8500

                     19                     20                     21
                      A                      A                      A
 Frequencies --    679.7448               763.1299               799.1542
 Red. masses --      1.3889                 2.1798                 3.7669
 Frc consts  --      0.3781                 0.7479                 1.4174
 IR Inten    --    122.2634                 9.1248                 0.6396

                     22                     23                     24
                      A                      A                      A
 Frequencies --    824.1963               853.8213               935.2946
 Red. masses --      2.6045                 1.3740                 1.3799
 Frc consts  --      1.0424                 0.5902                 0.7112
 IR Inten    --     15.9366                 3.0666                 3.6075

                     25                     26                     27
                      A                      A                      A
 Frequencies --    957.5787              1000.3475              1029.2504
 Red. masses --      3.1183                 1.8608                 3.2611
 Frc consts  --      1.6847                 1.0971                 2.0354
 IR Inten    --     33.0987                 9.7383                20.6879

                     28                     29                     30
                      A                      A                      A
 Frequencies --   1038.3914              1070.2921              1071.8410
 Red. masses --      2.2223                 1.4008                 1.3949
 Frc consts  --      1.4118                 0.9454                 0.9442
 IR Inten    --     20.7207                 2.0578                 0.6535

                     31                     32                     33
                      A                      A                      A
 Frequencies --   1079.1486              1084.5183              1122.8144
 Red. masses --      1.4416                 4.2187                 1.5527
 Frc consts  --      0.9891                 2.9235                 1.1533
 IR Inten    --     10.5294                79.2443                11.2287

                     34                     35                     36
                      A                      A                      A
 Frequencies --   1142.1293              1150.7011              1161.8364
 Red. masses --      1.4392                 2.1119                 1.4234
 Frc consts  --      1.1061                 1.6476                 1.1321
 IR Inten    --     10.6910                27.3846                10.3620

                     37                     38                     39
                      A                      A                      A
 Frequencies --   1180.8280              1190.3138              1242.0198
 Red. masses --      1.8349                 2.2404                 1.7432
 Frc consts  --      1.5075                 1.8703                 1.5844
 IR Inten    --      5.2711                 6.2646                 5.2050

                     40                     41                     42
                      A                      A                      A
 Frequencies --   1273.5152              1280.8033              1328.2049
 Red. masses --      1.2815                 1.5642                 1.5796
 Frc consts  --      1.2245                 1.5118                 1.6419
 IR Inten    --      5.1210                 6.1697                30.8387

                     43                     44                     45
                      A                      A                      A
 Frequencies --   1386.3922              1408.9742              1426.2739
 Red. masses --      1.3004                 1.3834                 1.3447
 Frc consts  --      1.4727                 1.6182                 1.6116
 IR Inten    --      9.5893                47.3933                 0.8926

                     46                     47                     48
                      A                      A                      A
 Frequencies --   1441.7169              1445.2999              1461.2118
 Red. masses --      1.4308                 1.2413                 1.2233
 Frc consts  --      1.7522                 1.5277                 1.5389
 IR Inten    --     20.5479                 1.9867                49.2156

                     49                     50                     51
                      A                      A                      A
 Frequencies --   1485.3253              1507.1475              1507.6927
 Red. masses --      1.1855                 1.0878                 1.0464
 Frc consts  --      1.5409                 1.4558                 1.4014
 IR Inten    --      5.9035                 0.4747                 5.2926

                     52                     53                     54
                      A                      A                      A
 Frequencies --   1509.5425              1519.2009              1530.9595
 Red. masses --      1.0412                 1.2497                 1.0690
 Frc consts  --      1.3979                 1.6994                 1.4763
 IR Inten    --      6.8142                 7.4830                15.6678

                     55                     56                     57
                      A                      A                      A
 Frequencies --   1535.4791              1541.2933              2379.5914
 Red. masses --      1.1604                 1.0515                11.8214
 Frc consts  --      1.6119                 1.4717                39.4387
 IR Inten    --      5.5282                 8.2745                 6.3605

                     58                     59                     60
                      A                      A                      A
 Frequencies --   2947.4989              2969.7480              3012.1665
 Red. masses --      1.0720                 1.0585                 1.0702
 Frc consts  --      5.4875                 5.5000                 5.7210
 IR Inten    --     41.8588                89.6826                49.9751

                     61                     62                     63
                      A                      A                      A
 Frequencies --   3038.9570              3049.1607              3056.5415
 Red. masses --      1.0346                 1.0859                 1.0867
 Frc consts  --      5.6297                 5.9482                 5.9817
 IR Inten    --     34.0448                49.6720                18.3255

                     64                     65                     66
                      A                      A                      A
 Frequencies --   3092.1352              3097.3633              3098.9006
 Red. masses --      1.0777                 1.0945                 1.1013
 Frc consts  --      6.0711                 6.1865                 6.2313
 IR Inten    --     32.0021                45.2291                11.5953

                     67                     68                     69
                      A                      A                      A
 Frequencies --   3101.6094              3152.6447              3159.2497
 Red. masses --      1.1017                 1.1013                 1.0721
 Frc consts  --      6.2441                 6.4494                 6.3044
 IR Inten    --     12.2520                10.5228                20.8958

                     70                     71                     72
                      A                      A                      A
 Frequencies --   3165.1660              3252.2469              3671.7765
 Red. masses --      1.0752                 1.1143                 1.0650
 Frc consts  --      6.3468                 6.9442                 8.4593
 IR Inten    --     22.1429                 7.6869                90.8106

 - Thermochemistry -
 -------------------
 Temperature   298.150 Kelvin.  Pressure   1.00000 Atm.
 Atom     1 has atomic number  6 and mass  12.00000

 Molecular mass:   153.11536 amu.
 Principal axes and moments of inertia in atomic units:
                           1         2         3
     Eigenvalues --  1240.993882639.082913070.52486
           X            0.99941   0.03270   0.01059
           Y           -0.03264   0.99945  -0.00590
           Z           -0.01077   0.00555   0.99993
 This molecule is an asymmetric top.
 Rotational symmetry number  1.
 Warning -- assumption of classical behavior for rotation
           may cause significant error
 Rotational temperatures (Kelvin)      0.06979     0.03282     0.02821
 Rotational constants (GHZ):           1.45427     0.68385     0.58776
 Zero-point vibrational energy     598920.3 (Joules/Mol)
                                  143.14538 (Kcal/Mol)
 Warning -- explicit consideration of  17 degrees of freedom as
           vibrations may cause significant error
 Vibrational temperatures:     31.42    39.74    74.05    98.80   169.68
          (Kelvin)            263.70   300.23   313.32   387.15   414.74
                              452.34   501.47   527.36   541.88   605.98
                              653.02   775.46   929.17   978.00  1097.97
                             1149.80  1185.83  1228.46  1345.68  1377.74
                             1439.28  1480.86  1494.01  1539.91  1542.14
                             1552.65  1560.38  1615.48  1643.27  1655.60
                             1671.62  1698.95  1712.60  1786.99  1832.30
                             1842.79  1910.99  1994.71  2027.20  2052.09
                             2074.31  2079.46  2102.36  2137.05  2168.45
                             2169.23  2171.90  2185.79  2202.71  2209.21
                             2217.58  3423.70  4240.79  4272.81  4333.84
                             4372.38  4387.06  4397.68  4448.89  4456.41
                             4458.63  4462.52  4535.95  4545.46  4553.97
                             4679.26  5282.87

 Zero-point correction=                           0.228117 (Hartree/Particle)
 Thermal correction to Energy=                    0.240916
 Thermal correction to Enthalpy=                  0.241860
 Thermal correction to Gibbs Free Energy=         0.187030
 Sum of electronic and zero-point Energies=           -481.651561
 Sum of electronic and thermal Energies=              -481.638762
 Sum of electronic and thermal Enthalpies=            -481.637818
 Sum of electronic and thermal Free Energies=         -481.692648

                     E (Thermal)             CV                S
                      KCal/Mol        Cal/Mol-Kelvin    Cal/Mol-Kelvin
 Total                  151.177             45.646            115.400
 Electronic               0.000              0.000              0.000
 Translational            0.889              2.981             40.988
 Rotational               0.889              2.981             30.687
 Vibrational            149.400             39.685             43.725
 Vibration     1          0.593              1.985              6.459
 Vibration     2          0.593              1.984              5.993
 Vibration     3          0.596              1.977              4.760
 Vibration     4          0.598              1.969              4.191
 Vibration     5          0.608              1.934              3.134
 Vibration     6          0.631              1.863              2.295
 Vibration     7          0.642              1.827              2.055
 Vibration     8          0.646              1.814              1.978
 Vibration     9          0.673              1.730              1.602
 Vibration    10          0.685              1.696              1.484
 Vibration    11          0.702              1.646              1.339
 Vibration    12          0.726              1.578              1.173
 Vibration    13          0.739              1.541              1.094
 Vibration    14          0.747              1.520              1.053
 Vibration    15          0.784              1.424              0.888
 Vibration    16          0.812              1.352              0.784
 Vibration    17          0.894              1.164              0.567

                           ! Non-Optimized Parameters !
 Normal termination of Gaussian 16 at Tue Dec  8 19:23:55 2020.

 ----------------------------------------------------------------------
 # B3LYP/6-311++G(d,p) empiricaldispersion=gd3bj scf=xqc pop=npa geom=c
 heck
 ----------------------------------------------------------------------

 ---------------------------------------
 CID_131181597_JID_1079_Energie_neutraal
 ---------------------------------------
 Structure from the checkpoint file:  "JID_1079.chk"
 Charge =  0 Multiplicity = 1

 SCF Done:  E(RB3LYP) =  -482.025789631     A.U. after   14 cycles
 Normal termination of Gaussian 16 at Tue Dec  8 19:26:21 2020.

 ----------------------------------------------------------------------
 # B3LYP/6-311++G(d,p) empiricaldispersion=gd3bj scf=xqc pop=npa geom=c
 heck
 ----------------------------------------------------------------------

 -------------------------------------
 CID_131181597_JID_1079_Energie_kation
 -------------------------------------
 Structure from the checkpoint file:  "JID_1079.chk"
 Charge =  1 Multiplicity = 2

 SCF Done:  E(UB3LYP) =  -481.713857448     A.U. after   26 cycles
 Normal termination of Gaussian 16 at Tue Dec  8 19:32:43 2020.
 Gaussian 16:  ES64L-G16RevA.03 25-Dec-2016

 ----------------------------------------------------------------------
 # B3LYP/6-311++G(d,p) empiricaldispersion=gd3bj scf=xqc pop=npa geom=c
 heck
 ----------------------------------------------------------------------

 ------------------------------------
 CID_131181597_JID_1079_Energie_anion
 ------------------------------------
 Structure from the checkpoint file:  "JID_1079.chk"
 Charge = -1 Multiplicity = 2

                         Standard orientation:
 ---------------------------------------------------------------------
 Center     Atomic      Atomic             Coordinates (Angstroms)
 Number     Number       Type             X           Y           Z
 ---------------------------------------------------------------------
      1          6           0       -3.994968   -0.919890   -0.452449
      2          6           0       -2.862237   -0.021341   -0.250063
      3          6           0       -1.913300    0.706943   -0.078225
      4          6           0       -0.796872    1.633861    0.113955
      5          7           0        0.531325    1.014825   -0.054985
      6          6           0        1.547053    2.058857   -0.239574
      7          6           0        0.916023    0.185589    1.072599
      8          6           0        0.219142   -1.099094    1.418336
      9          6           0        1.610952   -1.135556    0.825825
     10          6           0        1.756613   -1.656732   -0.601554
     11          8           0        2.321262   -0.720874   -1.509665
     12          1           0       -4.276743   -0.978174   -1.510577
     13          1           0       -4.874539   -0.581892    0.108560
     14          1           0       -3.758593   -1.936454   -0.114893
     15          1           0       -0.876105    2.435623   -0.631092
     16          1           0       -0.881498    2.122440    1.102730
     17          1           0        1.604601    2.749757    0.620946
     18          1           0        2.520460    1.580725   -0.369306
     19          1           0        1.318714    2.643605   -1.136809
     20          1           0        1.277985    0.756872    1.935308
     21          1           0        0.070646   -1.315693    2.472279
     22          1           0       -0.587727   -1.426381    0.773147
     23          1           0        2.440828   -1.357258    1.493009
     24          1           0        2.418731   -2.528478   -0.604174
     25          1           0        0.775770   -1.994291   -0.967811
     26          1           0        1.643652   -0.023000   -1.562209
 ---------------------------------------------------------------------

 SCF Done:  E(UB3LYP) =  -482.010169352     A.U. after   33 cycles
 SCF Done:  E(UB3LYP) =  -482.010169351     a.u. after    1 cycles

 The electronic state is 2-A.
 Alpha  occ. eigenvalues --  -19.01314 -14.22528 -10.11873 -10.11731 -10.10556
 Alpha  occ. eigenvalues --  -10.09403 -10.08279 -10.07889 -10.07153 -10.06292
 Alpha  occ. eigenvalues --  -10.05670  -0.91827  -0.84370  -0.75271  -0.68177
 Alpha  occ. eigenvalues --   -0.64210  -0.59777  -0.58219  -0.55819  -0.49350
 Alpha  occ. eigenvalues --   -0.46679  -0.43187  -0.39816  -0.39004  -0.37353
 Alpha  occ. eigenvalues --   -0.36540  -0.35211  -0.32972  -0.32536  -0.32374
 Alpha  occ. eigenvalues --   -0.32117  -0.31326  -0.29382  -0.28668  -0.28096
 Alpha  occ. eigenvalues --   -0.24792  -0.20459  -0.19195  -0.17318  -0.15935
 Alpha  occ. eigenvalues --   -0.15328  -0.14038   0.04545
 Alpha virt. eigenvalues --    0.06308   0.07034   0.08209   0.09078   0.09542
 Alpha virt. eigenvalues --    0.09750   0.09870   0.10742   0.11420   0.11951
 Alpha virt. eigenvalues --    0.12397   0.13202   0.13628   0.13882   0.14900

  Beta  occ. eigenvalues --  -19.01311 -14.22512 -10.11849 -10.11726 -10.10542
  Beta  occ. eigenvalues --  -10.09376 -10.08216 -10.07882 -10.07137 -10.06288
  Beta  occ. eigenvalues --  -10.05666  -0.91822  -0.84344  -0.75244  -0.68135
  Beta  occ. eigenvalues --   -0.64152  -0.59753  -0.58156  -0.55760  -0.49302
  Beta  occ. eigenvalues --   -0.46641  -0.43157  -0.39775  -0.38967  -0.37309
  Beta  occ. eigenvalues --   -0.36487  -0.35145  -0.32939  -0.32493  -0.32317
  Beta  occ. eigenvalues --   -0.32079  -0.31294  -0.29350  -0.28637  -0.28066
  Beta  occ. eigenvalues --   -0.24779  -0.20438  -0.19171  -0.17308  -0.15908
  Beta  occ. eigenvalues --   -0.15304  -0.13958
  Beta virt. eigenvalues --    0.06810   0.07427   0.07658   0.08619   0.09614
  Beta virt. eigenvalues --    0.10123   0.10247   0.10538   0.11087   0.11993
  Beta virt. eigenvalues --    0.12244   0.12682   0.13432   0.13913   0.14233

 Mulliken charges and spin densities:
               1          2
     1  C    4.152327  -4.421963
     2  C   -3.288219   2.850641
     3  C   -1.677865   2.393479
     4  C    1.992986  -2.788051
     5  N   -0.002266   0.119219
     6  C    0.481117  -0.844300
     7  C   -1.441151   1.074709
     8  C    0.728036  -1.316770
     9  C    0.417705  -0.105845
    10  C   -0.101136  -0.463487
    11  O   -0.265040   0.005939
    12  H   -0.365183   0.522039
    13  H   -0.352830   0.509386
    14  H   -0.666978   0.846804
    15  H   -0.199138   0.373225
    16  H   -0.086676   0.251358
    17  H   -0.233900   0.370299
    18  H    0.096452   0.048310
    19  H   -0.264773   0.404068
    20  H   -0.392228   0.582597
    21  H   -0.414516   0.576351
    22  H    0.624036  -0.538307
    23  H   -0.107333   0.313468
    24  H    0.157984  -0.009069
    25  H   -0.029915   0.204552
    26  H    0.238504   0.041348
 Sum of Mulliken charges =  -1.00000   1.00000

 Dipole moment (field-independent basis, Debye):
    X=              4.9331    Y=             -0.1299    Z=             -0.6660  Tot=              4.9796
 Quadrupole moment (field-independent basis, Debye-Ang):
   XX=           -140.1969   YY=           -108.8114   ZZ=           -108.7328
   XY=            -10.1876   XZ=             -1.8306   YZ=             -1.9641

 Summary of Natural Population Analysis:

                                       Natural Population
                Natural  -----------------------------------------------
    Atom  No    Charge         Core      Valence    Rydberg      Total
 -----------------------------------------------------------------------
      C    1   -0.31921      0.99961     2.31333    0.00627     3.31921
      C    2    0.00314      0.99924     1.99102    0.00661     2.99686
      C    3   -0.02215      0.99923     2.01421    0.00870     3.02215
      C    4   -0.11337      0.99954     2.10237    0.01146     3.11337
      N    5   -0.28746      0.99970     2.77293    0.01482     3.78746
      C    6   -0.18406      0.99964     2.17564    0.00879     3.18406
      C    7   -0.01092      0.99953     1.99756    0.01383     3.01092
      C    8   -0.19464      0.99959     2.18478    0.01027     3.19464
      C    9   -0.13025      0.99957     2.11965    0.01103     3.13025
      C   10   -0.01027      0.99958     1.99834    0.01235     3.01027
      O   11   -0.37823      0.99990     3.37122    0.00711     4.37823
      H   12    0.11221      0.00000     0.38589    0.00190     0.38779
      H   13    0.11316      0.00000     0.38508    0.00175     0.38684
      H   14    0.11345      0.00000     0.38424    0.00231     0.38655
      H   15    0.10827      0.00000     0.39001    0.00172     0.39173
      H   16    0.09817      0.00000     0.40007    0.00176     0.40183
      H   17    0.08619      0.00000     0.41216    0.00165     0.41381
      H   18    0.10448      0.00000     0.39428    0.00124     0.39552
      H   19    0.09595      0.00000     0.40289    0.00116     0.40405
      H   20    0.09439      0.00000     0.40346    0.00215     0.40561
      H   21    0.10536      0.00000     0.39336    0.00128     0.39464
      H   22    0.11275      0.00000     0.38568    0.00157     0.38725
      H   23    0.10174      0.00000     0.39722    0.00104     0.39826
      H   24    0.08526      0.00000     0.41364    0.00110     0.41474
      H   25    0.07919      0.00000     0.41915    0.00166     0.42081
      H   26    0.23685      0.00000     0.25938    0.00377     0.26315
 =======================================================================
   * Total *   -0.00000     10.99515    30.86754    0.13731    42.00000

 Normal termination of Gaussian 16 at Tue Dec  8 19:40:53 2020.
