 Gaussian 16, Revision A.03,

 -----------------------------------------------------------
 # opt freq B3LYP/6-31G(d) empiricaldispersion=gd3bj scf=xqc
 -----------------------------------------------------------

 -------------------------------
 CID_139514997_JID_7683_neutraal
 -------------------------------
 Symbolic Z-matrix:
 Charge =  0 Multiplicity = 1

 SCF Done:  E(RB3LYP) =  -1065.65711507     A.U. after   16 cycles
 SCF Done:  E(RB3LYP) =  -1065.66512663     A.U. after   14 cycles
 SCF Done:  E(RB3LYP) =  -1065.67294319     A.U. after   16 cycles
 SCF Done:  E(RB3LYP) =  -1065.68082590     A.U. after   16 cycles
 SCF Done:  E(RB3LYP) =  -1065.68705186     A.U. after   15 cycles
 SCF Done:  E(RB3LYP) =  -1065.69176358     A.U. after   16 cycles
 SCF Done:  E(RB3LYP) =  -1065.69107673     A.U. after   13 cycles
 SCF Done:  E(RB3LYP) =  -1065.69248322     A.U. after   12 cycles
 SCF Done:  E(RB3LYP) =  -1065.69262716     A.U. after   12 cycles
 SCF Done:  E(RB3LYP) =  -1065.69268841     A.U. after   11 cycles
 SCF Done:  E(RB3LYP) =  -1065.69279787     A.U. after    7 cycles
 SCF Done:  E(RB3LYP) =  -1065.69279788     A.U. after    6 cycles
 SCF Done:  E(RB3LYP) =  -1065.69279791     A.U. after    7 cycles
 SCF Done:  E(RB3LYP) =  -1065.69279794     A.U. after    7 cycles
 SCF Done:  E(RB3LYP) =  -1065.69279796     A.U. after    8 cycles
 SCF Done:  E(RB3LYP) =  -1065.69279797     A.U. after    7 cycles
 Optimization completed.
    -- Stationary point found.
 Normal termination of Gaussian 16 at Fri Dec 11 13:20:21 2020.

 --------------------------------------------------------------------
 #N Geom=AllCheck Guess=TCheck SCRF=Check GenChk RB3LYP/6-31G(d) Freq
 --------------------------------------------------------------------

 Structure from the checkpoint file:  "JID_7683.chk"
 -------------------------------
 CID_139514997_JID_7683_neutraal
 -------------------------------
 Charge =  0 Multiplicity = 1

 SCF Done:  E(RB3LYP) =  -1065.69279797     A.U. after    1 cycles

  Exact polarizability: 350.231  -4.975 210.592  -0.100  -2.513  66.191
 Approx polarizability: 528.592 -19.029 363.517   0.187  -5.829 104.305

                      1                      2                      3
                      A                      A                      A
 Frequencies --     15.3017                32.6171                52.0834
 Red. masses --      4.6242                 1.0307                 5.0208
 Frc consts  --      0.0006                 0.0006                 0.0080
 IR Inten    --      2.8465                 0.1387                10.0002

                      4                      5                      6
                      A                      A                      A
 Frequencies --     72.6215               104.0158               128.1445
 Red. masses --      5.6473                 4.5904                 4.8856
 Frc consts  --      0.0175                 0.0293                 0.0473
 IR Inten    --      1.7832                 1.3518                18.9956

                      7                      8                      9
                      A                      A                      A
 Frequencies --    188.4346               193.6073               199.4454
 Red. masses --      6.4365                 4.1622                 1.7153
 Frc consts  --      0.1347                 0.0919                 0.0402
 IR Inten    --      2.3842                 8.3346               118.8994

                     10                     11                     12
                      A                      A                      A
 Frequencies --    209.6452               261.6435               268.9656
 Red. masses --      2.3329                 1.1566                 3.6331
 Frc consts  --      0.0604                 0.0467                 0.1549
 IR Inten    --     36.4962                21.9871                 3.7655

                     13                     14                     15
                      A                      A                      A
 Frequencies --    307.2800               322.6901               342.9604
 Red. masses --      3.8846                 4.9694                 5.0856
 Frc consts  --      0.2161                 0.3049                 0.3524
 IR Inten    --      0.7398                 0.1506                 0.5483

                     16                     17                     18
                      A                      A                      A
 Frequencies --    383.7211               391.2816               429.7084
 Red. masses --      6.2707                 4.5299                 3.1964
 Frc consts  --      0.5440                 0.4086                 0.3477
 IR Inten    --      3.5670                 2.5066                 3.9380

                     19                     20                     21
                      A                      A                      A
 Frequencies --    454.4497               493.7235               536.9830
 Red. masses --      3.1594                 3.3000                 5.8001
 Frc consts  --      0.3844                 0.4740                 0.9854
 IR Inten    --      3.0037                 4.9585                 1.5266

                     22                     23                     24
                      A                      A                      A
 Frequencies --    554.5405               555.7137               594.6276
 Red. masses --      3.5127                 4.5615                 3.8509
 Frc consts  --      0.6364                 0.8300                 0.8022
 IR Inten    --     11.7782                32.3123                 3.0834

                     25                     26                     27
                      A                      A                      A
 Frequencies --    601.0543               642.9017               648.4537
 Red. masses --      6.9091                 1.2101                 5.8179
 Frc consts  --      1.4706                 0.2947                 1.4414
 IR Inten    --     10.3419                15.5986                14.3356

                     28                     29                     30
                      A                      A                      A
 Frequencies --    683.8044               738.9877               758.0058
 Red. masses --      6.6025                 4.1892                 2.6153
 Frc consts  --      1.8189                 1.3479                 0.8854
 IR Inten    --      0.3724                 0.6232                18.8287

                     31                     32                     33
                      A                      A                      A
 Frequencies --    771.6427               772.6596               815.7929
 Red. masses --      5.1671                 1.5060                 1.3153
 Frc consts  --      1.8127                 0.5297                 0.5158
 IR Inten    --      2.2862                29.7388                21.4277

                     34                     35                     36
                      A                      A                      A
 Frequencies --    826.5295               853.3763               920.3287
 Red. masses --      5.6928                 1.6225                 4.3368
 Frc consts  --      2.2914                 0.6962                 2.1642
 IR Inten    --      5.1928                 1.4656                 0.3224

                     37                     38                     39
                      A                      A                      A
 Frequencies --    929.6436               951.3536               955.5944
 Red. masses --      1.3461                 1.3400                 1.3367
 Frc consts  --      0.6854                 0.7145                 0.7192
 IR Inten    --      3.0095                 2.4743                 1.8725

                     40                     41                     42
                      A                      A                      A
 Frequencies --    958.8262               975.2303               998.9636
 Red. masses --      1.3660                 1.2555                 2.0225
 Frc consts  --      0.7399                 0.7035                 1.1891
 IR Inten    --     16.0877                 0.0321                 1.8563

                     43                     44                     45
                      A                      A                      A
 Frequencies --   1043.3987              1046.3128              1077.4325
 Red. masses --      1.8239                 1.8591                 1.5028
 Frc consts  --      1.1699                 1.1992                 1.0278
 IR Inten    --      8.7493                 7.5086                 4.2471

                     46                     47                     48
                      A                      A                      A
 Frequencies --   1083.5179              1087.1798              1168.1977
 Red. masses --      1.7658                 5.0687                 1.2707
 Frc consts  --      1.2214                 3.5298                 1.0217
 IR Inten    --      1.5289                31.0111                35.9252

                     49                     50                     51
                      A                      A                      A
 Frequencies --   1171.8418              1192.2339              1198.1315
 Red. masses --      1.9761                 1.4881                 1.1557
 Frc consts  --      1.5988                 1.2462                 0.9774
 IR Inten    --     25.8637                 9.6728                20.2011

                     52                     53                     54
                      A                      A                      A
 Frequencies --   1243.2421              1288.4063              1301.0055
 Red. masses --      2.7559                 4.1509                 1.6785
 Frc consts  --      2.5097                 4.0598                 1.6739
 IR Inten    --     53.4615               104.1746                 6.1583

                     55                     56                     57
                      A                      A                      A
 Frequencies --   1318.8425              1362.2408              1376.0132
 Red. masses --      1.8207                 5.5286                 2.7697
 Frc consts  --      1.8658                 6.0446                 3.0898
 IR Inten    --      0.9753                17.1748                41.3062

                     58                     59                     60
                      A                      A                      A
 Frequencies --   1402.3785              1438.0751              1443.6337
 Red. masses --      4.9898                 2.8756                 1.3041
 Frc consts  --      5.7818                 3.5039                 1.6013
 IR Inten    --     16.0685                34.7190                 6.6298

                     61                     62                     63
                      A                      A                      A
 Frequencies --   1480.3138              1514.2412              1515.4416
 Red. masses --      3.9153                 2.4868                 1.0444
 Frc consts  --      5.0550                 3.3595                 1.4132
 IR Inten    --    162.4719                27.3643                 5.5526

                     64                     65                     66
                      A                      A                      A
 Frequencies --   1524.1756              1529.0231              1546.8108
 Red. masses --      1.3319                 2.1138                 2.7949
 Frc consts  --      1.8231                 2.9116                 3.9400
 IR Inten    --     30.5368                37.8597                15.6416

                     67                     68                     69
                      A                      A                      A
 Frequencies --   1604.3989              1622.8041              1636.0157
 Red. masses --      3.4897                 6.4608                 1.8314
 Frc consts  --      5.2926                10.0247                 2.8881
 IR Inten    --     40.6310                 6.5635               102.5923

                     70                     71                     72
                      A                      A                      A
 Frequencies --   1657.7842              1681.6216              2681.4753
 Red. masses --      5.8952                 4.6980                 1.0381
 Frc consts  --      9.5456                 7.8275                 4.3978
 IR Inten    --      0.2020               104.7124                39.1040

                     73                     74                     75
                      A                      A                      A
 Frequencies --   3044.0611              3095.1209              3131.0599
 Red. masses --      1.0378                 1.1010                 1.1005
 Frc consts  --      5.6660                 6.2143                 6.3564
 IR Inten    --     42.5702                20.9891                12.9206

                     76                     77                     78
                      A                      A                      A
 Frequencies --   3174.6166              3179.2532              3195.1124
 Red. masses --      1.0872                 1.0871                 1.0905
 Frc consts  --      6.4554                 6.4737                 6.5594
 IR Inten    --     10.8401                 8.4577                21.3567

                     79                     80                     81
                      A                      A                      A
 Frequencies --   3198.0224              3207.1321              3222.1208
 Red. masses --      1.0943                 1.0897                 1.0968
 Frc consts  --      6.5939                 6.6040                 6.7089
 IR Inten    --     28.3395                12.5572                25.0682

                     82                     83                     84
                      A                      A                      A
 Frequencies --   3222.8413              3523.0871              3694.7896
 Red. masses --      1.0896                 1.0505                 1.0997
 Frc consts  --      6.6679                 7.6824                 8.8454
 IR Inten    --      3.1132                54.5505                70.4225

 - Thermochemistry -
 -------------------
 Temperature   298.150 Kelvin.  Pressure   1.00000 Atm.
 Atom     1 has atomic number  6 and mass  12.00000

 Molecular mass:   243.08302 amu.
 Principal axes and moments of inertia in atomic units:
                           1         2         3
     Eigenvalues --  2298.030837587.517029864.46144
           X            0.99989   0.01508   0.00015
           Y           -0.01508   0.99988  -0.00176
           Z           -0.00017   0.00175   1.00000
 This molecule is an asymmetric top.
 Rotational symmetry number  1.
 Warning -- assumption of classical behavior for rotation
           may cause significant error
 Rotational temperatures (Kelvin)      0.03769     0.01142     0.00878
 Rotational constants (GHZ):           0.78534     0.23786     0.18295
 Zero-point vibrational energy     616201.0 (Joules/Mol)
                                  147.27557 (Kcal/Mol)
 Warning -- explicit consideration of  25 degrees of freedom as
           vibrations may cause significant error
 Vibrational temperatures:     22.02    46.93    74.94   104.49   149.66
          (Kelvin)            184.37   271.12   278.56   286.96   301.63
                              376.45   386.98   442.11   464.28   493.44
                              552.09   562.97   618.25   653.85   710.36
                              772.60   797.86   799.55   855.54   864.78
                              924.99   932.98   983.84  1063.24  1090.60
                             1110.22  1111.68  1173.74  1189.19  1227.82
                             1324.15  1337.55  1368.79  1374.89  1379.54
                             1403.14  1437.29  1501.22  1505.41  1550.19
                             1558.94  1564.21  1680.78  1686.02  1715.36
                             1723.84  1788.75  1853.73  1871.86  1897.52
                             1959.96  1979.78  2017.71  2069.07  2077.07
                             2129.84  2178.66  2180.38  2192.95  2199.92
                             2225.52  2308.37  2334.85  2353.86  2385.18
                             2419.48  3858.04  4379.73  4453.19  4504.90
                             4567.57  4574.24  4597.05  4601.24  4614.35
                             4635.91  4636.95  5068.94  5315.98

 Zero-point correction=                           0.234699 (Hartree/Particle)
 Thermal correction to Energy=                    0.250620
 Thermal correction to Enthalpy=                  0.251564
 Thermal correction to Gibbs Free Energy=         0.189453
 Sum of electronic and zero-point Energies=          -1065.458099
 Sum of electronic and thermal Energies=             -1065.442178
 Sum of electronic and thermal Enthalpies=           -1065.441234
 Sum of electronic and thermal Free Energies=        -1065.503345

                     E (Thermal)             CV                S
                      KCal/Mol        Cal/Mol-Kelvin    Cal/Mol-Kelvin
 Total                  157.266             60.602            130.724
 Electronic               0.000              0.000              0.000
 Translational            0.889              2.981             42.366
 Rotational               0.889              2.981             33.508
 Vibrational            155.489             54.641             54.851
 Vibration     1          0.593              1.986              7.166
 Vibration     2          0.594              1.983              5.664
 Vibration     3          0.596              1.977              4.737
 Vibration     4          0.599              1.967              4.081
 Vibration     5          0.605              1.946              3.378
 Vibration     6          0.611              1.925              2.974
 Vibration     7          0.633              1.856              2.243
 Vibration     8          0.635              1.849              2.193
 Vibration     9          0.638              1.841              2.138
 Vibration    10          0.642              1.826              2.047
 Vibration    11          0.669              1.743              1.651
 Vibration    12          0.673              1.730              1.603
 Vibration    13          0.697              1.660              1.377
 Vibration    14          0.708              1.630              1.296
 Vibration    15          0.722              1.590              1.198
 Vibration    16          0.753              1.505              1.024
 Vibration    17          0.759              1.489              0.995
 Vibration    18          0.791              1.406              0.860
 Vibration    19          0.813              1.351              0.782
 Vibration    20          0.849              1.264              0.674
 Vibration    21          0.892              1.168              0.572
 Vibration    22          0.910              1.130              0.535
 Vibration    23          0.911              1.127              0.532
 Vibration    24          0.952              1.043              0.459
 Vibration    25          0.959              1.030              0.448

 Optimization completed.
    -- Stationary point found.
 Normal termination of Gaussian 16 at Fri Dec 11 13:29:18 2020.

 ----------------------------------------------------------------------
 # B3LYP/6-311++G(d,p) empiricaldispersion=gd3bj scf=xqc pop=npa geom=c
 heck
 ----------------------------------------------------------------------

 ---------------------------------------
 CID_139514997_JID_7683_Energie_neutraal
 ---------------------------------------
 Structure from the checkpoint file:  "JID_7683.chk"
 Charge =  0 Multiplicity = 1

 SCF Done:  E(RB3LYP) =  -1065.89872628     A.U. after   16 cycles
 Normal termination of Gaussian 16 at Fri Dec 11 13:33:20 2020.

 ----------------------------------------------------------------------
 # B3LYP/6-311++G(d,p) empiricaldispersion=gd3bj scf=xqc pop=npa geom=c
 heck
 ----------------------------------------------------------------------

 -------------------------------------
 CID_139514997_JID_7683_Energie_kation
 -------------------------------------
 Structure from the checkpoint file:  "JID_7683.chk"
 Charge =  1 Multiplicity = 2

 SCF Done:  E(UB3LYP) =  -1065.63770682     A.U. after   27 cycles
 Normal termination of Gaussian 16 at Fri Dec 11 13:42:40 2020.
 Gaussian 16:  ES64L-G16RevA.03 25-Dec-2016

 ----------------------------------------------------------------------
 # B3LYP/6-311++G(d,p) empiricaldispersion=gd3bj scf=xqc pop=npa geom=c
 heck
 ----------------------------------------------------------------------

 ------------------------------------
 CID_139514997_JID_7683_Energie_anion
 ------------------------------------
 Structure from the checkpoint file:  "JID_7683.chk"
 Charge = -1 Multiplicity = 2

                         Standard orientation:
 ---------------------------------------------------------------------
 Center     Atomic      Atomic             Coordinates (Angstroms)
 Number     Number       Type             X           Y           Z
 ---------------------------------------------------------------------
      1          6           0       -3.881146   -2.907183   -0.080187
      2          6           0       -3.288675   -1.519610   -0.041086
      3          6           0       -1.912649   -1.322013   -0.033083
      4          6           0       -1.358221   -0.032554    0.001600
      5          6           0       -2.205391    1.090018    0.029762
      6          6           0       -3.591205    0.897406    0.023906
      7          6           0       -4.120936   -0.387171   -0.013368
      8         16           0       -1.452867    2.705707    0.089859
      9          7           0        0.023927    0.239061   -0.002232
     10          7           0        0.777321   -0.785208    0.054338
     11          6           0        2.149352   -0.587561    0.032786
     12          6           0        2.905222   -1.777876    0.114575
     13          6           0        4.285739   -1.771997    0.097181
     14          6           0        4.953017   -0.538451   -0.008329
     15          6           0        4.248752    0.648925   -0.091424
     16          6           0        2.834658    0.668742   -0.070789
     17          7           0        2.161283    1.843017   -0.142356
     18          1           0       -4.515545   -3.046063   -0.964236
     19          1           0       -4.508096   -3.098370    0.799468
     20          1           0       -3.098780   -3.671226   -0.105882
     21          1           0       -1.227130   -2.162029   -0.056054
     22          1           0       -4.258103    1.754449    0.049028
     23          1           0       -5.200757   -0.514789   -0.021110
     24          1           0       -2.610710    3.394736    0.012114
     25          1           0        2.341119   -2.702040    0.190894
     26          1           0        4.845899   -2.698797    0.161750
     27          1           0        6.039230   -0.510617   -0.025775
     28          1           0        4.777512    1.595797   -0.171605
     29          1           0        2.664051    2.706508   -0.275508
     30          1           0        1.148367    1.818990   -0.168333
 ---------------------------------------------------------------------

 SCF Done:  E(UB3LYP) =  -1065.93477229     A.U. after   21 cycles

 The electronic state is 2-A.
 Alpha  occ. eigenvalues --  -88.73578 -14.18087 -14.16966 -14.16723 -10.08210
 Alpha  occ. eigenvalues --  -10.07383 -10.06271 -10.05998 -10.05574 -10.05414
 Alpha  occ. eigenvalues --  -10.05260 -10.04041 -10.03974 -10.03694 -10.03322
 Alpha  occ. eigenvalues --  -10.03085 -10.03068  -7.82199  -5.78586  -5.78195
 Alpha  occ. eigenvalues --   -5.77609  -0.86021  -0.78961  -0.73973  -0.70720
 Alpha  occ. eigenvalues --   -0.67882  -0.65185  -0.61891  -0.60720  -0.59370
 Alpha  occ. eigenvalues --   -0.55560  -0.53238  -0.48641  -0.48032  -0.45404
 Alpha  occ. eigenvalues --   -0.43102  -0.39587  -0.38980  -0.37045  -0.35589
 Alpha  occ. eigenvalues --   -0.34440  -0.32555  -0.31441  -0.31041  -0.29883
 Alpha  occ. eigenvalues --   -0.29760  -0.28833  -0.28574  -0.27533  -0.26537
 Alpha  occ. eigenvalues --   -0.25562  -0.24131  -0.23462  -0.22364  -0.22165
 Alpha  occ. eigenvalues --   -0.21642  -0.20394  -0.18794  -0.17006  -0.14343
 Alpha  occ. eigenvalues --   -0.11024  -0.09316  -0.06956  -0.06873   0.01644
 Alpha virt. eigenvalues --    0.07638   0.08225   0.08351   0.09413   0.09886
 Alpha virt. eigenvalues --    0.10415   0.10903   0.11382   0.11421   0.12468
 Alpha virt. eigenvalues --    0.12736   0.13334   0.13376   0.13707   0.14356

  Beta  occ. eigenvalues --  -88.73576 -14.17980 -14.16526 -14.16058 -10.08070
  Beta  occ. eigenvalues --  -10.07276 -10.06266 -10.05989 -10.05650 -10.05531
  Beta  occ. eigenvalues --  -10.05294 -10.03838 -10.03781 -10.03719 -10.03410
  Beta  occ. eigenvalues --  -10.02918 -10.02901  -7.82198  -5.78587  -5.78197
  Beta  occ. eigenvalues --   -5.77599  -0.84983  -0.78686  -0.73735  -0.70499
  Beta  occ. eigenvalues --   -0.67733  -0.64721  -0.61851  -0.60506  -0.59195
  Beta  occ. eigenvalues --   -0.55295  -0.52613  -0.48427  -0.47894  -0.45263
  Beta  occ. eigenvalues --   -0.42863  -0.39476  -0.38846  -0.36896  -0.35424
  Beta  occ. eigenvalues --   -0.34341  -0.32390  -0.31413  -0.30937  -0.29815
  Beta  occ. eigenvalues --   -0.29699  -0.28676  -0.27488  -0.27135  -0.26310
  Beta  occ. eigenvalues --   -0.24972  -0.23909  -0.23247  -0.22244  -0.21553
  Beta  occ. eigenvalues --   -0.20379  -0.20092  -0.18136  -0.16629  -0.13319
  Beta  occ. eigenvalues --   -0.10293  -0.08622  -0.06234  -0.06067
  Beta virt. eigenvalues --    0.07622   0.07707   0.08219   0.08340   0.09406
  Beta virt. eigenvalues --    0.09880   0.10528   0.10900   0.11382   0.11857
  Beta virt. eigenvalues --    0.12735   0.12968   0.13374   0.13706   0.14010

 Mulliken charges and spin densities:
               1          2
     1  C   -0.398750   0.014071
     2  C    0.625048  -0.065890
     3  C   -0.673383   0.154724
     4  C   -0.402589  -0.042046
     5  C    0.751025   0.088994
     6  C   -0.322214  -0.021502
     7  C   -0.507650   0.164797
     8  S   -0.640733  -0.001634
     9  N    0.126782   0.194790
    10  N   -0.078340   0.313874
    11  C   -0.226381  -0.098838
    12  C    0.020529   0.142639
    13  C   -0.399239  -0.071595
    14  C   -0.323284   0.171913
    15  C   -0.163400  -0.050240
    16  C    0.097330   0.107923
    17  N   -0.361314   0.050646
    18  H    0.127534  -0.000325
    19  H    0.131289  -0.000707
    20  H    0.144488  -0.000280
    21  H    0.162075  -0.015289
    22  H    0.083508   0.001115
    23  H    0.112501  -0.013045
    24  H    0.071276  -0.001090
    25  H    0.117154  -0.010133
    26  H    0.119513   0.004663
    27  H    0.102618  -0.012479
    28  H    0.083809   0.001076
    29  H    0.227164  -0.002591
    30  H    0.393633  -0.003540
 Sum of Mulliken charges =  -1.00000   1.00000

 Dipole moment (field-independent basis, Debye):
    X=             -2.3610    Y=              1.4763    Z=             -0.3817  Tot=              2.8106
 Quadrupole moment (field-independent basis, Debye-Ang):
   XX=           -149.2117   YY=           -115.8692   ZZ=           -121.8142
   XY=              4.5108   XZ=             -0.5393   YZ=             -1.0928

 Summary of Natural Population Analysis:

                                       Natural Population
                Natural  -----------------------------------------------
    Atom  No    Charge         Core      Valence    Rydberg      Total
 -----------------------------------------------------------------------
      C    1   -0.28811      0.99964     2.28386    0.00461     3.28811
      C    2   -0.04470      0.99952     2.03738    0.00780     3.04470
      C    3   -0.06788      0.99947     2.06014    0.00826     3.06788
      C    4    0.06041      0.99942     1.92648    0.01369     2.93959
      C    5   -0.06163      0.99936     2.05252    0.00975     3.06163
      C    6   -0.12768      0.99951     2.11859    0.00958     3.12768
      C    7   -0.06886      0.99952     2.06040    0.00894     3.06886
      S    8    0.01150      4.99957     2.97120    0.01773     7.98850
      N    9   -0.10476      0.99969     2.58570    0.01937     3.60476
      N   10   -0.02146      0.99969     2.50074    0.02103     3.52146
      C   11    0.00931      0.99948     1.97743    0.01379     2.99069
      C   12   -0.04222      0.99954     2.03318    0.00950     3.04222
      C   13   -0.16513      0.99957     2.15538    0.01018     3.16513
      C   14   -0.05332      0.99958     2.04446    0.00928     3.05332
      C   15   -0.15308      0.99955     2.14443    0.00910     3.15308
      C   16    0.12014      0.99950     1.86948    0.01088     2.87986
      N   17   -0.37875      0.99969     2.87071    0.00835     3.87875
      H   18    0.09548      0.00000     0.40346    0.00106     0.40452
      H   19    0.09560      0.00000     0.40334    0.00106     0.40440
      H   20    0.09982      0.00000     0.39933    0.00085     0.40018
      H   21    0.10739      0.00000     0.39029    0.00232     0.39261
      H   22    0.09084      0.00000     0.40759    0.00157     0.40916
      H   23    0.08727      0.00000     0.41125    0.00148     0.41273
      H   24    0.04256      0.00000     0.45429    0.00315     0.45744
      H   25    0.09777      0.00000     0.40104    0.00119     0.40223
      H   26    0.09198      0.00000     0.40696    0.00106     0.40802
      H   27    0.08712      0.00000     0.41180    0.00108     0.41288
      H   28    0.08762      0.00000     0.41051    0.00187     0.41238
      H   29    0.17774      0.00000     0.32101    0.00124     0.32226
      H   30    0.21501      0.00000     0.28211    0.00287     0.28499
 =======================================================================
   * Total *    0.00000     20.99229    42.79506    0.21264    64.00000

 Normal termination of Gaussian 16 at Fri Dec 11 13:49:48 2020.
