 Gaussian 16, Revision A.03,

 -----------------------------------------------------------
 # opt freq B3LYP/6-31G(d) empiricaldispersion=gd3bj scf=xqc
 -----------------------------------------------------------

 -------------------------------
 CID_104617298_JID_8244_neutraal
 -------------------------------
 Symbolic Z-matrix:
 Charge =  0 Multiplicity = 1

 SCF Done:  E(RB3LYP) =  -857.514503418     A.U. after   15 cycles
 SCF Done:  E(RB3LYP) =  -857.520380991     A.U. after   13 cycles
 SCF Done:  E(RB3LYP) =  -857.518343296     A.U. after   13 cycles
 SCF Done:  E(RB3LYP) =  -857.520937216     A.U. after   12 cycles
 SCF Done:  E(RB3LYP) =  -857.521368215     A.U. after   13 cycles
 SCF Done:  E(RB3LYP) =  -857.521985255     A.U. after   12 cycles
 SCF Done:  E(RB3LYP) =  -857.521990886     A.U. after   12 cycles
 SCF Done:  E(RB3LYP) =  -857.522168947     A.U. after   11 cycles
 SCF Done:  E(RB3LYP) =  -857.522101201     A.U. after   12 cycles
 SCF Done:  E(RB3LYP) =  -857.522246308     A.U. after   11 cycles
 SCF Done:  E(RB3LYP) =  -857.522359382     A.U. after    9 cycles
 SCF Done:  E(RB3LYP) =  -857.522360196     A.U. after    9 cycles
 SCF Done:  E(RB3LYP) =  -857.522360529     A.U. after    9 cycles
 SCF Done:  E(RB3LYP) =  -857.522360874     A.U. after    8 cycles
 SCF Done:  E(RB3LYP) =  -857.522360993     A.U. after    8 cycles
 Optimization completed.
    -- Stationary point found.
 Normal termination of Gaussian 16 at Fri Dec 11 20:03:43 2020.

 --------------------------------------------------------------------
 #N Geom=AllCheck Guess=TCheck SCRF=Check GenChk RB3LYP/6-31G(d) Freq
 --------------------------------------------------------------------

 Structure from the checkpoint file:  "JID_8244.chk"
 -------------------------------
 CID_104617298_JID_8244_neutraal
 -------------------------------
 Charge =  0 Multiplicity = 1

 SCF Done:  E(RB3LYP) =  -857.522360993     A.U. after    1 cycles

  Exact polarizability: 191.216  18.985 122.353  -7.823  11.822 127.254
 Approx polarizability: 249.873  43.959 190.919  -6.133  28.368 205.608

                      1                      2                      3
                      A                      A                      A
 Frequencies --     18.7366                21.7297                26.2313
 Red. masses --      2.3623                 4.5978                 5.6084
 Frc consts  --      0.0005                 0.0013                 0.0023
 IR Inten    --      0.1294                 0.6761                 0.6346

                      4                      5                      6
                      A                      A                      A
 Frequencies --     59.8061                67.8570                86.9508
 Red. masses --      9.0226                 3.0851                 8.0720
 Frc consts  --      0.0190                 0.0084                 0.0360
 IR Inten    --      0.6339                 0.0183                 0.7163

                      7                      8                      9
                      A                      A                      A
 Frequencies --     94.2052               121.7023               139.6952
 Red. masses --      4.2181                 6.1782                 3.9091
 Frc consts  --      0.0221                 0.0539                 0.0449
 IR Inten    --      0.7066                 0.4801                 0.1663

                     10                     11                     12
                      A                      A                      A
 Frequencies --    177.4682               216.4404               232.6543
 Red. masses --      2.7007                 1.7498                 2.5911
 Frc consts  --      0.0501                 0.0483                 0.0826
 IR Inten    --      0.2718                 0.7875                 0.0757

                     13                     14                     15
                      A                      A                      A
 Frequencies --    268.6165               274.4376               304.0240
 Red. masses --      2.5275                 2.9364                 4.7191
 Frc consts  --      0.1074                 0.1303                 0.2570
 IR Inten    --      2.2897                 0.7321                 6.2461

                     16                     17                     18
                      A                      A                      A
 Frequencies --    323.3138               354.6256               379.3066
 Red. masses --      3.2185                 2.9768                 3.5573
 Frc consts  --      0.1982                 0.2206                 0.3015
 IR Inten    --      2.1312                 7.4586                18.0732

                     19                     20                     21
                      A                      A                      A
 Frequencies --    410.2880               430.9543               484.9434
 Red. masses --      3.0597                 6.8743                 2.0141
 Frc consts  --      0.3035                 0.7522                 0.2791
 IR Inten    --      7.0147                14.9570                25.8256

                     22                     23                     24
                      A                      A                      A
 Frequencies --    525.6087               555.2535               601.0619
 Red. masses --      2.6406                 1.7129                 1.3639
 Frc consts  --      0.4298                 0.3112                 0.2903
 IR Inten    --      2.2145                23.1976                85.3061

                     25                     26                     27
                      A                      A                      A
 Frequencies --    609.1081               618.7578               626.0862
 Red. masses --      2.4098                 2.2611                 2.9388
 Frc consts  --      0.5268                 0.5101                 0.6787
 IR Inten    --     61.8380                11.1857                32.8711

                     28                     29                     30
                      A                      A                      A
 Frequencies --    658.8273               704.8062               710.3937
 Red. masses --      3.8515                 4.1582                 2.7198
 Frc consts  --      0.9850                 1.2170                 0.8087
 IR Inten    --      8.4813                12.1757                15.0535

                     31                     32                     33
                      A                      A                      A
 Frequencies --    724.5378               768.5247               778.3060
 Red. masses --      2.6868                 3.3345                 1.7037
 Frc consts  --      0.8310                 1.1604                 0.6081
 IR Inten    --      1.5969                10.5962                45.2423

                     34                     35                     36
                      A                      A                      A
 Frequencies --    790.9390               795.0346               850.4730
 Red. masses --      3.9673                 1.2375                 3.6660
 Frc consts  --      1.4623                 0.4609                 1.5623
 IR Inten    --     23.9198                 2.5626                15.4636

                     37                     38                     39
                      A                      A                      A
 Frequencies --    882.1368               899.5416               929.0985
 Red. masses --      2.2171                 2.9956                 1.9483
 Frc consts  --      1.0165                 1.4282                 0.9909
 IR Inten    --      4.9391                 2.6707                 3.7808

                     40                     41                     42
                      A                      A                      A
 Frequencies --    937.9586               969.2015               978.7801
 Red. masses --      2.2239                 2.5049                 2.4867
 Frc consts  --      1.1527                 1.3864                 1.4036
 IR Inten    --      5.4292                 3.3393                11.5977

                     43                     44                     45
                      A                      A                      A
 Frequencies --    994.1052              1033.8219              1046.8675
 Red. masses --      2.8978                 2.4044                 1.9474
 Frc consts  --      1.6872                 1.5141                 1.2574
 IR Inten    --      7.2976                11.5274                 1.2849

                     46                     47                     48
                      A                      A                      A
 Frequencies --   1059.2421              1060.5037              1077.5829
 Red. masses --      2.7981                 2.0525                 1.5671
 Frc consts  --      1.8497                 1.3601                 1.0721
 IR Inten    --      1.0694                 8.0952                 1.4261

                     49                     50                     51
                      A                      A                      A
 Frequencies --   1097.6736              1106.3921              1156.4735
 Red. masses --      1.7587                 3.2861                 1.8746
 Frc consts  --      1.2485                 2.3700                 1.4771
 IR Inten    --      7.9138                26.8811                36.9570

                     52                     53                     54
                      A                      A                      A
 Frequencies --   1174.2401              1207.7071              1209.8898
 Red. masses --      1.7894                 1.6272                 1.4720
 Frc consts  --      1.4537                 1.3984                 1.2695
 IR Inten    --     56.0431                49.3001                55.5246

                     55                     56                     57
                      A                      A                      A
 Frequencies --   1217.1967              1254.8019              1269.5217
 Red. masses --      3.6162                 1.3926                 1.8859
 Frc consts  --      3.1566                 1.2919                 1.7908
 IR Inten    --      7.1542                 2.0301                 5.2847

                     58                     59                     60
                      A                      A                      A
 Frequencies --   1280.4937              1311.4903              1313.9905
 Red. masses --      1.7752                 1.2791                 1.2890
 Frc consts  --      1.7150                 1.2963                 1.3113
 IR Inten    --    125.7889                 0.7609                 1.7631

                     61                     62                     63
                      A                      A                      A
 Frequencies --   1320.1379              1342.9085              1350.8369
 Red. masses --      1.4924                 1.4051                 1.4167
 Frc consts  --      1.5324                 1.4930                 1.5231
 IR Inten    --     49.8775                23.9106                58.4554

                     64                     65                     66
                      A                      A                      A
 Frequencies --   1360.0082              1371.2034              1377.0649
 Red. masses --      1.4033                 1.5292                 1.9561
 Frc consts  --      1.5293                 1.6940                 2.1855
 IR Inten    --      2.3815                17.7344                23.9890

                     67                     68                     69
                      A                      A                      A
 Frequencies --   1383.5415              1411.2663              1417.2350
 Red. masses --      1.5118                 1.6934                 2.0714
 Frc consts  --      1.7050                 1.9871                 2.4513
 IR Inten    --     14.8906                 1.2166               104.5135

                     70                     71                     72
                      A                      A                      A
 Frequencies --   1438.8367              1466.0658              1513.9558
 Red. masses --      1.2267                 2.7458                 1.1239
 Frc consts  --      1.4963                 3.4772                 1.5178
 IR Inten    --      1.2950                 1.3457                 2.5219

                     73                     74                     75
                      A                      A                      A
 Frequencies --   1518.6131              1522.4762              1526.6364
 Red. masses --      1.0904                 1.0845                 1.0448
 Frc consts  --      1.4816                 1.4811                 1.4346
 IR Inten    --      1.7316                 3.6020                 9.7532

                     76                     77                     78
                      A                      A                      A
 Frequencies --   1533.4345              1539.6236              1539.9292
 Red. masses --      1.4638                 1.1932                 1.7217
 Frc consts  --      2.0279                 1.6665                 2.4055
 IR Inten    --      6.6842                 4.7659                18.6529

                     79                     80                     81
                      A                      A                      A
 Frequencies --   1573.7562              1634.1785              1786.8984
 Red. masses --      4.7385                 4.5404                 8.4937
 Frc consts  --      6.9146                 7.1440                15.9788
 IR Inten    --    218.4820                68.7694               337.4890

                     82                     83                     84
                      A                      A                      A
 Frequencies --   1841.2305              3043.4061              3046.5457
 Red. masses --      9.4426                 1.0676                 1.0671
 Frc consts  --     18.8608                 5.8259                 5.8356
 IR Inten    --    323.9395                35.0128                25.1371

                     85                     86                     87
                      A                      A                      A
 Frequencies --   3054.9223              3076.5462              3082.7942
 Red. masses --      1.0351                 1.0606                 1.0631
 Frc consts  --      5.6915                 5.9144                 5.9529
 IR Inten    --     30.8891                24.3552                13.9252

                     88                     89                     90
                      A                      A                      A
 Frequencies --   3089.2044              3098.1670              3102.7755
 Red. masses --      1.0831                 1.0968                 1.0941
 Frc consts  --      6.0899                 6.2027                 6.2058
 IR Inten    --      1.4845                 3.0005                46.1538

                     91                     92                     93
                      A                      A                      A
 Frequencies --   3120.2506              3125.5255              3130.8711
 Red. masses --      1.1059                 1.1022                 1.1052
 Frc consts  --      6.3435                 6.3442                 6.3832
 IR Inten    --     17.5800                42.2690                26.8077

                     94                     95                     96
                      A                      A                      A
 Frequencies --   3133.0749              3154.2133              3275.3179
 Red. masses --      1.1036                 1.0871                 1.0976
 Frc consts  --      6.3826                 6.3724                 6.9375
 IR Inten    --     30.6973                10.6942                 0.7457

                     97                     98                     99
                      A                      A                      A
 Frequencies --   3599.4374              3671.9085              3695.4418
 Red. masses --      1.0757                 1.0811                 1.0641
 Frc consts  --      8.2112                 8.5882                 8.5622
 IR Inten    --     27.9042                63.1058                47.8932

 - Thermochemistry -
 -------------------
 Temperature   298.150 Kelvin.  Pressure   1.00000 Atm.
 Atom     1 has atomic number  6 and mass  12.00000

 Molecular mass:   251.12699 amu.
 Principal axes and moments of inertia in atomic units:
                           1         2         3
     Eigenvalues --  2221.786437400.021567614.70398
           X            0.99995  -0.00338  -0.00911
           Y            0.00448   0.99235   0.12341
           Z            0.00862  -0.12344   0.99231
 This molecule is an asymmetric top.
 Rotational symmetry number  1.
 Warning -- assumption of classical behavior for rotation
           may cause significant error
 Rotational temperatures (Kelvin)      0.03898     0.01170     0.01137
 Rotational constants (GHZ):           0.81229     0.24388     0.23701
 Zero-point vibrational energy     768903.7 (Joules/Mol)
                                  183.77239 (Kcal/Mol)
 Warning -- explicit consideration of  26 degrees of freedom as
           vibrations may cause significant error
 Vibrational temperatures:     26.96    31.26    37.74    86.05    97.63
          (Kelvin)            125.10   135.54   175.10   200.99   255.34
                              311.41   334.74   386.48   394.85   437.42
                              465.18   510.23   545.74   590.31   620.05
                              697.73   756.23   798.89   864.79   876.37
                              890.25   900.80   947.91  1014.06  1022.10
                             1042.45  1105.74  1119.81  1137.98  1143.88
                             1223.64  1269.20  1294.24  1336.77  1349.51
                             1394.46  1408.25  1430.30  1487.44  1506.21
                             1524.01  1525.83  1550.40  1579.31  1591.85
                             1663.91  1689.47  1737.62  1740.76  1751.27
                             1805.38  1826.56  1842.34  1886.94  1890.54
                             1899.38  1932.15  1943.55  1956.75  1972.86
                             1981.29  1990.61  2030.50  2039.09  2070.17
                             2109.34  2178.24  2184.95  2190.50  2196.49
                             2206.27  2215.17  2215.61  2264.28  2351.22
                             2570.95  2649.12  4378.78  4383.30  4395.35
                             4426.46  4435.45  4444.68  4457.57  4464.20
                             4489.34  4496.93  4504.63  4507.80  4538.21
                             4712.45  5178.79  5283.06  5316.92

 Zero-point correction=                           0.292860 (Hartree/Particle)
 Thermal correction to Energy=                    0.310368
 Thermal correction to Enthalpy=                  0.311312
 Thermal correction to Gibbs Free Energy=         0.244461
 Sum of electronic and zero-point Energies=           -857.229501
 Sum of electronic and thermal Energies=              -857.211993
 Sum of electronic and thermal Enthalpies=            -857.211049
 Sum of electronic and thermal Free Energies=         -857.277900

                     E (Thermal)             CV                S
                      KCal/Mol        Cal/Mol-Kelvin    Cal/Mol-Kelvin
 Total                  194.759             64.981            140.699
 Electronic               0.000              0.000              0.000
 Translational            0.889              2.981             42.463
 Rotational               0.889              2.981             33.193
 Vibrational            192.981             59.020             65.044
 Vibration     1          0.593              1.986              6.764
 Vibration     2          0.593              1.985              6.470
 Vibration     3          0.593              1.985              6.096
 Vibration     4          0.597              1.973              4.464
 Vibration     5          0.598              1.970              4.215
 Vibration     6          0.601              1.958              3.728
 Vibration     7          0.603              1.953              3.571
 Vibration     8          0.609              1.931              3.073
 Vibration     9          0.615              1.914              2.808
 Vibration    10          0.628              1.870              2.355
 Vibration    11          0.645              1.816              1.989
 Vibration    12          0.653              1.791              1.858
 Vibration    13          0.673              1.731              1.605
 Vibration    14          0.677              1.721              1.568
 Vibration    15          0.695              1.666              1.395
 Vibration    16          0.708              1.629              1.293
 Vibration    17          0.730              1.566              1.146
 Vibration    18          0.749              1.514              1.042
 Vibration    19          0.774              1.448              0.926
 Vibration    20          0.792              1.403              0.856
 Vibration    21          0.841              1.283              0.697
 Vibration    22          0.881              1.193              0.597
 Vibration    23          0.911              1.128              0.533
 Vibration    24          0.959              1.030              0.448
 Vibration    25          0.968              1.013              0.434
 Vibration    26          0.979              0.992              0.418

                           ! Non-Optimized Parameters !
 Normal termination of Gaussian 16 at Fri Dec 11 20:21:07 2020.

 ----------------------------------------------------------------------
 # B3LYP/6-311++G(d,p) empiricaldispersion=gd3bj scf=xqc pop=npa geom=c
 heck
 ----------------------------------------------------------------------

 ---------------------------------------
 CID_104617298_JID_8244_Energie_neutraal
 ---------------------------------------
 Structure from the checkpoint file:  "JID_8244.chk"
 Charge =  0 Multiplicity = 1

 SCF Done:  E(RB3LYP) =  -857.775856338     A.U. after   16 cycles
 Normal termination of Gaussian 16 at Fri Dec 11 20:29:05 2020.

 ----------------------------------------------------------------------
 # B3LYP/6-311++G(d,p) empiricaldispersion=gd3bj scf=xqc pop=npa geom=c
 heck
 ----------------------------------------------------------------------

 -------------------------------------
 CID_104617298_JID_8244_Energie_kation
 -------------------------------------
 Structure from the checkpoint file:  "JID_8244.chk"
 Charge =  1 Multiplicity = 2

 SCF Done:  E(UB3LYP) =  -857.476756670     A.U. after   29 cycles
 Normal termination of Gaussian 16 at Fri Dec 11 20:49:35 2020.
 Gaussian 16:  ES64L-G16RevA.03 25-Dec-2016

 ----------------------------------------------------------------------
 # B3LYP/6-311++G(d,p) empiricaldispersion=gd3bj scf=xqc pop=npa geom=c
 heck
 ----------------------------------------------------------------------

 ------------------------------------
 CID_104617298_JID_8244_Energie_anion
 ------------------------------------
 Structure from the checkpoint file:  "JID_8244.chk"
 Charge = -1 Multiplicity = 2

                         Standard orientation:
 ---------------------------------------------------------------------
 Center     Atomic      Atomic             Coordinates (Angstroms)
 Number     Number       Type             X           Y           Z
 ---------------------------------------------------------------------
      1          6           0       -5.542984    0.008498   -0.628812
      2          6           0       -4.475559   -0.751677    0.177622
      3          6           0       -3.098729   -0.193579   -0.004344
      4          6           0       -2.330254    0.639130    0.788740
      5          6           0       -1.132229    0.839773    0.058708
      6          7           0       -1.147878    0.202265   -1.111043
      7          7           0       -2.352437   -0.427094   -1.116453
      8          7           0       -0.052348    1.616812    0.487793
      9          6           0        1.289623    1.602571    0.138820
     10          8           0        2.023622    2.475041    0.578286
     11          6           0        1.776515    0.490399   -0.776612
     12          6           0        3.263342    0.629376   -1.128872
     13          6           0        3.645704   -0.776202   -1.599581
     14          6           0        2.959466   -1.685677   -0.568243
     15          6           0        1.606177   -0.984258   -0.238922
     16          6           0        1.265170   -1.081287    1.229414
     17          8           0        0.288219   -1.623078    1.698915
     18          8           0        2.206002   -0.486675    2.010840
     19          1           0       -5.570099    1.062897   -0.335951
     20          1           0       -6.535742   -0.422459   -0.461264
     21          1           0       -5.331949   -0.032719   -1.703125
     22          1           0       -4.722150   -0.717113    1.243689
     23          1           0       -4.483461   -1.812527   -0.105801
     24          1           0       -2.580406    1.017826    1.768843
     25          1           0       -2.585094   -1.012962   -1.903018
     26          1           0       -0.267059    2.355781    1.145583
     27          1           0        1.170365    0.541529   -1.686116
     28          1           0        3.436482    1.408793   -1.876852
     29          1           0        3.823757    0.905543   -0.230453
     30          1           0        4.727563   -0.938094   -1.646752
     31          1           0        3.239332   -0.964094   -2.602358
     32          1           0        3.575705   -1.737266    0.334587
     33          1           0        2.803112   -2.709082   -0.922456
     34          1           0        0.776122   -1.456625   -0.761701
     35          1           0        1.891962   -0.578002    2.929229
 ---------------------------------------------------------------------

 SCF Done:  E(UB3LYP) =  -857.767981320     A.U. after   33 cycles
 SCF Done:  E(UB3LYP) =  -857.767981320     a.u. after    1 cycles

 The electronic state is 2-A.
 Alpha  occ. eigenvalues --  -19.08324 -19.02663 -19.00590 -14.28131 -14.26058
 Alpha  occ. eigenvalues --  -14.23058 -10.21656 -10.19146 -10.13983 -10.11801
 Alpha  occ. eigenvalues --  -10.10334 -10.09936 -10.08995 -10.08630 -10.08581
 Alpha  occ. eigenvalues --  -10.07913 -10.06840 -10.06675  -1.02270  -0.96036
 Alpha  occ. eigenvalues --   -0.94876  -0.93182  -0.84660  -0.76550  -0.73161
 Alpha  occ. eigenvalues --   -0.69588  -0.65934  -0.65398  -0.64770  -0.56837
 Alpha  occ. eigenvalues --   -0.54857  -0.54292  -0.51532  -0.50282  -0.49827
 Alpha  occ. eigenvalues --   -0.46405  -0.42793  -0.41668  -0.41131  -0.39610
 Alpha  occ. eigenvalues --   -0.39178  -0.37548  -0.37072  -0.35668  -0.35445
 Alpha  occ. eigenvalues --   -0.35201  -0.33926  -0.33411  -0.32879  -0.32423
 Alpha  occ. eigenvalues --   -0.31246  -0.28744  -0.28470  -0.27573  -0.26810
 Alpha  occ. eigenvalues --   -0.26212  -0.25869  -0.25590  -0.25128  -0.24710
 Alpha  occ. eigenvalues --   -0.23916  -0.22141  -0.20370  -0.19085  -0.17520
 Alpha  occ. eigenvalues --   -0.15094  -0.13287   0.03906
 Alpha virt. eigenvalues --    0.05725   0.06304   0.07365   0.07681   0.07857
 Alpha virt. eigenvalues --    0.08072   0.08564   0.08691   0.08920   0.09840
 Alpha virt. eigenvalues --    0.10054   0.11224   0.11456   0.11495   0.11738

  Beta  occ. eigenvalues --  -19.08305 -19.02656 -19.00590 -14.28068 -14.26054
  Beta  occ. eigenvalues --  -14.23042 -10.21655 -10.19144 -10.13986 -10.11796
  Beta  occ. eigenvalues --  -10.10329 -10.09933 -10.08983 -10.08601 -10.08570
  Beta  occ. eigenvalues --  -10.07909 -10.06820 -10.06624  -1.02243  -0.96026
  Beta  occ. eigenvalues --   -0.94835  -0.93161  -0.84648  -0.76538  -0.73109
  Beta  occ. eigenvalues --   -0.69517  -0.65908  -0.65360  -0.64743  -0.56803
  Beta  occ. eigenvalues --   -0.54801  -0.54221  -0.51500  -0.50221  -0.49792
  Beta  occ. eigenvalues --   -0.46377  -0.42753  -0.41642  -0.41100  -0.39585
  Beta  occ. eigenvalues --   -0.39148  -0.37527  -0.37056  -0.35630  -0.35425
  Beta  occ. eigenvalues --   -0.35142  -0.33886  -0.33397  -0.32835  -0.32402
  Beta  occ. eigenvalues --   -0.31224  -0.28688  -0.28444  -0.27553  -0.26752
  Beta  occ. eigenvalues --   -0.26196  -0.25850  -0.25545  -0.25112  -0.24696
  Beta  occ. eigenvalues --   -0.23896  -0.22120  -0.20336  -0.19067  -0.17517
  Beta  occ. eigenvalues --   -0.15027  -0.13233
  Beta virt. eigenvalues --    0.05827   0.06639   0.06919   0.07808   0.07883
  Beta virt. eigenvalues --    0.08061   0.08348   0.08724   0.09051   0.09525
  Beta virt. eigenvalues --    0.10000   0.10418   0.11314   0.11539   0.11755

 Mulliken charges and spin densities:
               1          2
     1  C    1.192490  -1.805691
     2  C   -1.779431   1.464606
     3  C    1.555373  -1.428408
     4  C   -0.450242   0.555981
     5  C    1.219340  -1.531951
     6  N   -0.247094   0.083897
     7  N   -0.088362   0.051858
     8  N   -0.294682   0.084707
     9  C   -0.192059  -0.209649
    10  O   -0.275898   0.005315
    11  C    0.387125  -0.125560
    12  C   -0.380894  -0.251453
    13  C   -0.028281  -0.139474
    14  C   -0.423743  -0.476477
    15  C    0.660658   0.304307
    16  C   -0.637380  -0.034705
    17  O   -0.208986   0.015295
    18  O   -0.133572   0.014781
    19  H   -0.031176   0.172939
    20  H   -0.636940   0.788531
    21  H   -0.264231   0.412109
    22  H   -0.127716   0.288901
    23  H   -0.358391   0.533259
    24  H   -0.362883   0.544188
    25  H   -0.302841   0.649002
    26  H    0.309089   0.010153
    27  H    0.259766   0.039630
    28  H    0.139638   0.021013
    29  H    0.167715   0.027952
    30  H    0.028909   0.130427
    31  H    0.013924   0.120496
    32  H    0.136131   0.027201
    33  H   -0.086369   0.237717
    34  H    0.160043   0.201892
    35  H    0.080969   0.217212
 Sum of Mulliken charges =  -1.00000   1.00000

 Dipole moment (field-independent basis, Debye):
    X=              8.4173    Y=              2.1618    Z=              1.8278  Tot=              8.8807
 Quadrupole moment (field-independent basis, Debye-Ang):
   XX=           -209.2977   YY=           -146.4093   ZZ=           -142.4962
   XY=            -17.0092   XZ=            -11.2842   YZ=             -5.1218

 Summary of Natural Population Analysis:

                                       Natural Population
                Natural  -----------------------------------------------
    Atom  No    Charge         Core      Valence    Rydberg      Total
 -----------------------------------------------------------------------
      C    1   -0.27874      0.99966     2.27412    0.00495     3.27874
      C    2   -0.20831      0.99961     2.19952    0.00918     3.20831
      C    3    0.09728      0.99955     1.88951    0.01366     2.90272
      C    4   -0.16365      0.99945     2.15687    0.00733     3.16365
      C    5    0.15833      0.99956     1.82638    0.01574     2.84167
      N    6   -0.18050      0.99969     2.66790    0.01291     3.68050
      N    7   -0.16440      0.99965     2.65155    0.01320     3.66440
      N    8   -0.31168      0.99963     2.80322    0.00883     3.81168
      C    9    0.35389      0.99964     1.62367    0.02280     2.64611
      O   10   -0.31622      0.99987     3.31086    0.00548     4.31622
      C   11   -0.15252      0.99954     2.14180    0.01118     3.15252
      C   12   -0.18878      0.99962     2.18097    0.00819     3.18878
      C   13   -0.19000      0.99964     2.18354    0.00682     3.19000
      C   14   -0.18703      0.99963     2.17848    0.00892     3.18703
      C   15   -0.15342      0.99953     2.14156    0.01233     3.15342
      C   16    0.40675      0.99966     1.56809    0.02550     2.59325
      O   17   -0.29705      0.99987     3.29072    0.00646     4.29705
      O   18   -0.34930      0.99987     3.34291    0.00651     4.34930
      H   19    0.09710      0.00000     0.40172    0.00119     0.40290
      H   20    0.10128      0.00000     0.39672    0.00200     0.39872
      H   21    0.09986      0.00000     0.39842    0.00172     0.40014
      H   22    0.10605      0.00000     0.39271    0.00124     0.39395
      H   23    0.10854      0.00000     0.38924    0.00221     0.39146
      H   24    0.10895      0.00000     0.38997    0.00108     0.39105
      H   25    0.20519      0.00000     0.28678    0.00802     0.29481
      H   26    0.19848      0.00000     0.29917    0.00235     0.30152
      H   27    0.12711      0.00000     0.37065    0.00225     0.37289
      H   28    0.10220      0.00000     0.39697    0.00083     0.39780
      H   29    0.10736      0.00000     0.39127    0.00137     0.39264
      H   30    0.09902      0.00000     0.40001    0.00097     0.40098
      H   31    0.09488      0.00000     0.40379    0.00133     0.40512
      H   32    0.10143      0.00000     0.39706    0.00151     0.39857
      H   33    0.10353      0.00000     0.39565    0.00082     0.39647
      H   34    0.12396      0.00000     0.37437    0.00167     0.37604
      H   35    0.24039      0.00000     0.25559    0.00402     0.25961
 =======================================================================
   * Total *    0.00000     17.99367    48.77176    0.23458    67.00000

 Normal termination of Gaussian 16 at Fri Dec 11 21:13:08 2020.
