 Gaussian 16, Revision A.03,

 -----------------------------------------------------------
 # opt freq B3LYP/6-31G(d) empiricaldispersion=gd3bj scf=xqc
 -----------------------------------------------------------

 -------------------------------
 CID_131299803_JID_3114_neutraal
 -------------------------------
 Symbolic Z-matrix:
 Charge =  0 Multiplicity = 1

 SCF Done:  E(RB3LYP) =  -563.040722994     A.U. after   12 cycles
 SCF Done:  E(RB3LYP) =  -563.045506822     A.U. after   10 cycles
 SCF Done:  E(RB3LYP) =  -563.046045010     A.U. after   10 cycles
 SCF Done:  E(RB3LYP) =  -563.046214120     A.U. after   10 cycles
 SCF Done:  E(RB3LYP) =  -563.046304120     A.U. after    9 cycles
 SCF Done:  E(RB3LYP) =  -563.046345310     A.U. after    9 cycles
 SCF Done:  E(RB3LYP) =  -563.046358638     A.U. after    9 cycles
 SCF Done:  E(RB3LYP) =  -563.046364044     A.U. after    8 cycles
 SCF Done:  E(RB3LYP) =  -563.046365191     A.U. after    7 cycles
 SCF Done:  E(RB3LYP) =  -563.046365349     A.U. after    6 cycles
 Optimization completed.
    -- Stationary point found.
 Normal termination of Gaussian 16 at Wed Dec  9 22:26:42 2020.

 --------------------------------------------------------------------
 #N Geom=AllCheck Guess=TCheck SCRF=Check GenChk RB3LYP/6-31G(d) Freq
 --------------------------------------------------------------------

 Structure from the checkpoint file:  "JID_3114.chk"
 -------------------------------
 CID_131299803_JID_3114_neutraal
 -------------------------------
 Charge =  0 Multiplicity = 1

 SCF Done:  E(RB3LYP) =  -563.046365349     A.U. after    1 cycles

  Exact polarizability: 141.908  -1.795 119.501   0.021  -0.233 110.429
 Approx polarizability: 167.176  -3.175 170.710  -0.347  -1.930 173.104

                      1                      2                      3
                      A                      A                      A
 Frequencies --     30.3546                55.0964                99.3773
 Red. masses --      2.7365                 2.7864                 2.2907
 Frc consts  --      0.0015                 0.0050                 0.0133
 IR Inten    --      0.0248                 0.3275                 0.0108

                      4                      5                      6
                      A                      A                      A
 Frequencies --    108.5216               165.4437               181.0681
 Red. masses --      2.9943                 2.3847                 2.1540
 Frc consts  --      0.0208                 0.0385                 0.0416
 IR Inten    --      0.1721                 1.5780                 1.0996

                      7                      8                      9
                      A                      A                      A
 Frequencies --    244.0395               246.7116               266.1754
 Red. masses --      2.6807                 1.9929                 1.7122
 Frc consts  --      0.0941                 0.0715                 0.0715
 IR Inten    --      1.0120                 0.8686                 3.6490

                     10                     11                     12
                      A                      A                      A
 Frequencies --    276.6306               286.2454               297.5876
 Red. masses --      1.7191                 1.1515                 1.3516
 Frc consts  --      0.0775                 0.0556                 0.0705
 IR Inten    --      6.2806                 0.7557                75.0726

                     13                     14                     15
                      A                      A                      A
 Frequencies --    306.1444               319.6521               349.0534
 Red. masses --      2.7698                 1.1284                 2.3101
 Frc consts  --      0.1529                 0.0679                 0.1658
 IR Inten    --     13.0825                 3.2478                17.9363

                     16                     17                     18
                      A                      A                      A
 Frequencies --    365.0550               378.8743               395.2315
 Red. masses --      2.2780                 2.5120                 2.1111
 Frc consts  --      0.1789                 0.2125                 0.1943
 IR Inten    --      3.4956                12.2641                 3.8625

                     19                     20                     21
                      A                      A                      A
 Frequencies --    413.8515               455.2071               504.2922
 Red. masses --      2.1995                 2.8843                 2.3665
 Frc consts  --      0.2219                 0.3521                 0.3546
 IR Inten    --      1.2371                 0.3444                 7.4407

                     22                     23                     24
                      A                      A                      A
 Frequencies --    516.8461               553.2782               558.4516
 Red. masses --      3.0237                 2.2741                 2.2689
 Frc consts  --      0.4759                 0.4101                 0.4169
 IR Inten    --      5.1707                 2.3188                 8.3008

                     25                     26                     27
                      A                      A                      A
 Frequencies --    667.3718               755.2766               779.8999
 Red. masses --      1.7661                 2.6905                 1.2597
 Frc consts  --      0.4634                 0.9043                 0.4514
 IR Inten    --    147.9626                 1.2308                 2.4985

                     28                     29                     30
                      A                      A                      A
 Frequencies --    841.4155               856.6235               867.3598
 Red. masses --      1.8669                 1.8333                 2.2061
 Frc consts  --      0.7787                 0.7926                 0.9779
 IR Inten    --     15.9424                 5.6623                12.5910

                     31                     32                     33
                      A                      A                      A
 Frequencies --    895.9011               906.1495               955.0128
 Red. masses --      2.2191                 1.7361                 1.4894
 Frc consts  --      1.0494                 0.8399                 0.8004
 IR Inten    --      3.0427                 2.6613                 0.1184

                     34                     35                     36
                      A                      A                      A
 Frequencies --    958.8636               993.2500              1001.6197
 Red. masses --      2.0397                 2.5001                 1.8231
 Frc consts  --      1.1049                 1.4532                 1.0776
 IR Inten    --      0.9693                29.0487                 5.1475

                     37                     38                     39
                      A                      A                      A
 Frequencies --   1015.0212              1043.4462              1054.6255
 Red. masses --      1.8475                 1.8283                 2.1302
 Frc consts  --      1.1215                 1.1729                 1.3960
 IR Inten    --      9.3586                19.0115                12.9523

                     40                     41                     42
                      A                      A                      A
 Frequencies --   1058.4672              1081.3402              1102.8800
 Red. masses --      1.8925                 1.8087                 2.2652
 Frc consts  --      1.2492                 1.2461                 1.6233
 IR Inten    --     12.5578                31.2412                 0.7371

                     43                     44                     45
                      A                      A                      A
 Frequencies --   1113.6493              1129.4147              1148.2280
 Red. masses --      2.1142                 1.7246                 2.0872
 Frc consts  --      1.5449                 1.2961                 1.6214
 IR Inten    --     14.1295                 1.2244                 0.7746

                     46                     47                     48
                      A                      A                      A
 Frequencies --   1177.8468              1182.0110              1214.9796
 Red. masses --      1.9434                 2.4006                 1.9432
 Frc consts  --      1.5885                 1.9761                 1.6901
 IR Inten    --     10.2607                21.3055                 7.7984

                     49                     50                     51
                      A                      A                      A
 Frequencies --   1223.2373              1241.1421              1273.8644
 Red. masses --      1.4787                 1.5195                 1.8264
 Frc consts  --      1.3036                 1.3791                 1.7462
 IR Inten    --     17.4561                23.7691                 7.5035

                     52                     53                     54
                      A                      A                      A
 Frequencies --   1293.1472              1320.1289              1326.4358
 Red. masses --      1.6007                 1.3596                 1.3960
 Frc consts  --      1.5771                 1.3960                 1.4472
 IR Inten    --     10.7027                 3.3937                 0.5259

                     55                     56                     57
                      A                      A                      A
 Frequencies --   1334.4675              1347.1382              1370.4360
 Red. masses --      1.2154                 1.2624                 1.3005
 Frc consts  --      1.2753                 1.3498                 1.4391
 IR Inten    --      6.4781                 1.8320                 1.5964

                     58                     59                     60
                      A                      A                      A
 Frequencies --   1388.5564              1398.5330              1406.0798
 Red. masses --      1.3377                 1.4042                 1.4660
 Frc consts  --      1.5196                 1.6181                 1.7077
 IR Inten    --      6.8290                 1.9359                 8.3363

                     61                     62                     63
                      A                      A                      A
 Frequencies --   1411.5199              1415.6515              1425.8634
 Red. masses --      1.4121                 1.3434                 1.2485
 Frc consts  --      1.6576                 1.5862                 1.4956
 IR Inten    --      2.9301                 5.3078                10.0938

                     64                     65                     66
                      A                      A                      A
 Frequencies --   1428.2576              1437.9932              1443.2910
 Red. masses --      1.2664                 1.2793                 1.2262
 Frc consts  --      1.5221                 1.5586                 1.5049
 IR Inten    --      6.5056                 5.8000                32.2623

                     67                     68                     69
                      A                      A                      A
 Frequencies --   1451.6371              1502.0434              1512.2467
 Red. masses --      1.2325                 1.1908                 1.0864
 Frc consts  --      1.5302                 1.5829                 1.4638
 IR Inten    --      9.9279                21.9186                 1.4281

                     70                     71                     72
                      A                      A                      A
 Frequencies --   1515.0346              1518.6261              1519.3392
 Red. masses --      1.0750                 1.0721                 1.0672
 Frc consts  --      1.4538                 1.4567                 1.4514
 IR Inten    --      2.5022                 1.3449                 2.0000

                     73                     74                     75
                      A                      A                      A
 Frequencies --   1521.0694              1523.6359              1531.0359
 Red. masses --      1.0642                 1.0662                 1.1164
 Frc consts  --      1.4507                 1.4583                 1.5419
 IR Inten    --      3.4973                 2.7113                 4.7678

                     76                     77                     78
                      A                      A                      A
 Frequencies --   1532.2245              1536.4360              1545.3208
 Red. masses --      1.0788                 1.0628                 1.0611
 Frc consts  --      1.4923                 1.4782                 1.4929
 IR Inten    --      8.0381                 2.4099                10.8497

                     79                     80                     81
                      A                      A                      A
 Frequencies --   1547.9100              2970.3846              3007.3734
 Red. masses --      1.0579                 1.0818                 1.0720
 Frc consts  --      1.4934                 5.6236                 5.7122
 IR Inten    --      4.4010                18.6410                21.1663

                     82                     83                     84
                      A                      A                      A
 Frequencies --   3009.2039              3015.9612              3024.6832
 Red. masses --      1.0667                 1.0644                 1.0606
 Frc consts  --      5.6913                 5.7042                 5.7168
 IR Inten    --     25.1095                14.9331                49.6830

                     85                     86                     87
                      A                      A                      A
 Frequencies --   3029.2269              3036.5697              3039.1875
 Red. masses --      1.0622                 1.0364                 1.0455
 Frc consts  --      5.7425                 5.6307                 5.6897
 IR Inten    --     78.2548                41.3467                29.3854

                     88                     89                     90
                      A                      A                      A
 Frequencies --   3046.1336              3051.1870              3057.0676
 Red. masses --      1.0385                 1.1010                 1.0969
 Frc consts  --      5.6775                 6.0394                 6.0399
 IR Inten    --     14.0522                14.6916                53.8390

                     91                     92                     93
                      A                      A                      A
 Frequencies --   3066.2053              3078.6595              3084.3734
 Red. masses --      1.0911                 1.0960                 1.0905
 Frc consts  --      6.0438                 6.1204                 6.1122
 IR Inten    --     19.9494                21.5238                62.5458

                     94                     95                     96
                      A                      A                      A
 Frequencies --   3096.5085              3101.9082              3103.6409
 Red. masses --      1.1005                 1.0904                 1.1026
 Frc consts  --      6.2168                 6.1816                 6.2579
 IR Inten    --     58.6370                20.4036                 6.5196

                     97                     98                     99
                      A                      A                      A
 Frequencies --   3106.0674              3110.3204              3123.1466
 Red. masses --      1.1023                 1.1018                 1.0994
 Frc consts  --      6.2658                 6.2800                 6.3182
 IR Inten    --     39.0583                67.2538                42.2592

                    100                    101                    102
                      A                      A                      A
 Frequencies --   3152.7607              3522.5810              3714.1106
 Red. masses --      1.0981                 1.0737                 1.0657
 Frc consts  --      6.4312                 7.8497                 8.6615
 IR Inten    --     18.4140                 0.2738                 6.1520

 - Thermochemistry -
 -------------------
 Temperature   298.150 Kelvin.  Pressure   1.00000 Atm.
 Atom     1 has atomic number  6 and mass  12.00000

 Molecular mass:   185.17796 amu.
 Principal axes and moments of inertia in atomic units:
                           1         2         3
     Eigenvalues --  1419.780713716.020404477.19065
           X            0.99999   0.00456  -0.00016
           Y           -0.00456   0.99999  -0.00187
           Z            0.00015   0.00187   1.00000
 This molecule is an asymmetric top.
 Rotational symmetry number  1.
 Warning -- assumption of classical behavior for rotation
           may cause significant error
 Rotational temperatures (Kelvin)      0.06101     0.02331     0.01935
 Rotational constants (GHZ):           1.27114     0.48567     0.40310
 Zero-point vibrational energy     879036.4 (Joules/Mol)
                                  210.09474 (Kcal/Mol)
 Warning -- explicit consideration of  24 degrees of freedom as
           vibrations may cause significant error
 Vibrational temperatures:     43.67    79.27   142.98   156.14   238.04
          (Kelvin)            260.52   351.12   354.96   382.97   398.01
                              411.84   428.16   440.47   459.91   502.21
                              525.23   545.12   568.65   595.44   654.94
                              725.56   743.63   796.04   803.49   960.20
                             1086.67  1122.10  1210.61  1232.49  1247.94
                             1289.00  1303.75  1374.05  1379.59  1429.07
                             1441.11  1460.39  1501.29  1517.37  1522.90
                             1555.81  1586.80  1602.29  1624.98  1652.04
                             1694.66  1700.65  1748.08  1759.97  1785.73
                             1832.81  1860.55  1899.37  1908.45  1920.00
                             1938.23  1971.75  1997.82  2012.18  2023.04
                             2030.86  2036.81  2051.50  2054.94  2068.95
                             2076.57  2088.58  2161.11  2175.79  2179.80
                             2184.96  2185.99  2188.48  2192.17  2202.82
                             2204.53  2210.59  2223.37  2227.10  4273.72
                             4326.94  4329.57  4339.30  4351.84  4358.38
                             4368.95  4372.71  4382.71  4389.98  4398.44
                             4411.59  4429.50  4437.73  4455.19  4462.95
                             4465.45  4468.94  4475.06  4493.51  4536.12
                             5068.21  5343.78

 Zero-point correction=                           0.334807 (Hartree/Particle)
 Thermal correction to Energy=                    0.349567
 Thermal correction to Enthalpy=                  0.350511
 Thermal correction to Gibbs Free Energy=         0.293963
 Sum of electronic and zero-point Energies=           -562.711558
 Sum of electronic and thermal Energies=              -562.696799
 Sum of electronic and thermal Enthalpies=            -562.695854
 Sum of electronic and thermal Free Energies=         -562.752402

                     E (Thermal)             CV                S
                      KCal/Mol        Cal/Mol-Kelvin    Cal/Mol-Kelvin
 Total                  219.357             57.903            119.015
 Electronic               0.000              0.000              0.000
 Translational            0.889              2.981             41.555
 Rotational               0.889              2.981             31.535
 Vibrational            217.579             51.941             45.925
 Vibration     1          0.594              1.984              5.806
 Vibration     2          0.596              1.976              4.626
 Vibration     3          0.604              1.950              3.466
 Vibration     4          0.606              1.942              3.295
 Vibration     5          0.624              1.885              2.487
 Vibration     6          0.630              1.865              2.317
 Vibration     7          0.659              1.773              1.773
 Vibration     8          0.661              1.768              1.754
 Vibration     9          0.672              1.735              1.621
 Vibration    10          0.678              1.717              1.554
 Vibration    11          0.684              1.699              1.496
 Vibration    12          0.691              1.678              1.430
 Vibration    13          0.697              1.662              1.383
 Vibration    14          0.706              1.636              1.312
 Vibration    15          0.726              1.577              1.170
 Vibration    16          0.738              1.544              1.100
 Vibration    17          0.749              1.515              1.044
 Vibration    18          0.762              1.480              0.980
 Vibration    19          0.777              1.440              0.913
 Vibration    20          0.814              1.349              0.780
 Vibration    21          0.860              1.240              0.647
 Vibration    22          0.872              1.213              0.617
 Vibration    23          0.909              1.133              0.537
 Vibration    24          0.914              1.121              0.527

                           ! Non-Optimized Parameters !
 Normal termination of Gaussian 16 at Wed Dec  9 22:37:52 2020.

 ----------------------------------------------------------------------
 # B3LYP/6-311++G(d,p) empiricaldispersion=gd3bj scf=xqc pop=npa geom=c
 heck
 ----------------------------------------------------------------------

 ---------------------------------------
 CID_131299803_JID_3114_Energie_neutraal
 ---------------------------------------
 Structure from the checkpoint file:  "JID_3114.chk"
 Charge =  0 Multiplicity = 1

 SCF Done:  E(RB3LYP) =  -563.215441231     A.U. after   14 cycles
 Normal termination of Gaussian 16 at Wed Dec  9 22:43:24 2020.

 ----------------------------------------------------------------------
 # B3LYP/6-311++G(d,p) empiricaldispersion=gd3bj scf=xqc pop=npa geom=c
 heck
 ----------------------------------------------------------------------

 -------------------------------------
 CID_131299803_JID_3114_Energie_kation
 -------------------------------------
 Structure from the checkpoint file:  "JID_3114.chk"
 Charge =  1 Multiplicity = 2

 SCF Done:  E(UB3LYP) =  -562.927724253     A.U. after   19 cycles
 Normal termination of Gaussian 16 at Wed Dec  9 22:54:34 2020.
 Gaussian 16:  ES64L-G16RevA.03 25-Dec-2016

 ----------------------------------------------------------------------
 # B3LYP/6-311++G(d,p) empiricaldispersion=gd3bj scf=xqc pop=npa geom=c
 heck
 ----------------------------------------------------------------------

 ------------------------------------
 CID_131299803_JID_3114_Energie_anion
 ------------------------------------
 Structure from the checkpoint file:  "JID_3114.chk"
 Charge = -1 Multiplicity = 2

                         Standard orientation:
 ---------------------------------------------------------------------
 Center     Atomic      Atomic             Coordinates (Angstroms)
 Number     Number       Type             X           Y           Z
 ---------------------------------------------------------------------
      1          6           0       -3.868238   -1.304078    0.298936
      2          6           0       -3.611513    0.160773   -0.068588
      3          6           0       -2.298410    0.754061    0.467037
      4          6           0       -1.019050    0.350946   -0.282038
      5          6           0        0.124009    1.336216    0.070777
      6          6           0        1.517379    0.978169   -0.466959
      7          6           0        2.259451   -0.231364    0.154325
      8          6           0        1.761619   -1.592943   -0.404710
      9          6           0        0.307799   -1.665043   -0.906166
     10          7           0       -0.735620   -1.066895   -0.085107
     11          6           0        2.131287   -0.215421    1.690350
     12          6           0        3.754331   -0.091678   -0.193136
     13          8           0       -0.222934    2.657739   -0.368927
     14          1           0       -3.088652   -1.950345   -0.109907
     15          1           0       -4.842441   -1.638108   -0.077812
     16          1           0       -3.873267   -1.433727    1.389212
     17          1           0       -3.632562    0.274427   -1.161924
     18          1           0       -4.440758    0.771906    0.312786
     19          1           0       -2.354908    1.846585    0.429039
     20          1           0       -2.180616    0.489521    1.530212
     21          1           0       -1.204925    0.473043   -1.363269
     22          1           0        0.176754    1.431595    1.160505
     23          1           0        2.128942    1.873237   -0.299072
     24          1           0        1.462807    0.850027   -1.559393
     25          1           0        1.912708   -2.357547    0.369778
     26          1           0        2.400063   -1.897613   -1.245678
     27          1           0        0.063532   -2.724586   -1.067356
     28          1           0        0.235659   -1.190200   -1.891841
     29          1           0       -0.638115   -1.298595    0.899588
     30          1           0        2.795920   -0.967025    2.132169
     31          1           0        2.409073    0.762259    2.102469
     32          1           0        1.113919   -0.441037    2.024502
     33          1           0        3.899040   -0.005568   -1.276923
     34          1           0        4.189037    0.797961    0.277972
     35          1           0        4.319220   -0.965943    0.151966
     36          1           0       -0.269598    2.628259   -1.338827
 ---------------------------------------------------------------------

 SCF Done:  E(UB3LYP) =  -563.199840725     A.U. after   28 cycles

 The electronic state is 2-A.
 Alpha  occ. eigenvalues --  -19.02187 -14.19377 -10.11519 -10.09820 -10.08817
 Alpha  occ. eigenvalues --  -10.08460 -10.06825 -10.06391 -10.06231 -10.05935
 Alpha  occ. eigenvalues --  -10.05883 -10.05513 -10.05479  -0.92359  -0.80940
 Alpha  occ. eigenvalues --   -0.72431  -0.69345  -0.65518  -0.61372  -0.60260
 Alpha  occ. eigenvalues --   -0.58712  -0.54556  -0.52360  -0.49945  -0.48121
 Alpha  occ. eigenvalues --   -0.43549  -0.39842  -0.38269  -0.38000  -0.36389
 Alpha  occ. eigenvalues --   -0.34811  -0.34486  -0.33327  -0.32309  -0.31983
 Alpha  occ. eigenvalues --   -0.31057  -0.29753  -0.28560  -0.28204  -0.27577
 Alpha  occ. eigenvalues --   -0.26296  -0.25996  -0.24693  -0.24367  -0.23948
 Alpha  occ. eigenvalues --   -0.23634  -0.23085  -0.22208  -0.21436  -0.20578
 Alpha  occ. eigenvalues --   -0.17829  -0.11475   0.04537
 Alpha virt. eigenvalues --    0.06491   0.06626   0.07661   0.08342   0.08932
 Alpha virt. eigenvalues --    0.09140   0.09687   0.09864   0.10813   0.10978
 Alpha virt. eigenvalues --    0.11196   0.12135   0.12647   0.13152   0.13191

  Beta  occ. eigenvalues --  -19.02164 -14.19369 -10.11515 -10.09809 -10.08797
  Beta  occ. eigenvalues --  -10.08458 -10.06814 -10.06386 -10.06205 -10.05909
  Beta  occ. eigenvalues --  -10.05861 -10.05482 -10.05463  -0.92312  -0.80918
  Beta  occ. eigenvalues --   -0.72406  -0.69322  -0.65486  -0.61331  -0.60226
  Beta  occ. eigenvalues --   -0.58657  -0.54512  -0.52302  -0.49888  -0.48080
  Beta  occ. eigenvalues --   -0.43493  -0.39803  -0.38238  -0.37975  -0.36353
  Beta  occ. eigenvalues --   -0.34781  -0.34448  -0.33290  -0.32274  -0.31952
  Beta  occ. eigenvalues --   -0.31021  -0.29724  -0.28529  -0.28171  -0.27543
  Beta  occ. eigenvalues --   -0.26265  -0.25956  -0.24657  -0.24332  -0.23924
  Beta  occ. eigenvalues --   -0.23603  -0.23059  -0.22182  -0.21397  -0.20551
  Beta  occ. eigenvalues --   -0.17801  -0.11456
  Beta virt. eigenvalues --    0.06555   0.07205   0.07413   0.08131   0.08864
  Beta virt. eigenvalues --    0.09389   0.09522   0.10170   0.10350   0.11136
  Beta virt. eigenvalues --    0.11304   0.11517   0.12391   0.12932   0.13357

 Mulliken charges and spin densities:
               1          2
     1  C    0.236017  -0.891877
     2  C   -0.624832   0.603080
     3  C   -0.192516   0.021897
     4  C   -0.196286  -0.356324
     5  C   -0.712848   0.283473
     6  C    1.831752  -2.518009
     7  C   -1.883954   2.959659
     8  C   -0.300330  -0.340904
     9  C    0.671718  -0.976997
    10  N    0.016388   0.068841
    11  C    1.373489  -2.094395
    12  C    0.641308  -1.203204
    13  O   -0.180993   0.009512
    14  H    0.139288   0.061097
    15  H   -0.149539   0.268047
    16  H   -0.034577   0.151395
    17  H   -0.073911   0.184579
    18  H   -0.064964   0.213314
    19  H    0.070400   0.107931
    20  H    0.040115   0.063279
    21  H   -0.023117   0.188086
    22  H    0.153815   0.075826
    23  H    0.111321   0.096724
    24  H   -0.193499   0.369552
    25  H   -0.089382   0.253796
    26  H   -0.312082   0.488593
    27  H   -0.254857   0.445122
    28  H   -0.161396   0.304938
    29  H    0.115190   0.098026
    30  H   -0.206358   0.359074
    31  H   -0.031185   0.188299
    32  H   -0.052767   0.172463
    33  H   -0.269575   0.418811
    34  H   -0.145441   0.273833
    35  H   -0.253814   0.399564
    36  H    0.007419   0.252900
 Sum of Mulliken charges =  -1.00000   1.00000

 Dipole moment (field-independent basis, Debye):
    X=             -2.9647    Y=              1.3639    Z=              1.8415  Tot=              3.7471
 Quadrupole moment (field-independent basis, Debye-Ang):
   XX=           -158.0390   YY=           -132.1233   ZZ=           -123.4609
   XY=              2.2912   XZ=              0.4230   YZ=              0.9633

 Summary of Natural Population Analysis:

                                       Natural Population
                Natural  -----------------------------------------------
    Atom  No    Charge         Core      Valence    Rydberg      Total
 -----------------------------------------------------------------------
      C    1   -0.28728      0.99966     2.28323    0.00439     3.28728
      C    2   -0.18601      0.99964     2.17926    0.00710     3.18601
      C    3   -0.19124      0.99960     2.18358    0.00805     3.19124
      C    4   -0.01212      0.99956     1.99859    0.01398     3.01212
      C    5    0.05957      0.99952     1.92747    0.01344     2.94043
      C    6   -0.20311      0.99957     2.19199    0.01154     3.20311
      C    7   -0.04914      0.99957     2.03684    0.01273     3.04914
      C    8   -0.19250      0.99958     2.18278    0.01014     3.19250
      C    9   -0.08509      0.99962     2.07343    0.01205     3.08509
      N   10   -0.34655      0.99974     2.83554    0.01126     3.84655
      C   11   -0.28471      0.99962     2.27767    0.00742     3.28471
      C   12   -0.27932      0.99963     2.27214    0.00755     3.27932
      O   13   -0.37308      0.99990     3.36674    0.00644     4.37308
      H   14    0.10963      0.00000     0.38898    0.00139     0.39037
      H   15    0.09228      0.00000     0.40664    0.00108     0.40772
      H   16    0.09073      0.00000     0.40808    0.00119     0.40927
      H   17    0.09309      0.00000     0.40554    0.00136     0.40691
      H   18    0.09076      0.00000     0.40804    0.00120     0.40924
      H   19    0.10902      0.00000     0.38962    0.00137     0.39098
      H   20    0.09029      0.00000     0.40847    0.00124     0.40971
      H   21    0.08645      0.00000     0.41131    0.00224     0.41355
      H   22    0.08512      0.00000     0.41268    0.00220     0.41488
      H   23    0.10605      0.00000     0.39259    0.00137     0.39395
      H   24    0.10051      0.00000     0.39762    0.00186     0.39949
      H   25    0.09610      0.00000     0.40230    0.00160     0.40390
      H   26    0.10225      0.00000     0.39602    0.00173     0.39775
      H   27    0.09213      0.00000     0.40681    0.00105     0.40787
      H   28    0.09255      0.00000     0.40566    0.00180     0.40745
      H   29    0.17239      0.00000     0.32507    0.00254     0.32761
      H   30    0.10218      0.00000     0.39677    0.00105     0.39782
      H   31    0.09885      0.00000     0.40023    0.00091     0.40115
      H   32    0.09538      0.00000     0.40330    0.00133     0.40462
      H   33    0.10131      0.00000     0.39739    0.00130     0.39869
      H   34    0.09714      0.00000     0.40178    0.00108     0.40286
      H   35    0.09999      0.00000     0.39877    0.00124     0.40001
      H   36    0.22637      0.00000     0.27037    0.00326     0.27363
 =======================================================================
   * Total *    0.00000     12.99521    38.84330    0.16149    52.00000

 Normal termination of Gaussian 16 at Wed Dec  9 23:10:19 2020.
