 Gaussian 16, Revision A.03,

 -----------------------------------------------------------
 # opt freq B3LYP/6-31G(d) empiricaldispersion=gd3bj scf=xqc
 -----------------------------------------------------------

 ------------------------------
 CID_83188875_JID_5164_neutraal
 ------------------------------
 Symbolic Z-matrix:
 Charge =  0 Multiplicity = 1

 SCF Done:  E(RB3LYP) =  -662.675845411     A.U. after   15 cycles
 SCF Done:  E(RB3LYP) =  -662.682656932     A.U. after   12 cycles
 SCF Done:  E(RB3LYP) =  -662.683385982     A.U. after   11 cycles
 SCF Done:  E(RB3LYP) =  -662.683546704     A.U. after   10 cycles
 SCF Done:  E(RB3LYP) =  -662.683808697     A.U. after   11 cycles
 SCF Done:  E(RB3LYP) =  -662.683895610     A.U. after   11 cycles
 SCF Done:  E(RB3LYP) =  -662.683979191     A.U. after   10 cycles
 SCF Done:  E(RB3LYP) =  -662.684019740     A.U. after   10 cycles
 SCF Done:  E(RB3LYP) =  -662.684037842     A.U. after   10 cycles
 SCF Done:  E(RB3LYP) =  -662.684047735     A.U. after    9 cycles
 SCF Done:  E(RB3LYP) =  -662.684058230     A.U. after    7 cycles
 SCF Done:  E(RB3LYP) =  -662.684058315     A.U. after    7 cycles
 SCF Done:  E(RB3LYP) =  -662.684058385     A.U. after    6 cycles
 SCF Done:  E(RB3LYP) =  -662.684058425     A.U. after    7 cycles
 SCF Done:  E(RB3LYP) =  -662.684058453     A.U. after    7 cycles
 Optimization completed.
    -- Stationary point found.
 Normal termination of Gaussian 16 at Thu Dec 10 14:51:40 2020.

 --------------------------------------------------------------------
 #N Geom=AllCheck Guess=TCheck SCRF=Check GenChk RB3LYP/6-31G(d) Freq
 --------------------------------------------------------------------

 Structure from the checkpoint file:  "JID_5164.chk"
 ------------------------------
 CID_83188875_JID_5164_neutraal
 ------------------------------
 Charge =  0 Multiplicity = 1

 SCF Done:  E(RB3LYP) =  -662.684058453     A.U. after    1 cycles

  Exact polarizability: 226.774  -0.617 132.430  -2.381   0.970  68.703
 Approx polarizability: 297.226  -4.078 226.728  -4.753   3.706 106.182

                      1                      2                      3
                      A                      A                      A
 Frequencies --     44.2633                49.4326                78.3776
 Red. masses --      3.9456                 4.3096                 1.7451
 Frc consts  --      0.0046                 0.0062                 0.0063
 IR Inten    --      3.8183                 0.7050                 2.9735

                      4                      5                      6
                      A                      A                      A
 Frequencies --     84.3958               106.8340               135.7055
 Red. masses --      1.3018                 4.1555                 1.0672
 Frc consts  --      0.0055                 0.0279                 0.0116
 IR Inten    --      0.8351                 3.3899                 0.2302

                      7                      8                      9
                      A                      A                      A
 Frequencies --    141.9172               204.5943               217.1467
 Red. masses --      3.3987                 3.5862                 3.6189
 Frc consts  --      0.0403                 0.0884                 0.1005
 IR Inten    --      1.5923                 1.9073                 0.1865

                     10                     11                     12
                      A                      A                      A
 Frequencies --    256.0343               267.9694               293.0426
 Red. masses --      1.5822                 3.3383                 2.9109
 Frc consts  --      0.0611                 0.1412                 0.1473
 IR Inten    --     34.0716                 0.2147                10.8085

                     13                     14                     15
                      A                      A                      A
 Frequencies --    319.2048               351.8776               371.7810
 Red. masses --      3.5125                 3.1164                 3.4492
 Frc consts  --      0.2109                 0.2273                 0.2809
 IR Inten    --      6.9310                18.9321                 2.8161

                     16                     17                     18
                      A                      A                      A
 Frequencies --    456.7193               468.6130               540.0553
 Red. masses --      3.6788                 5.0482                 4.7256
 Frc consts  --      0.4521                 0.6532                 0.8120
 IR Inten    --      1.4802                10.6167                 2.5517

                     19                     20                     21
                      A                      A                      A
 Frequencies --    571.8253               610.1036               641.5429
 Red. masses --      4.6056                 3.6180                 3.2187
 Frc consts  --      0.8873                 0.7935                 0.7805
 IR Inten    --     11.8327                 1.3526                 7.6830

                     22                     23                     24
                      A                      A                      A
 Frequencies --    654.9193               669.4666               696.5953
 Red. masses --      4.7252                 5.8026                 4.6852
 Frc consts  --      1.1941                 1.5323                 1.3395
 IR Inten    --      0.8945                 3.1468                 4.1795

                     25                     26                     27
                      A                      A                      A
 Frequencies --    779.7895               804.5845               827.6284
 Red. masses --      4.7387                 7.0555                 1.3288
 Frc consts  --      1.6977                 2.6910                 0.5363
 IR Inten    --     10.1187                20.3950                12.9322

                     28                     29                     30
                      A                      A                      A
 Frequencies --    875.0954               875.9381               912.5849
 Red. masses --      1.2931                 1.2987                 6.9848
 Frc consts  --      0.5834                 0.5871                 3.4273
 IR Inten    --     53.1514                51.0007                33.3017

                     31                     32                     33
                      A                      A                      A
 Frequencies --    979.1940               983.8152              1009.4840
 Red. masses --      1.5137                 3.3187                 1.5305
 Frc consts  --      0.8551                 1.8925                 0.9189
 IR Inten    --     20.4025               105.3959                 9.6448

                     34                     35                     36
                      A                      A                      A
 Frequencies --   1019.2860              1028.4382              1043.9023
 Red. masses --      1.6890                 1.6162                 2.9810
 Frc consts  --      1.0339                 1.0072                 1.9139
 IR Inten    --     15.9052                 9.1392                22.2230

                     37                     38                     39
                      A                      A                      A
 Frequencies --   1069.9601              1075.0525              1079.5723
 Red. masses --      1.5908                 3.1870                 1.4559
 Frc consts  --      1.0730                 2.1702                 0.9997
 IR Inten    --      3.9726                 7.2278                 2.2936

                     40                     41                     42
                      A                      A                      A
 Frequencies --   1124.8444              1182.6573              1191.7367
 Red. masses --      2.7913                 3.6469                 1.2596
 Frc consts  --      2.0808                 3.0054                 1.0540
 IR Inten    --      8.5451                11.3526                11.7066

                     43                     44                     45
                      A                      A                      A
 Frequencies --   1224.5856              1255.0194              1287.6425
 Red. masses --      1.5632                 2.2211                 3.3235
 Frc consts  --      1.3812                 2.0612                 3.2466
 IR Inten    --     35.1171                 1.4136                 8.3165

                     46                     47                     48
                      A                      A                      A
 Frequencies --   1299.6560              1329.7994              1344.8112
 Red. masses --      2.5489                 4.4231                 1.3487
 Frc consts  --      2.5366                 4.6084                 1.4371
 IR Inten    --      2.5897                17.6558                 4.0021

                     49                     50                     51
                      A                      A                      A
 Frequencies --   1401.7347              1409.8834              1429.5157
 Red. masses --      4.0295                 3.6461                 1.3500
 Frc consts  --      4.6648                 4.2701                 1.6254
 IR Inten    --      0.9716                26.1240                 4.4327

                     52                     53                     54
                      A                      A                      A
 Frequencies --   1433.6089              1445.0719              1455.2630
 Red. masses --      1.7023                 1.6756                 2.3996
 Frc consts  --      2.0613                 2.0615                 2.9941
 IR Inten    --    249.1053                 2.2243               108.6050

                     55                     56                     57
                      A                      A                      A
 Frequencies --   1476.4790              1501.4258              1513.3440
 Red. masses --      2.7278                 1.5822                 1.0595
 Frc consts  --      3.5036                 2.1015                 1.4296
 IR Inten    --     32.5862               157.7547                18.0304

                     58                     59                     60
                      A                      A                      A
 Frequencies --   1513.6789              1515.3268              1530.5742
 Red. masses --      2.2573                 1.0430                 1.0836
 Frc consts  --      3.0472                 1.4111                 1.4956
 IR Inten    --    430.3990                 5.2051                 3.6837

                     61                     62                     63
                      A                      A                      A
 Frequencies --   1532.5940              1606.1836              1640.4560
 Red. masses --      1.2572                 8.0068                 5.5750
 Frc consts  --      1.7398                12.1702                 8.8394
 IR Inten    --     55.9942                99.0608               136.8279

                     64                     65                     66
                      A                      A                      A
 Frequencies --   1651.2791              1696.4597              2964.6348
 Red. masses --      5.7671                 1.0959                 1.0730
 Frc consts  --      9.2651                 1.8582                 5.5562
 IR Inten    --     95.0826                30.8701                65.2480

                     67                     68                     69
                      A                      A                      A
 Frequencies --   3038.2594              3043.8070              3047.6332
 Red. masses --      1.0870                 1.0374                 1.0404
 Frc consts  --      5.9118                 5.6626                 5.6937
 IR Inten    --     28.3721                49.2997                12.6490

                     70                     71                     72
                      A                      A                      A
 Frequencies --   3093.3329              3098.0667              3124.5792
 Red. masses --      1.1013                 1.0996                 1.1005
 Frc consts  --      6.2091                 6.2181                 6.3305
 IR Inten    --     22.6362                13.5522                16.7636

                     73                     74                     75
                      A                      A                      A
 Frequencies --   3169.1852              3211.3617              3243.8994
 Red. masses --      1.0994                 1.0913                 1.0956
 Frc consts  --      6.5057                 6.6309                 6.7928
 IR Inten    --      5.1726                 6.1425                11.1430

                     76                     77                     78
                      A                      A                      A
 Frequencies --   3312.6852              3474.7900              3563.7377
 Red. masses --      1.0976                 1.0507                 1.0922
 Frc consts  --      7.0966                 7.4742                 8.1727
 IR Inten    --      3.1008                 0.3040                 0.1419

 - Thermochemistry -
 -------------------
 Temperature   298.150 Kelvin.  Pressure   1.00000 Atm.
 Atom     1 has atomic number  6 and mass  12.00000

 Molecular mass:   203.11710 amu.
 Principal axes and moments of inertia in atomic units:
                           1         2         3
     Eigenvalues --  1078.388426177.308237204.35106
           X            0.99993   0.01183   0.00120
           Y           -0.01182   0.99992  -0.00360
           Z           -0.00124   0.00358   0.99999
 This molecule is an asymmetric top.
 Rotational symmetry number  1.
 Warning -- assumption of classical behavior for rotation
           may cause significant error
 Rotational temperatures (Kelvin)      0.08032     0.01402     0.01202
 Rotational constants (GHZ):           1.67355     0.29216     0.25051
 Zero-point vibrational energy     603972.7 (Joules/Mol)
                                  144.35293 (Kcal/Mol)
 Warning -- explicit consideration of  20 degrees of freedom as
           vibrations may cause significant error
 Vibrational temperatures:     63.69    71.12   112.77   121.43   153.71
          (Kelvin)            195.25   204.19   294.37   312.43   368.38
                              385.55   421.62   459.26   506.27   534.91
                              657.12   674.23   777.02   822.73   877.80
                              923.04   942.28   963.21  1002.25  1121.94
                             1157.62  1190.77  1259.07  1260.28  1313.01
                             1408.84  1415.49  1452.42  1466.53  1479.69
                             1501.94  1539.43  1546.76  1553.26  1618.40
                             1701.58  1714.64  1761.91  1805.69  1852.63
                             1869.92  1913.28  1934.88  2016.78  2028.51
                             2056.75  2062.64  2079.14  2093.80  2124.32
                             2160.22  2177.36  2177.85  2180.22  2202.15
                             2205.06  2310.94  2360.25  2375.82  2440.83
                             4265.45  4371.38  4379.36  4384.86  4450.62
                             4457.43  4495.57  4559.75  4620.43  4667.25
                             4766.22  4999.45  5127.42

 Zero-point correction=                           0.230041 (Hartree/Particle)
 Thermal correction to Energy=                    0.244149
 Thermal correction to Enthalpy=                  0.245094
 Thermal correction to Gibbs Free Energy=         0.188191
 Sum of electronic and zero-point Energies=           -662.454017
 Sum of electronic and thermal Energies=              -662.439909
 Sum of electronic and thermal Enthalpies=            -662.438965
 Sum of electronic and thermal Free Energies=         -662.495867

                     E (Thermal)             CV                S
                      KCal/Mol        Cal/Mol-Kelvin    Cal/Mol-Kelvin
 Total                  153.206             52.151            119.761
 Electronic               0.000              0.000              0.000
 Translational            0.889              2.981             41.830
 Rotational               0.889              2.981             32.240
 Vibrational            151.429             46.190             45.691
 Vibration     1          0.595              1.980              5.059
 Vibration     2          0.595              1.978              4.840
 Vibration     3          0.600              1.964              3.931
 Vibration     4          0.601              1.960              3.786
 Vibration     5          0.606              1.944              3.326
 Vibration     6          0.614              1.918              2.864
 Vibration     7          0.615              1.911              2.778
 Vibration     8          0.640              1.833              2.091
 Vibration     9          0.646              1.815              1.983
 Vibration    10          0.666              1.753              1.689
 Vibration    11          0.673              1.732              1.609
 Vibration    12          0.688              1.687              1.456
 Vibration    13          0.705              1.637              1.314
 Vibration    14          0.728              1.571              1.158
 Vibration    15          0.743              1.530              1.072
 Vibration    16          0.815              1.346              0.776
 Vibration    17          0.826              1.320              0.741
 Vibration    18          0.895              1.161              0.565
 Vibration    19          0.928              1.092              0.501
 Vibration    20          0.969              1.010              0.433

 Optimization completed.
    -- Stationary point found.
 Normal termination of Gaussian 16 at Thu Dec 10 14:58:32 2020.

 ----------------------------------------------------------------------
 # B3LYP/6-311++G(d,p) empiricaldispersion=gd3bj scf=xqc pop=npa geom=c
 heck
 ----------------------------------------------------------------------

 --------------------------------------
 CID_83188875_JID_5164_Energie_neutraal
 --------------------------------------
 Structure from the checkpoint file:  "JID_5164.chk"
 Charge =  0 Multiplicity = 1

 SCF Done:  E(RB3LYP) =  -662.862979726     A.U. after   15 cycles
 Normal termination of Gaussian 16 at Thu Dec 10 15:01:47 2020.

 ----------------------------------------------------------------------
 # B3LYP/6-311++G(d,p) empiricaldispersion=gd3bj scf=xqc pop=npa geom=c
 heck
 ----------------------------------------------------------------------

 ------------------------------------
 CID_83188875_JID_5164_Energie_kation
 ------------------------------------
 Structure from the checkpoint file:  "JID_5164.chk"
 Charge =  1 Multiplicity = 2

 SCF Done:  E(UB3LYP) =  -662.569306371     A.U. after   25 cycles
 Normal termination of Gaussian 16 at Thu Dec 10 15:09:17 2020.
 Gaussian 16:  ES64L-G16RevA.03 25-Dec-2016

 ----------------------------------------------------------------------
 # B3LYP/6-311++G(d,p) empiricaldispersion=gd3bj scf=xqc pop=npa geom=c
 heck
 ----------------------------------------------------------------------

 -----------------------------------
 CID_83188875_JID_5164_Energie_anion
 -----------------------------------
 Structure from the checkpoint file:  "JID_5164.chk"
 Charge = -1 Multiplicity = 2

                         Standard orientation:
 ---------------------------------------------------------------------
 Center     Atomic      Atomic             Coordinates (Angstroms)
 Number     Number       Type             X           Y           Z
 ---------------------------------------------------------------------
      1          6           0       -5.068952   -1.067045    0.003574
      2          6           0       -3.755284   -0.347072    0.014610
      3          6           0       -2.492619   -0.886798   -0.034151
      4          7           0       -1.604402    0.163122   -0.000258
      5          7           0       -2.235649    1.368642    0.068946
      6          6           0       -3.522522    1.059627    0.077749
      7          6           0       -0.202514    0.059393   -0.030756
      8          7           0        0.275149   -1.186320   -0.092577
      9          6           0        1.608432   -1.287759   -0.114845
     10          6           0        2.460935   -0.185541   -0.072533
     11          6           0        1.830934    1.072616   -0.020312
     12          7           0        0.498224    1.191680    0.002025
     13          6           0        2.615177    2.356761    0.005298
     14          6           0        3.965455   -0.332184   -0.102684
     15          7           0        4.380704   -1.708883    0.176722
     16          1           0       -5.652917   -0.854137    0.907372
     17          1           0       -4.923845   -2.150417   -0.050129
     18          1           0       -5.683584   -0.770982   -0.855351
     19          1           0       -2.138242   -1.903225   -0.089676
     20          1           0       -4.258254    1.853123    0.129273
     21          1           0        2.024057   -2.289644   -0.171023
     22          1           0        1.925013    3.201543   -0.009762
     23          1           0        3.237836    2.422532    0.906535
     24          1           0        3.290173    2.427674   -0.856298
     25          1           0        4.332280   -0.075983   -1.106784
     26          1           0        4.411845    0.414437    0.577081
     27          1           0        5.381305   -1.802522    0.018562
     28          1           0        4.221905   -1.922074    1.160492
 ---------------------------------------------------------------------

 SCF Done:  E(UB3LYP) =  -662.860238469     A.U. after   33 cycles
 SCF Done:  E(UB3LYP) =  -662.860238469     a.u. after    1 cycles

 The electronic state is 2-A.
 Alpha  occ. eigenvalues --  -14.27421 -14.20973 -14.18647 -14.18169 -14.17954
 Alpha  occ. eigenvalues --  -10.13784 -10.09468 -10.08873 -10.08694 -10.08417
 Alpha  occ. eigenvalues --  -10.08363 -10.07627 -10.06520 -10.05751 -10.05469
 Alpha  occ. eigenvalues --   -0.93890  -0.86097  -0.77555  -0.76874  -0.72802
 Alpha  occ. eigenvalues --   -0.69187  -0.66872  -0.61339  -0.60837  -0.56352
 Alpha  occ. eigenvalues --   -0.51114  -0.51043  -0.46958  -0.45610  -0.41976
 Alpha  occ. eigenvalues --   -0.40495  -0.38385  -0.35578  -0.35350  -0.33466
 Alpha  occ. eigenvalues --   -0.32848  -0.32545  -0.31722  -0.31169  -0.30551
 Alpha  occ. eigenvalues --   -0.29911  -0.28397  -0.27771  -0.27359  -0.26787
 Alpha  occ. eigenvalues --   -0.26544  -0.19375  -0.18780  -0.17697  -0.17430
 Alpha  occ. eigenvalues --   -0.14048  -0.13760  -0.12501  -0.11495   0.04382
 Alpha virt. eigenvalues --    0.06637   0.06688   0.08157   0.08546   0.09226
 Alpha virt. eigenvalues --    0.09604   0.10050   0.10193   0.11324   0.11488
 Alpha virt. eigenvalues --    0.12456   0.12752   0.13227   0.13834   0.14347

  Beta  occ. eigenvalues --  -14.27467 -14.20835 -14.18727 -14.18103 -14.17752
  Beta  occ. eigenvalues --  -10.13560 -10.09276 -10.08900 -10.08679 -10.08364
  Beta  occ. eigenvalues --  -10.08323 -10.07602 -10.06505 -10.05761 -10.05375
  Beta  occ. eigenvalues --   -0.93767  -0.85862  -0.77422  -0.76650  -0.72613
  Beta  occ. eigenvalues --   -0.69052  -0.66695  -0.61177  -0.60755  -0.56205
  Beta  occ. eigenvalues --   -0.50948  -0.50891  -0.46908  -0.45412  -0.41865
  Beta  occ. eigenvalues --   -0.40371  -0.38269  -0.35385  -0.35060  -0.33325
  Beta  occ. eigenvalues --   -0.32754  -0.32418  -0.31557  -0.31069  -0.30507
  Beta  occ. eigenvalues --   -0.29831  -0.28265  -0.27600  -0.27071  -0.26572
  Beta  occ. eigenvalues --   -0.26487  -0.19255  -0.18283  -0.17299  -0.17025
  Beta  occ. eigenvalues --   -0.13801  -0.13303  -0.12386  -0.10967
  Beta virt. eigenvalues --    0.06650   0.07443   0.08347   0.08626   0.08930
  Beta virt. eigenvalues --    0.09246   0.10005   0.10112   0.10446   0.11504
  Beta virt. eigenvalues --    0.11850   0.12708   0.12910   0.13200   0.14129

 Mulliken charges and spin densities:
               1          2
     1  C   -0.905518  -0.000618
     2  C    0.265396   0.032527
     3  C   -0.071741   0.048654
     4  N    0.000992  -0.030144
     5  N    0.051018   0.069680
     6  C   -0.149109   0.012387
     7  C   -0.333565   0.024226
     8  N   -0.205614   0.104558
     9  C   -0.001141  -0.057733
    10  C   -0.050706   0.727929
    11  C   -0.361228   0.392156
    12  N    0.023058  -0.034392
    13  C   -0.055472  -0.560480
    14  C    1.014618  -1.819219
    15  N   -0.433071   0.075628
    16  H    0.132393   0.000398
    17  H    0.138197   0.000571
    18  H    0.132194   0.000579
    19  H    0.224426  -0.002263
    20  H    0.114102  -0.002998
    21  H    0.160002   0.054248
    22  H    0.179284  -0.016722
    23  H   -0.051365   0.207591
    24  H    0.116911   0.025149
    25  H   -0.188159   0.379467
    26  H   -0.290609   0.448496
    27  H   -0.362605   0.611809
    28  H   -0.092686   0.308516
 Sum of Mulliken charges =  -1.00000   1.00000

 Dipole moment (field-independent basis, Debye):
    X=             -8.5801    Y=              0.7945    Z=             -0.4774  Tot=              8.6300
 Quadrupole moment (field-independent basis, Debye-Ang):
   XX=           -169.6646   YY=           -116.0304   ZZ=           -104.8963
   XY=             17.4213   XZ=             -2.5125   YZ=             -1.5924

 Summary of Natural Population Analysis:

                                       Natural Population
                Natural  -----------------------------------------------
    Atom  No    Charge         Core      Valence    Rydberg      Total
 -----------------------------------------------------------------------
      C    1   -0.28993      0.99964     2.28598    0.00431     3.28993
      C    2   -0.07833      0.99953     2.07094    0.00786     3.07833
      C    3    0.01163      0.99951     1.97911    0.00975     2.98837
      N    4   -0.12021      0.99962     2.60795    0.01265     3.62021
      N    5   -0.11402      0.99973     2.60370    0.01059     3.61402
      C    6   -0.01256      0.99960     1.99825    0.01471     3.01256
      C    7    0.32772      0.99958     1.65551    0.01719     2.67228
      N    8   -0.23843      0.99968     2.72952    0.00923     3.73843
      C    9    0.04026      0.99954     1.94504    0.01515     2.95974
      C   10   -0.05317      0.99945     2.04395    0.00977     3.05317
      C   11    0.15871      0.99952     1.82765    0.01413     2.84129
      N   12   -0.25879      0.99965     2.75127    0.00787     3.75879
      C   13   -0.30667      0.99964     2.30092    0.00611     3.30667
      C   14   -0.09427      0.99961     2.08286    0.01179     3.09427
      N   15   -0.42290      0.99978     2.91187    0.01126     3.92290
      H   16    0.09782      0.00000     0.40117    0.00101     0.40218
      H   17    0.10027      0.00000     0.39887    0.00087     0.39973
      H   18    0.09781      0.00000     0.40118    0.00101     0.40219
      H   19    0.11318      0.00000     0.38583    0.00099     0.38682
      H   20    0.08952      0.00000     0.40964    0.00085     0.41048
      H   21    0.09870      0.00000     0.39943    0.00188     0.40130
      H   22    0.10927      0.00000     0.38961    0.00112     0.39073
      H   23    0.10639      0.00000     0.39218    0.00144     0.39361
      H   24    0.10234      0.00000     0.39675    0.00090     0.39766
      H   25    0.09687      0.00000     0.40141    0.00171     0.40313
      H   26    0.08447      0.00000     0.41362    0.00191     0.41553
      H   27    0.18023      0.00000     0.31360    0.00616     0.31977
      H   28    0.17410      0.00000     0.32355    0.00235     0.32590
 =======================================================================
   * Total *    0.00000     14.99406    38.82136    0.18457    54.00000

 Normal termination of Gaussian 16 at Thu Dec 10 15:19:15 2020.
