 Gaussian 16, Revision A.03,

 -----------------------------------------------------------
 # opt freq B3LYP/6-31G(d) empiricaldispersion=gd3bj scf=xqc
 -----------------------------------------------------------

 ------------------------------
 CID_20334569_JID_2133_neutraal
 ------------------------------
 Symbolic Z-matrix:
 Charge =  0 Multiplicity = 1

 SCF Done:  E(RB3LYP) =  -579.493588185     A.U. after   13 cycles
 SCF Done:  E(RB3LYP) =  -579.496010271     A.U. after   10 cycles
 SCF Done:  E(RB3LYP) =  -579.496180188     A.U. after   10 cycles
 SCF Done:  E(RB3LYP) =  -579.496203566     A.U. after    9 cycles
 SCF Done:  E(RB3LYP) =  -579.496211924     A.U. after    9 cycles
 SCF Done:  E(RB3LYP) =  -579.496214284     A.U. after    7 cycles
 SCF Done:  E(RB3LYP) =  -579.496214954     A.U. after    7 cycles
 Optimization completed.
    -- Stationary point found.

 1\1\GINC-NODE302\FOpt\RB3LYP\6-31G(d)\C9H18O3\VSC10255\09-Dec-2020\0\\
 # opt freq B3LYP/6-31G(d) empiricaldispersion=gd3bj scf=xqc\\CID_20334
 569_JID_2133_neutraal\\0,1\C,1.0644711131,-0.0790610785,0.0021676956\C
 ,0.2087572229,0.9128083049,-0.7919314374\C,0.2634151941,0.7509157667,-
 2.3186182527\C,-0.2610962336,-0.5631214986,-2.8978874642\C,-1.64640291
 98,-0.9853951927,-2.3942029902\C,-1.9861589569,-2.3645191139,-2.963932
 576\O,-0.9522363738,-3.2986848158,-2.6780476305\C,0.3319139003,-2.8816
 62626,-3.1090105435\O,0.6777001735,-1.6041733556,-2.6016488449\C,0.508

 Normal termination of Gaussian 16 at Wed Dec  9 16:47:57 2020.

 --------------------------------------------------------------------
 #N Geom=AllCheck Guess=TCheck SCRF=Check GenChk RB3LYP/6-31G(d) Freq
 --------------------------------------------------------------------

 Structure from the checkpoint file:  "JID_2133.chk"
 ------------------------------
 CID_20334569_JID_2133_neutraal
 ------------------------------
 Charge =  0 Multiplicity = 1

 SCF Done:  E(RB3LYP) =  -579.496214954     A.U. after    1 cycles

  Exact polarizability: 110.717   1.123 101.497  -0.116  -1.577  93.184
 Approx polarizability: 138.124   2.758 139.398  -1.725  -4.653 139.256

                      1                      2                      3
                      A                      A                      A
 Frequencies --     47.2308                68.4557                77.3949
 Red. masses --      3.0572                 2.8929                 4.4352
 Frc consts  --      0.0040                 0.0080                 0.0157
 IR Inten    --      0.0657                 0.1808                 0.7737

                      4                      5                      6
                      A                      A                      A
 Frequencies --    103.6165               142.3252               198.1791
 Red. masses --      2.4882                 1.8314                 1.8549
 Frc consts  --      0.0157                 0.0219                 0.0429
 IR Inten    --      0.0232                 0.1936                 1.1563

                      7                      8                      9
                      A                      A                      A
 Frequencies --    214.5487               230.8879               260.6778
 Red. masses --      1.5907                 1.6421                 2.0083
 Frc consts  --      0.0431                 0.0516                 0.0804
 IR Inten    --      0.8246                 0.0189                 4.4825

                     10                     11                     12
                      A                      A                      A
 Frequencies --    277.4759               289.4931               313.2876
 Red. masses --      2.6078                 1.3422                 1.9044
 Frc consts  --      0.1183                 0.0663                 0.1101
 IR Inten    --      3.1155                36.1770                27.1406

                     13                     14                     15
                      A                      A                      A
 Frequencies --    341.4427               371.8858               422.8630
 Red. masses --      2.6943                 2.3161                 3.1614
 Frc consts  --      0.1851                 0.1887                 0.3331
 IR Inten    --     25.8454                24.7211                 7.1693

                     16                     17                     18
                      A                      A                      A
 Frequencies --    443.4224               464.1431               493.1702
 Red. masses --      4.2373                 4.1307                 3.1981
 Frc consts  --      0.4909                 0.5243                 0.4583
 IR Inten    --     14.7169                 3.3122                 3.9362

                     19                     20                     21
                      A                      A                      A
 Frequencies --    542.1769               597.9249               721.7433
 Red. masses --      3.8632                 2.7372                 2.6797
 Frc consts  --      0.6691                 0.5766                 0.8224
 IR Inten    --      5.9447                 4.8794                 4.5081

                     22                     23                     24
                      A                      A                      A
 Frequencies --    772.6092               806.5684               820.8769
 Red. masses --      1.6455                 2.3203                 1.4950
 Frc consts  --      0.5787                 0.8893                 0.5935
 IR Inten    --      0.6632                 2.5428                 0.7561

                     25                     26                     27
                      A                      A                      A
 Frequencies --    857.9789               896.7752               910.6444
 Red. masses --      1.6849                 1.6709                 1.8707
 Frc consts  --      0.7308                 0.7917                 0.9140
 IR Inten    --      3.8447                 2.7777                 0.6786

                     28                     29                     30
                      A                      A                      A
 Frequencies --    974.1388               979.2231              1005.8629
 Red. masses --      2.3890                 2.6104                 2.4065
 Frc consts  --      1.3357                 1.4747                 1.4346
 IR Inten    --     55.7211                31.0078                29.9184

                     31                     32                     33
                      A                      A                      A
 Frequencies --   1039.8293              1041.3764              1068.4346
 Red. masses --      2.1760                 1.8793                 3.4572
 Frc consts  --      1.3862                 1.2007                 2.3253
 IR Inten    --     19.9758                15.5834                54.3001

                     34                     35                     36
                      A                      A                      A
 Frequencies --   1092.0734              1106.2645              1121.0750
 Red. masses --      1.7409                 3.0905                 2.6916
 Frc consts  --      1.2233                 2.2284                 1.9931
 IR Inten    --     49.7336                65.6528                49.7395

                     37                     38                     39
                      A                      A                      A
 Frequencies --   1129.3185              1146.2755              1168.7386
 Red. masses --      2.1577                 2.5829                 2.2068
 Frc consts  --      1.6213                 1.9995                 1.7761
 IR Inten    --     25.7176                69.6497                18.4334

                     40                     41                     42
                      A                      A                      A
 Frequencies --   1184.9196              1197.6961              1252.5710
 Red. masses --      2.2727                 2.9387                 1.3719
 Frc consts  --      1.8801                 2.4837                 1.2681
 IR Inten    --      7.7023               119.4448                 9.7926

                     43                     44                     45
                      A                      A                      A
 Frequencies --   1268.9556              1296.0831              1306.2981
 Red. masses --      1.2939                 1.2377                 1.2390
 Frc consts  --      1.2276                 1.2250                 1.2456
 IR Inten    --      2.6107                 0.4970                 7.0959

                     46                     47                     48
                      A                      A                      A
 Frequencies --   1320.7444              1347.9888              1353.8768
 Red. masses --      1.2280                 1.2306                 1.3290
 Frc consts  --      1.2621                 1.3175                 1.4353
 IR Inten    --      3.8809                 4.6873                 0.8345

                     49                     50                     51
                      A                      A                      A
 Frequencies --   1385.5589              1401.8406              1406.4036
 Red. masses --      1.2267                 1.3662                 1.3905
 Frc consts  --      1.3875                 1.5818                 1.6205
 IR Inten    --      2.1695                11.3253                 9.9292

                     52                     53                     54
                      A                      A                      A
 Frequencies --   1408.8826              1418.5676              1424.5971
 Red. masses --      1.3219                 1.3136                 1.3557
 Frc consts  --      1.5460                 1.5574                 1.6210
 IR Inten    --     44.1233                20.5875                14.8311

                     55                     56                     57
                      A                      A                      A
 Frequencies --   1434.6773              1443.0765              1445.1393
 Red. masses --      1.4360                 1.2403                 1.4088
 Frc consts  --      1.7415                 1.5218                 1.7335
 IR Inten    --     16.6811                 3.0064                 5.0786

                     58                     59                     60
                      A                      A                      A
 Frequencies --   1449.8203              1497.6475              1519.4535
 Red. masses --      1.2716                 1.0896                 1.0694
 Frc consts  --      1.5749                 1.4399                 1.4547
 IR Inten    --      6.3591                 3.8945                 1.1956

                     61                     62                     63
                      A                      A                      A
 Frequencies --   1525.7289              1527.2286              1527.5722
 Red. masses --      1.0474                 1.0416                 1.0431
 Frc consts  --      1.4366                 1.4314                 1.4342
 IR Inten    --      1.1516                 4.5329                 4.7553

                     64                     65                     66
                      A                      A                      A
 Frequencies --   1535.3045              1538.2322              1540.6229
 Red. masses --      1.0882                 1.0682                 1.0824
 Frc consts  --      1.5113                 1.4891                 1.5137
 IR Inten    --      1.6787                10.2811                10.4392

                     67                     68                     69
                      A                      A                      A
 Frequencies --   2942.1095              2979.1160              3038.9055
 Red. masses --      1.0811                 1.0719                 1.0631
 Frc consts  --      5.5136                 5.6049                 5.7842
 IR Inten    --     43.0404                61.5413                27.3027

                     70                     71                     72
                      A                      A                      A
 Frequencies --   3047.4837              3051.4127              3053.5514
 Red. masses --      1.0627                 1.0415                 1.0373
 Frc consts  --      5.8151                 5.7135                 5.6988
 IR Inten    --     28.9145                21.1113                25.0375

                     73                     74                     75
                      A                      A                      A
 Frequencies --   3064.5095              3071.2500              3089.6544
 Red. masses --      1.0606                 1.0960                 1.0964
 Frc consts  --      5.8682                 6.0911                 6.1664
 IR Inten    --     21.6599                33.5479                 7.3178

                     76                     77                     78
                      A                      A                      A
 Frequencies --   3090.8174              3104.9145              3110.8197
 Red. masses --      1.1017                 1.0939                 1.1019
 Frc consts  --      6.2011                 6.2133                 6.2827
 IR Inten    --     26.6595                30.5246                45.5551

                     79                     80                     81
                      A                      A                      A
 Frequencies --   3116.2849              3120.1940              3129.5514
 Red. masses --      1.0861                 1.1008                 1.0930
 Frc consts  --      6.2143                 6.3142                 6.3072
 IR Inten    --     18.3082                53.6591                41.6381

                     82                     83                     84
                      A                      A                      A
 Frequencies --   3136.0077              3145.1407              3714.9731
 Red. masses --      1.1024                 1.0993                 1.0657
 Frc consts  --      6.3878                 6.4066                 8.6655
 IR Inten    --     38.8261                31.3895                 6.8988

 - Thermochemistry -
 -------------------
 Temperature   298.150 Kelvin.  Pressure   1.00000 Atm.
 Atom     1 has atomic number  6 and mass  12.00000

 Molecular mass:   174.12559 amu.
 Principal axes and moments of inertia in atomic units:
                           1         2         3
     Eigenvalues --  1571.222692546.722803203.93427
           X            0.99964  -0.01201   0.02403
           Y            0.01212   0.99992  -0.00469
           Z           -0.02398   0.00498   0.99970
 This molecule is an asymmetric top.
 Rotational symmetry number  1.
 Warning -- assumption of classical behavior for rotation
           may cause significant error
 Rotational temperatures (Kelvin)      0.05513     0.03401     0.02703
 Rotational constants (GHZ):           1.14862     0.70865     0.56329
 Zero-point vibrational energy     708946.5 (Joules/Mol)
                                  169.44227 (Kcal/Mol)
 Warning -- explicit consideration of  20 degrees of freedom as
           vibrations may cause significant error
 Vibrational temperatures:     67.95    98.49   111.35   149.08   204.77
          (Kelvin)            285.14   308.69   332.20   375.06   399.23
                              416.52   450.75   491.26   535.06   608.41
                              637.99   667.80   709.56   780.07   860.28
                             1038.43  1111.61  1160.47  1181.06  1234.44
                             1290.26  1310.21  1401.57  1408.88  1447.21
                             1496.08  1498.31  1537.24  1571.25  1591.67
                             1612.98  1624.84  1649.23  1681.55  1704.84
                             1723.22  1802.17  1825.74  1864.77  1879.47
                             1900.26  1939.46  1947.93  1993.51  2016.94
                             2023.50  2027.07  2041.00  2049.68  2064.18
                             2076.27  2079.23  2085.97  2154.78  2186.15
                             2195.18  2197.34  2197.84  2208.96  2213.17
                             2216.61  4233.04  4286.28  4372.31  4384.65
                             4390.30  4393.38  4409.15  4418.84  4445.32
                             4447.00  4467.28  4475.78  4483.64  4489.26
                             4502.73  4512.02  4525.16  5345.02

 Zero-point correction=                           0.270023 (Hartree/Particle)
 Thermal correction to Energy=                    0.283201
 Thermal correction to Enthalpy=                  0.284145
 Thermal correction to Gibbs Free Energy=         0.230577
 Sum of electronic and zero-point Energies=           -579.226192
 Sum of electronic and thermal Energies=              -579.213014
 Sum of electronic and thermal Enthalpies=            -579.212070
 Sum of electronic and thermal Free Energies=         -579.265638

                     E (Thermal)             CV                S
                      KCal/Mol        Cal/Mol-Kelvin    Cal/Mol-Kelvin
 Total                  177.711             49.665            112.745
 Electronic               0.000              0.000              0.000
 Translational            0.889              2.981             41.371
 Rotational               0.889              2.981             30.928
 Vibrational            175.934             43.703             40.445
 Vibration     1          0.595              1.979              4.930
 Vibration     2          0.598              1.969              4.197
 Vibration     3          0.599              1.964              3.956
 Vibration     4          0.605              1.946              3.385
 Vibration     5          0.616              1.911              2.772
 Vibration     6          0.637              1.842              2.150
 Vibration     7          0.644              1.819              2.005
 Vibration     8          0.653              1.794              1.872
 Vibration     9          0.669              1.745              1.657
 Vibration    10          0.678              1.715              1.549
 Vibration    11          0.686              1.693              1.477
 Vibration    12          0.701              1.648              1.345
 Vibration    13          0.721              1.593              1.205
 Vibration    14          0.744              1.530              1.072
 Vibration    15          0.785              1.421              0.882
 Vibration    16          0.803              1.375              0.816
 Vibration    17          0.822              1.330              0.754
 Vibration    18          0.849              1.265              0.675
 Vibration    19          0.897              1.157              0.561
 Vibration    20          0.956              1.036              0.453

                           ! Non-Optimized Parameters !

 1\1\GINC-NODE302\Freq\RB3LYP\6-31G(d)\C9H18O3\VSC10255\09-Dec-2020\0\\
 #N Geom=AllCheck Guess=TCheck SCRF=Check GenChk RB3LYP/6-31G(d) Freq\\
 CID_20334569_JID_2133_neutraal\\0,1\C,1.0644711131,-0.0790610785,0.002
 1676956\C,0.2087572229,0.9128083049,-0.7919314374\C,0.2634151941,0.750
 9157667,-2.3186182527\C,-0.2610962336,-0.5631214986,-2.8978874642\C,-1
 .6464029198,-0.9853951927,-2.3942029902\C,-1.9861589569,-2.3645191139,
 -2.963932576\O,-0.9522363738,-3.2986848158,-2.6780476305\C,0.331913900
 3,-2.881662626,-3.1090105435\O,0.6777001735,-1.6041733556,-2.601648844

 Normal termination of Gaussian 16 at Wed Dec  9 16:55:31 2020.

 ----------------------------------------------------------------------
 # B3LYP/6-311++G(d,p) empiricaldispersion=gd3bj scf=xqc pop=npa geom=c
 heck
 ----------------------------------------------------------------------

 --------------------------------------
 CID_20334569_JID_2133_Energie_neutraal
 --------------------------------------
 Structure from the checkpoint file:  "JID_2133.chk"
 Charge =  0 Multiplicity = 1

 SCF Done:  E(RB3LYP) =  -579.672810345     A.U. after   13 cycles
 Normal termination of Gaussian 16 at Wed Dec  9 16:58:44 2020.

 ----------------------------------------------------------------------
 # B3LYP/6-311++G(d,p) empiricaldispersion=gd3bj scf=xqc pop=npa geom=c
 heck
 ----------------------------------------------------------------------

 ------------------------------------
 CID_20334569_JID_2133_Energie_kation
 ------------------------------------
 Structure from the checkpoint file:  "JID_2133.chk"
 Charge =  1 Multiplicity = 2

 SCF Done:  E(UB3LYP) =  -579.339238175     A.U. after   23 cycles
 Normal termination of Gaussian 16 at Wed Dec  9 17:06:18 2020.
 Gaussian 16:  ES64L-G16RevA.03 25-Dec-2016

 -----------------------------------
 CID_20334569_JID_2133_Energie_anion
 -----------------------------------
 Structure from the checkpoint file:  "JID_2133.chk"
 Charge = -1 Multiplicity = 2

                         Standard orientation:
 ---------------------------------------------------------------------
 Center     Atomic      Atomic             Coordinates (Angstroms)
 Number     Number       Type             X           Y           Z
 ---------------------------------------------------------------------
      1          6           0        2.496669   -1.656075    1.154195
      2          6           0        2.816756   -0.833481   -0.097814
      3          6           0        1.669232   -0.707958   -1.111422
      4          6           0        0.405111    0.014353   -0.644921
      5          6           0        0.644877    1.375945    0.018153
      6          6           0       -0.688226    1.921679    0.534893
      7          8           0       -1.333372    0.970613    1.373137
      8          6           0       -1.512969   -0.298140    0.767590
      9          8           0       -0.296456   -0.832203    0.273792
     10          6           0       -2.633874   -0.299559   -0.279370
     11          6           0       -2.878180   -1.695465   -0.854952
     12          8           0        1.282082    2.296763   -0.858031
     13          1           0        1.703908   -1.195048    1.748300
     14          1           0        3.386945   -1.762674    1.784716
     15          1           0        2.151352   -2.660791    0.883422
     16          1           0        3.157774    0.169236    0.189224
     17          1           0        3.665081   -1.293644   -0.621552
     18          1           0        2.040029   -0.169077   -1.991337
     19          1           0        1.362834   -1.705330   -1.452730
     20          1           0       -0.228195    0.186720   -1.535169
     21          1           0        1.323669    1.249541    0.864847
     22          1           0       -0.533678    2.817725    1.140730
     23          1           0       -1.325023    2.200614   -0.322550
     24          1           0       -1.788229   -0.963270    1.590923
     25          1           0       -3.534783    0.079938    0.216583
     26          1           0       -2.409537    0.402056   -1.090339
     27          1           0       -3.129065   -2.409942   -0.061752
     28          1           0       -3.705780   -1.686452   -1.571729
     29          1           0       -1.984235   -2.069699   -1.362816
     30          1           0        0.712521    2.400919   -1.638064
 ---------------------------------------------------------------------

 SCF Done:  E(UB3LYP) =  -579.660104270     A.U. after   27 cycles

 The electronic state is 2-A.
 Alpha  occ. eigenvalues --  -19.02975 -19.02505 -19.02115 -10.16630 -10.11753
 Alpha  occ. eigenvalues --  -10.11681 -10.11492 -10.06618 -10.06276 -10.06143
 Alpha  occ. eigenvalues --  -10.05706 -10.05510  -0.97603  -0.92345  -0.90837
 Alpha  occ. eigenvalues --   -0.70817  -0.67719  -0.65273  -0.61103  -0.57046
 Alpha  occ. eigenvalues --   -0.54714  -0.52395  -0.48392  -0.46231  -0.41569
 Alpha  occ. eigenvalues --   -0.40607  -0.39775  -0.36652  -0.36239  -0.34918
 Alpha  occ. eigenvalues --   -0.33501  -0.32151  -0.31597  -0.30484  -0.28682
 Alpha  occ. eigenvalues --   -0.28525  -0.27800  -0.27412  -0.26261  -0.24900
 Alpha  occ. eigenvalues --   -0.24374  -0.23645  -0.23190  -0.21950  -0.21553
 Alpha  occ. eigenvalues --   -0.19729  -0.16155  -0.14964   0.04749
 Alpha virt. eigenvalues --    0.07038   0.07250   0.08230   0.09312   0.09554
 Alpha virt. eigenvalues --    0.10043   0.10172   0.11056   0.12035   0.12220
 Alpha virt. eigenvalues --    0.12269   0.13440   0.13706   0.14201   0.15087

  Beta  occ. eigenvalues --  -19.02967 -19.02502 -19.02057 -10.16627 -10.11751
  Beta  occ. eigenvalues --  -10.11654 -10.11466 -10.06610 -10.06248 -10.06124
  Beta  occ. eigenvalues --  -10.05699 -10.05477  -0.97584  -0.92229  -0.90820
  Beta  occ. eigenvalues --   -0.70778  -0.67688  -0.65228  -0.61066  -0.56995
  Beta  occ. eigenvalues --   -0.54673  -0.52311  -0.48350  -0.46161  -0.41542
  Beta  occ. eigenvalues --   -0.40566  -0.39697  -0.36600  -0.36194  -0.34891
  Beta  occ. eigenvalues --   -0.33469  -0.32117  -0.31558  -0.30459  -0.28645
  Beta  occ. eigenvalues --   -0.28467  -0.27774  -0.27366  -0.26208  -0.24867
  Beta  occ. eigenvalues --   -0.24340  -0.23620  -0.23159  -0.21914  -0.21508
  Beta  occ. eigenvalues --   -0.19694  -0.16125  -0.14934
  Beta virt. eigenvalues --    0.06931   0.07675   0.08419   0.08499   0.09806
  Beta virt. eigenvalues --    0.09988   0.10218   0.10516   0.11515   0.12312
  Beta virt. eigenvalues --    0.12580   0.12797   0.13750   0.14065   0.14434

 Mulliken charges and spin densities:
               1          2
     1  C   -0.149961  -0.433155
     2  C   -0.568606   0.503834
     3  C    0.731701  -1.187157
     4  C   -0.031311   0.021510
     5  C   -0.127826  -0.411647
     6  C    0.617691  -0.905986
     7  O   -0.057409   0.015155
     8  C   -0.719946   0.079623
     9  O    0.026516   0.010494
    10  C   -0.074215   0.262811
    11  C    1.240330  -1.789457
    12  O   -0.184084   0.024341
    13  H    0.154805   0.021983
    14  H    0.019516   0.095359
    15  H    0.077104   0.048067
    16  H    0.000399   0.158804
    17  H   -0.091081   0.250771
    18  H   -0.142392   0.289839
    19  H   -0.133559   0.298861
    20  H   -0.336970   0.597771
    21  H    0.334887  -0.118253
    22  H   -0.035162   0.205078
    23  H   -0.201545   0.385896
    24  H    0.023629   0.171473
    25  H   -0.158967   0.332895
    26  H   -0.319323   0.473310
    27  H   -0.111151   0.228158
    28  H   -0.451690   0.601037
    29  H   -0.054598   0.218974
    30  H   -0.276781   0.549612
 Sum of Mulliken charges =  -1.00000   1.00000

 Dipole moment (field-independent basis, Debye):
    X=              2.7542    Y=             -1.7452    Z=              6.2280  Tot=              7.0299
 Quadrupole moment (field-independent basis, Debye-Ang):
   XX=           -129.4445   YY=           -116.8241   ZZ=           -117.2155
   XY=             -2.8704   XZ=             -4.3663   YZ=              6.1336

 Summary of Natural Population Analysis:

                                       Natural Population
                Natural  -----------------------------------------------
    Atom  No    Charge         Core      Valence    Rydberg      Total
 -----------------------------------------------------------------------
      C    1   -0.28676      0.99966     2.28255    0.00456     3.28676
      C    2   -0.19208      0.99964     2.18452    0.00793     3.19208
      C    3   -0.19536      0.99960     2.18460    0.01117     3.19536
      C    4    0.04832      0.99951     1.93361    0.01856     2.95168
      C    5    0.04084      0.99952     1.94559    0.01405     2.95916
      C    6   -0.02177      0.99955     2.00798    0.01425     3.02177
      O    7   -0.30151      0.99988     3.29392    0.00770     4.30151
      C    8    0.22588      0.99956     1.75493    0.01962     2.77412
      O    9   -0.30940      0.99988     3.30063    0.00890     4.30940
      C   10   -0.21736      0.99961     2.20932    0.00843     3.21736
      C   11   -0.28565      0.99966     2.27993    0.00606     3.28565
      O   12   -0.36897      0.99990     3.36259    0.00648     4.36897
      H   13    0.10331      0.00000     0.39553    0.00117     0.39669
      H   14    0.09086      0.00000     0.40827    0.00087     0.40914
      H   15    0.09606      0.00000     0.40293    0.00101     0.40394
      H   16    0.09537      0.00000     0.40353    0.00111     0.40463
      H   17    0.09450      0.00000     0.40450    0.00101     0.40550
      H   18    0.10828      0.00000     0.39030    0.00142     0.39172
      H   19    0.09991      0.00000     0.39881    0.00128     0.40009
      H   20    0.08978      0.00000     0.40561    0.00461     0.41022
      H   21    0.08781      0.00000     0.41000    0.00219     0.41219
      H   22    0.09260      0.00000     0.40629    0.00110     0.40740
      H   23    0.08411      0.00000     0.41398    0.00191     0.41589
      H   24    0.08337      0.00000     0.41532    0.00131     0.41663
      H   25    0.10088      0.00000     0.39786    0.00126     0.39912
      H   26    0.10415      0.00000     0.39317    0.00268     0.39585
      H   27    0.09309      0.00000     0.40591    0.00100     0.40691
      H   28    0.10124      0.00000     0.39743    0.00133     0.39876
      H   29    0.10270      0.00000     0.39598    0.00131     0.39730
      H   30    0.23582      0.00000     0.25315    0.01103     0.26418
 =======================================================================
   * Total *   -0.00000     11.99597    35.83873    0.16530    48.00000

 Normal termination of Gaussian 16 at Wed Dec  9 17:15:30 2020.
