 Gaussian 16, Revision A.03,

 -----------------------------------------------------------
 # opt freq B3LYP/6-31G(d) empiricaldispersion=gd3bj scf=xqc
 -----------------------------------------------------------

 ------------------------------
 CID_83043783_JID_8742_neutraal
 ------------------------------
 Symbolic Z-matrix:
 Charge =  0 Multiplicity = 1

 SCF Done:  E(RB3LYP) =  -846.505020337     A.U. after   14 cycles
 SCF Done:  E(RB3LYP) =  -846.508706540     A.U. after   12 cycles
 SCF Done:  E(RB3LYP) =  -846.508832798     A.U. after   13 cycles
 SCF Done:  E(RB3LYP) =  -846.509436709     A.U. after   13 cycles
 SCF Done:  E(RB3LYP) =  -846.509520793     A.U. after   13 cycles
 SCF Done:  E(RB3LYP) =  -846.510040461     A.U. after   12 cycles
 SCF Done:  E(RB3LYP) =  -846.510219175     A.U. after   12 cycles
 SCF Done:  E(RB3LYP) =  -846.510265182     A.U. after   11 cycles
 SCF Done:  E(RB3LYP) =  -846.510280586     A.U. after   11 cycles
 SCF Done:  E(RB3LYP) =  -846.510286880     A.U. after    9 cycles
 SCF Done:  E(RB3LYP) =  -846.510287657     A.U. after    9 cycles
 SCF Done:  E(RB3LYP) =  -846.510288243     A.U. after    8 cycles
 Optimization completed.
    -- Stationary point found.
 Normal termination of Gaussian 16 at Fri Dec 11 21:31:47 2020.

 --------------------------------------------------------------------
 #N Geom=AllCheck Guess=TCheck SCRF=Check GenChk RB3LYP/6-31G(d) Freq
 --------------------------------------------------------------------

 Structure from the checkpoint file:  "JID_8742.chk"
 ------------------------------
 CID_83043783_JID_8742_neutraal
 ------------------------------
 Charge =  0 Multiplicity = 1

 SCF Done:  E(RB3LYP) =  -846.510288243     A.U. after    1 cycles

  Exact polarizability: 199.931  13.385 141.852  -9.959  13.463 127.243
 Approx polarizability: 257.100  22.612 223.649 -19.563  41.611 209.271

                      1                      2                      3
                      A                      A                      A
 Frequencies --     25.9008                40.9994                49.9407
 Red. masses --      3.9135                 4.7992                 3.5906
 Frc consts  --      0.0015                 0.0048                 0.0053
 IR Inten    --      0.1244                 0.1119                 0.6729

                      4                      5                      6
                      A                      A                      A
 Frequencies --     67.9731                77.8112                93.9347
 Red. masses --      4.5068                 4.1943                 3.8388
 Frc consts  --      0.0123                 0.0150                 0.0200
 IR Inten    --      0.3863                 1.7529                 1.5002

                      7                      8                      9
                      A                      A                      A
 Frequencies --    135.7305               147.9627               161.2856
 Red. masses --      2.9463                 2.9255                 3.0665
 Frc consts  --      0.0320                 0.0377                 0.0470
 IR Inten    --      0.6232                 0.8408                 0.0311

                     10                     11                     12
                      A                      A                      A
 Frequencies --    179.7783               223.0559               234.7067
 Red. masses --      3.7477                 1.4801                 1.8203
 Frc consts  --      0.0714                 0.0434                 0.0591
 IR Inten    --      1.2666                 0.2249                 0.3515

                     13                     14                     15
                      A                      A                      A
 Frequencies --    240.7806               258.4946               271.9445
 Red. masses --      2.3437                 1.4362                 2.8901
 Frc consts  --      0.0801                 0.0565                 0.1259
 IR Inten    --      0.2215                 0.8013                 1.2438

                     16                     17                     18
                      A                      A                      A
 Frequencies --    277.3638               286.1597               311.9716
 Red. masses --      1.8785                 2.8670                 2.2677
 Frc consts  --      0.0851                 0.1383                 0.1300
 IR Inten    --      1.2123                 4.8697                 1.5806

                     19                     20                     21
                      A                      A                      A
 Frequencies --    343.0361               379.1186               403.8701
 Red. masses --      4.6825                 4.1394                 3.5028
 Frc consts  --      0.3246                 0.3505                 0.3366
 IR Inten    --      1.6985                 5.1691                 0.3858

                     22                     23                     24
                      A                      A                      A
 Frequencies --    425.3342               460.0182               468.3440
 Red. masses --      3.1568                 2.9767                 4.0581
 Frc consts  --      0.3365                 0.3711                 0.5244
 IR Inten    --      0.4628                 1.9320                 2.6027

                     25                     26                     27
                      A                      A                      A
 Frequencies --    485.9266               505.3087               571.3224
 Red. masses --      3.6669                 3.4166                 2.5353
 Frc consts  --      0.5101                 0.5140                 0.4876
 IR Inten    --      4.8802                 7.3566                20.4302

                     28                     29                     30
                      A                      A                      A
 Frequencies --    594.0101               631.0656               639.7874
 Red. masses --      3.1951                 1.2785                 1.7138
 Frc consts  --      0.6642                 0.3000                 0.4133
 IR Inten    --      2.4641               111.5888                98.1207

                     31                     32                     33
                      A                      A                      A
 Frequencies --    656.7832               672.0476               734.2119
 Red. masses --      4.2350                 2.9982                 2.5521
 Frc consts  --      1.0763                 0.7978                 0.8106
 IR Inten    --     33.3006                25.1835                31.4030

                     34                     35                     36
                      A                      A                      A
 Frequencies --    743.0270               762.5972               786.7865
 Red. masses --      3.6718                 1.6257                 3.8178
 Frc consts  --      1.1944                 0.5570                 1.3924
 IR Inten    --     16.3384                40.7898                22.4837

                     37                     38                     39
                      A                      A                      A
 Frequencies --    822.6580               837.2129               842.7914
 Red. masses --      1.3601                 3.4496                 2.0518
 Frc consts  --      0.5423                 1.4246                 0.8587
 IR Inten    --     11.2744                 3.3934                 1.8513

                     40                     41                     42
                      A                      A                      A
 Frequencies --    858.3128               888.7312               906.3427
 Red. masses --      1.5277                 2.9032                 2.1401
 Frc consts  --      0.6631                 1.3510                 1.0358
 IR Inten    --     26.6165                 4.4501                 5.5932

                     43                     44                     45
                      A                      A                      A
 Frequencies --    936.3679               948.1082               976.3807
 Red. masses --      1.3140                 1.9724                 1.8128
 Frc consts  --      0.6788                 1.0446                 1.0182
 IR Inten    --      0.0353                 4.9112                 8.6239

                     46                     47                     48
                      A                      A                      A
 Frequencies --    985.5107              1014.3081              1033.7851
 Red. masses --      1.3377                 1.8123                 2.8472
 Frc consts  --      0.7655                 1.0985                 1.7928
 IR Inten    --      1.9319                 2.5017                 2.3733

                     49                     50                     51
                      A                      A                      A
 Frequencies --   1080.1041              1083.9575              1092.9567
 Red. masses --      3.6031                 3.0015                 2.4531
 Frc consts  --      2.4766                 2.0778                 1.7265
 IR Inten    --      9.1007                31.3433                39.9809

                     52                     53                     54
                      A                      A                      A
 Frequencies --   1119.5903              1139.3764              1142.0797
 Red. masses --      2.0606                 2.4106                 1.4395
 Frc consts  --      1.5218                 1.8437                 1.1063
 IR Inten    --     19.5428                16.6475                 7.9423

                     55                     56                     57
                      A                      A                      A
 Frequencies --   1146.0499              1180.6113              1186.9733
 Red. masses --      1.4893                 2.3759                 1.2719
 Frc consts  --      1.1525                 1.9511                 1.0558
 IR Inten    --     22.6246                82.7396                 0.8484

                     58                     59                     60
                      A                      A                      A
 Frequencies --   1202.0713              1214.8761              1220.0454
 Red. masses --      2.8214                 1.2128                 1.3715
 Frc consts  --      2.4020                 1.0546                 1.2028
 IR Inten    --    133.6682                48.3928                29.8646

                     61                     62                     63
                      A                      A                      A
 Frequencies --   1243.8870              1269.5519              1301.2354
 Red. masses --      1.9921                 1.6690                 2.5764
 Frc consts  --      1.8160                 1.5849                 2.5703
 IR Inten    --      8.8019                41.8309               232.3150

                     64                     65                     66
                      A                      A                      A
 Frequencies --   1304.4631              1313.8714              1342.9801
 Red. masses --      1.8184                 1.3923                 1.3191
 Frc consts  --      1.8230                 1.4161                 1.4017
 IR Inten    --     36.0245                 1.7271                 6.3945

                     67                     68                     69
                      A                      A                      A
 Frequencies --   1350.2217              1363.2947              1393.1200
 Red. masses --      1.4134                 4.2276                 1.4590
 Frc consts  --      1.5182                 4.6294                 1.6684
 IR Inten    --      4.8631                57.0732                11.0166

                     70                     71                     72
                      A                      A                      A
 Frequencies --   1398.3641              1425.5458              1438.5433
 Red. masses --      1.3534                 1.2964                 1.8416
 Frc consts  --      1.5593                 1.5522                 2.2454
 IR Inten    --     12.3886                41.0201                43.4225

                     73                     74                     75
                      A                      A                      A
 Frequencies --   1444.3784              1453.7700              1464.8822
 Red. masses --      1.2917                 1.5458                 2.7599
 Frc consts  --      1.5877                 1.9249                 3.4894
 IR Inten    --     11.7627                57.1871                10.3769

                     76                     77                     78
                      A                      A                      A
 Frequencies --   1500.2321              1509.5647              1519.9350
 Red. masses --      1.1922                 1.0595                 1.0814
 Frc consts  --      1.5809                 1.4225                 1.4719
 IR Inten    --     16.7835                 0.2837                 5.7448

                     79                     80                     81
                      A                      A                      A
 Frequencies --   1520.9350              1524.2733              1531.6549
 Red. masses --      1.0479                 1.0571                 1.0559
 Frc consts  --      1.4282                 1.4471                 1.4594
 IR Inten    --      5.1069                 0.4988                 3.9155

                     82                     83                     84
                      A                      A                      A
 Frequencies --   1534.5962              1536.1904              1544.3940
 Red. masses --      1.0645                 1.0635                 1.0578
 Frc consts  --      1.4770                 1.4787                 1.4866
 IR Inten    --      3.8739                43.6063                 5.6116

                     85                     86                     87
                      A                      A                      A
 Frequencies --   1565.6935              1634.9816              1676.1889
 Red. masses --      2.3789                 6.7871                 5.7603
 Frc consts  --      3.4359                10.6895                 9.5355
 IR Inten    --     97.2108                 9.9780                67.1304

                     88                     89                     90
                      A                      A                      A
 Frequencies --   1805.6482              3023.2624              3038.8158
 Red. masses --      8.5831                 1.0350                 1.0619
 Frc consts  --     16.4877                 5.5736                 5.7775
 IR Inten    --    176.2781                56.4562                25.1806

                     91                     92                     93
                      A                      A                      A
 Frequencies --   3046.7285              3060.1033              3068.2534
 Red. masses --      1.0386                 1.0730                 1.0422
 Frc consts  --      5.6800                 5.9200                 5.7810
 IR Inten    --     25.9456                 5.8995                 7.5996

                     94                     95                     96
                      A                      A                      A
 Frequencies --   3076.6329              3080.7257              3109.4367
 Red. masses --      1.0821                 1.1065                 1.0980
 Frc consts  --      6.0349                 6.1872                 6.2547
 IR Inten    --     45.7692                45.2879                26.3106

                     97                     98                     99
                      A                      A                      A
 Frequencies --   3112.5327              3125.6652              3129.6818
 Red. masses --      1.0933                 1.0997                 1.0954
 Frc consts  --      6.2403                 6.3304                 6.3214
 IR Inten    --     16.0073                28.4168                36.6569

                    100                    101                    102
                      A                      A                      A
 Frequencies --   3142.4357              3149.3009              3157.8396
 Red. masses --      1.1024                 1.1030                 1.0995
 Frc consts  --      6.4141                 6.4454                 6.4596
 IR Inten    --     17.1972                34.2470                29.5173

                    103                    104                    105
                      A                      A                      A
 Frequencies --   3188.6021              3209.5786              3226.9917
 Red. masses --      1.0878                 1.0890                 1.0913
 Frc consts  --      6.5165                 6.6095                 6.6954
 IR Inten    --     18.4630                 5.7534                13.6350

                    106                    107                    108
                      A                      A                      A
 Frequencies --   3232.0778              3613.1634              3665.2510
 Red. masses --      1.0922                 1.0656                 1.0637
 Frc consts  --      6.7224                 8.1962                 8.4190
 IR Inten    --      3.5331               109.1760                40.3637

 - Thermochemistry -
 -------------------
 Temperature   298.150 Kelvin.  Pressure   1.00000 Atm.
 Atom     1 has atomic number  6 and mass  12.00000

 Molecular mass:   252.13616 amu.
 Principal axes and moments of inertia in atomic units:
                           1         2         3
     Eigenvalues --  2292.170987899.895538501.13533
           X            0.99998   0.00243  -0.00579
           Y           -0.00229   0.99970   0.02440
           Z            0.00585  -0.02438   0.99969
 This molecule is an asymmetric top.
 Rotational symmetry number  1.
 Warning -- assumption of classical behavior for rotation
           may cause significant error
 Rotational temperatures (Kelvin)      0.03779     0.01096     0.01019
 Rotational constants (GHZ):           0.78735     0.22845     0.21229
 Zero-point vibrational energy     852800.2 (Joules/Mol)
                                  203.82415 (Kcal/Mol)
 Warning -- explicit consideration of  28 degrees of freedom as
           vibrations may cause significant error
 Vibrational temperatures:     37.27    58.99    71.85    97.80   111.95
          (Kelvin)            135.15   195.29   212.89   232.05   258.66
                              320.93   337.69   346.43   371.92   391.27
                              399.06   411.72   448.86   493.55   545.47
                              581.08   611.96   661.86   673.84   699.14
                              727.03   822.01   854.65   907.96   920.51
                              944.96   966.93  1056.37  1069.05  1097.21
                             1132.01  1183.62  1204.56  1212.59  1234.92
                             1278.69  1304.03  1347.22  1364.12  1404.79
                             1417.93  1459.36  1487.39  1554.03  1559.57
                             1572.52  1610.84  1639.31  1643.20  1648.91
                             1698.64  1707.79  1729.51  1747.94  1755.37
                             1789.68  1826.60  1872.19  1876.83  1890.37
                             1932.25  1942.67  1961.48  2004.39  2011.93
                             2051.04  2069.74  2078.14  2091.65  2107.64
                             2158.50  2171.93  2186.85  2188.29  2193.09
                             2203.71  2207.94  2210.24  2222.04  2252.68
                             2352.37  2411.66  2597.93  4349.80  4372.18
                             4383.56  4402.81  4414.53  4426.59  4432.48
                             4473.79  4478.24  4497.14  4502.91  4521.26
                             4531.14  4543.43  4587.69  4617.87  4642.92
                             4650.24  5198.54  5273.48

 Zero-point correction=                           0.324814 (Hartree/Particle)
 Thermal correction to Energy=                    0.343380
 Thermal correction to Enthalpy=                  0.344324
 Thermal correction to Gibbs Free Energy=         0.277607
 Sum of electronic and zero-point Energies=           -846.185474
 Sum of electronic and thermal Energies=              -846.166909
 Sum of electronic and thermal Enthalpies=            -846.165964
 Sum of electronic and thermal Free Energies=         -846.232681

                     E (Thermal)             CV                S
                      KCal/Mol        Cal/Mol-Kelvin    Cal/Mol-Kelvin
 Total                  215.474             70.449            140.417
 Electronic               0.000              0.000              0.000
 Translational            0.889              2.981             42.475
 Rotational               0.889              2.981             33.398
 Vibrational            213.697             64.487             64.544
 Vibration     1          0.593              1.985              6.121
 Vibration     2          0.594              1.981              5.210
 Vibration     3          0.595              1.978              4.820
 Vibration     4          0.598              1.969              4.211
 Vibration     5          0.599              1.964              3.945
 Vibration     6          0.603              1.954              3.576
 Vibration     7          0.614              1.918              2.863
 Vibration     8          0.617              1.905              2.698
 Vibration     9          0.622              1.890              2.535
 Vibration    10          0.629              1.867              2.331
 Vibration    11          0.649              1.806              1.934
 Vibration    12          0.655              1.788              1.843
 Vibration    13          0.658              1.778              1.797
 Vibration    14          0.667              1.748              1.672
 Vibration    15          0.675              1.725              1.584
 Vibration    16          0.678              1.715              1.550
 Vibration    17          0.684              1.699              1.497
 Vibration    18          0.700              1.651              1.352
 Vibration    19          0.722              1.589              1.198
 Vibration    20          0.749              1.515              1.043
 Vibration    21          0.769              1.462              0.949
 Vibration    22          0.787              1.415              0.874
 Vibration    23          0.818              1.339              0.766
 Vibration    24          0.826              1.320              0.742
 Vibration    25          0.842              1.281              0.694
 Vibration    26          0.861              1.238              0.645
 Vibration    27          0.927              1.093              0.502
 Vibration    28          0.952              1.045              0.460

                           ! Non-Optimized Parameters !
 Normal termination of Gaussian 16 at Fri Dec 11 21:49:12 2020.

 ----------------------------------------------------------------------
 # B3LYP/6-311++G(d,p) empiricaldispersion=gd3bj scf=xqc pop=npa geom=c
 heck
 ----------------------------------------------------------------------

 --------------------------------------
 CID_83043783_JID_8742_Energie_neutraal
 --------------------------------------
 Structure from the checkpoint file:  "JID_8742.chk"
 Charge =  0 Multiplicity = 1

 SCF Done:  E(RB3LYP) =  -846.762610738     A.U. after   16 cycles
 Normal termination of Gaussian 16 at Fri Dec 11 21:56:23 2020.

 ----------------------------------------------------------------------
 # B3LYP/6-311++G(d,p) empiricaldispersion=gd3bj scf=xqc pop=npa geom=c
 heck
 ----------------------------------------------------------------------

 ------------------------------------
 CID_83043783_JID_8742_Energie_kation
 ------------------------------------
 Structure from the checkpoint file:  "JID_8742.chk"
 Charge =  1 Multiplicity = 2

 SCF Done:  E(UB3LYP) =  -846.471614185     A.U. after   22 cycles
 Normal termination of Gaussian 16 at Fri Dec 11 22:10:13 2020.
 Gaussian 16:  ES64L-G16RevA.03 25-Dec-2016

 ----------------------------------------------------------------------
 # B3LYP/6-311++G(d,p) empiricaldispersion=gd3bj scf=xqc pop=npa geom=c
 heck
 ----------------------------------------------------------------------

 -----------------------------------
 CID_83043783_JID_8742_Energie_anion
 -----------------------------------
 Structure from the checkpoint file:  "JID_8742.chk"
 Charge = -1 Multiplicity = 2

                         Standard orientation:
 ---------------------------------------------------------------------
 Center     Atomic      Atomic             Coordinates (Angstroms)
 Number     Number       Type             X           Y           Z
 ---------------------------------------------------------------------
      1          6           0        4.148247   -1.856300   -1.023423
      2          6           0        4.234236   -0.704447   -0.017277
      3          6           0        3.245081    0.439227   -0.284053
      4          6           0        1.756826    0.030885   -0.238690
      5          6           0        1.463255   -0.657031    1.075926
      6          8           0        1.413571   -0.092199    2.155846
      7          8           0        1.271706   -1.986305    0.960381
      8          6           0        0.781495    1.252507   -0.370643
      9          6           0        0.949936    1.956919   -1.720298
     10          6           0       -0.669405    0.770702   -0.222369
     11          6           0       -1.547027    1.421274    0.654970
     12          6           0       -2.866646    1.010797    0.789649
     13          6           0       -3.349601   -0.069274    0.040387
     14          6           0       -2.491867   -0.726983   -0.847087
     15          6           0       -1.167489   -0.300854   -0.968174
     16          8           0       -4.658689   -0.400588    0.244465
     17          6           0       -5.190619   -1.483218   -0.498550
     18          8           0        1.101901    2.224739    0.617214
     19          1           0        3.190951   -2.382521   -0.951904
     20          1           0        4.941310   -2.591155   -0.846847
     21          1           0        4.257498   -1.488748   -2.051523
     22          1           0        4.087528   -1.092670    0.999697
     23          1           0        5.247231   -0.282790   -0.033245
     24          1           0        3.398240    1.244220    0.440553
     25          1           0        3.449474    0.860162   -1.275003
     26          1           0        1.550283   -0.676150   -1.044365
     27          1           0        1.091775   -2.316940    1.862025
     28          1           0        0.761002    1.267090   -2.548668
     29          1           0        0.229315    2.776959   -1.783035
     30          1           0        1.954942    2.374926   -1.820074
     31          1           0       -1.179588    2.262863    1.230557
     32          1           0       -3.545398    1.513169    1.471518
     33          1           0       -2.836381   -1.563902   -1.442891
     34          1           0       -0.524135   -0.827057   -1.667740
     35          1           0       -5.147150   -1.291214   -1.578961
     36          1           0       -4.662170   -2.420924   -0.280214
     37          1           0       -6.233338   -1.576458   -0.190198
     38          1           0        1.162171    1.740737    1.464865
 ---------------------------------------------------------------------

 SCF Done:  E(UB3LYP) =  -846.752865951     A.U. after   33 cycles
 SCF Done:  E(UB3LYP) =  -846.752865951     a.u. after    1 cycles

 The electronic state is 2-A.
 Alpha  occ. eigenvalues --  -19.08695 -19.06448 -19.03573 -19.02683 -10.22400
 Alpha  occ. eigenvalues --  -10.15400 -10.14367 -10.13121 -10.10395 -10.08610
 Alpha  occ. eigenvalues --  -10.08582 -10.08449 -10.08264 -10.08203 -10.08188
 Alpha  occ. eigenvalues --  -10.08078 -10.07506 -10.06796  -1.02956  -0.98043
 Alpha  occ. eigenvalues --   -0.94596  -0.93155  -0.76854  -0.73577  -0.69420
 Alpha  occ. eigenvalues --   -0.66310  -0.65881  -0.64169  -0.60753  -0.58784
 Alpha  occ. eigenvalues --   -0.54092  -0.52895  -0.51694  -0.48730  -0.47646
 Alpha  occ. eigenvalues --   -0.44990  -0.43022  -0.41888  -0.40794  -0.39674
 Alpha  occ. eigenvalues --   -0.39361  -0.38005  -0.37884  -0.35964  -0.34801
 Alpha  occ. eigenvalues --   -0.34052  -0.33765  -0.33500  -0.33025  -0.32496
 Alpha  occ. eigenvalues --   -0.30912  -0.30420  -0.30196  -0.28928  -0.28776
 Alpha  occ. eigenvalues --   -0.27426  -0.27265  -0.25820  -0.25091  -0.24619
 Alpha  occ. eigenvalues --   -0.24295  -0.24134  -0.23566  -0.22804  -0.19882
 Alpha  occ. eigenvalues --   -0.19016  -0.16651  -0.13267   0.03842
 Alpha virt. eigenvalues --    0.05564   0.06316   0.06866   0.07152   0.07518
 Alpha virt. eigenvalues --    0.07772   0.08309   0.08659   0.09308   0.09371
 Alpha virt. eigenvalues --    0.09876   0.09987   0.10375   0.11208   0.11564

  Beta  occ. eigenvalues --  -19.08650 -19.06441 -19.03555 -19.02678 -10.22381
  Beta  occ. eigenvalues --  -10.15392 -10.14368 -10.13077 -10.10387 -10.08598
  Beta  occ. eigenvalues --  -10.08574 -10.08450 -10.08260 -10.08186 -10.08174
  Beta  occ. eigenvalues --  -10.08075 -10.07493 -10.06767  -1.02893  -0.98025
  Beta  occ. eigenvalues --   -0.94560  -0.93125  -0.76840  -0.73552  -0.69400
  Beta  occ. eigenvalues --   -0.66280  -0.65856  -0.64135  -0.60707  -0.58728
  Beta  occ. eigenvalues --   -0.54022  -0.52862  -0.51649  -0.48690  -0.47604
  Beta  occ. eigenvalues --   -0.44957  -0.42986  -0.41857  -0.40770  -0.39644
  Beta  occ. eigenvalues --   -0.39330  -0.37976  -0.37842  -0.35939  -0.34756
  Beta  occ. eigenvalues --   -0.34019  -0.33741  -0.33471  -0.32999  -0.32458
  Beta  occ. eigenvalues --   -0.30882  -0.30396  -0.30173  -0.28898  -0.28753
  Beta  occ. eigenvalues --   -0.27406  -0.27237  -0.25796  -0.25052  -0.24579
  Beta  occ. eigenvalues --   -0.24243  -0.24110  -0.23542  -0.22784  -0.19849
  Beta  occ. eigenvalues --   -0.19006  -0.16632  -0.13255
  Beta virt. eigenvalues --    0.05929   0.06468   0.06784   0.07426   0.07652
  Beta virt. eigenvalues --    0.07711   0.07845   0.08478   0.09028   0.09432
  Beta virt. eigenvalues --    0.09651   0.10165   0.10328   0.10737   0.11431

 Mulliken charges and spin densities:
               1          2
     1  C    0.579024  -1.202884
     2  C   -0.867025   0.585787
     3  C    0.062330  -0.305390
     4  C    0.246943   0.026576
     5  C   -0.145165  -0.572678
     6  O   -0.246622   0.052762
     7  O   -0.113404   0.077155
     8  C    0.640308  -0.151867
     9  C   -0.084963  -0.510409
    10  C    0.816685  -0.399089
    11  C   -0.223116   0.156386
    12  C   -0.875186   0.412093
    13  C   -0.371169  -0.288474
    14  C    0.365609  -0.268410
    15  C   -0.188056  -0.165567
    16  O   -0.211166   0.053612
    17  C    0.744066  -1.099699
    18  O   -0.138555   0.008408
    19  H   -0.191985   0.364572
    20  H   -0.220810   0.364625
    21  H   -0.145596   0.275888
    22  H    0.105330   0.055944
    23  H   -0.186649   0.356611
    24  H    0.174412   0.006841
    25  H   -0.013051   0.144959
    26  H    0.951865  -0.674193
    27  H   -0.297780   0.583809
    28  H   -0.023782   0.200090
    29  H    0.117539   0.060436
    30  H    0.085666   0.068856
    31  H    0.084304   0.081566
    32  H    0.128701   0.050985
    33  H   -0.271158   0.490639
    34  H   -0.692245   0.823914
    35  H   -0.194335   0.348802
    36  H   -0.294613   0.461176
    37  H   -0.336361   0.507383
    38  H    0.230010   0.018787
 Sum of Mulliken charges =  -1.00000   1.00000

 Dipole moment (field-independent basis, Debye):
    X=              1.8955    Y=              5.2735    Z=              1.4164  Tot=              5.7800
 Quadrupole moment (field-independent basis, Debye-Ang):
   XX=           -202.4426   YY=           -158.3376   ZZ=           -147.0105
   XY=             -5.8417   XZ=             -2.0360   YZ=             -2.3626

 Summary of Natural Population Analysis:

                                       Natural Population
                Natural  -----------------------------------------------
    Atom  No    Charge         Core      Valence    Rydberg      Total
 -----------------------------------------------------------------------
      C    1   -0.28797      0.99967     2.28384    0.00446     3.28797
      C    2   -0.19081      0.99964     2.18332    0.00785     3.19081
      C    3   -0.18843      0.99961     2.17839    0.01043     3.18843
      C    4   -0.16436      0.99950     2.15146    0.01340     3.16436
      C    5    0.42114      0.99967     1.55106    0.02813     2.57886
      O    6   -0.32358      0.99986     3.31769    0.00603     4.32358
      O    7   -0.33306      0.99987     3.32618    0.00701     4.33306
      C    8    0.13932      0.99949     1.84454    0.01665     2.86068
      C    9   -0.28732      0.99961     2.28015    0.00756     3.28732
      C   10   -0.04835      0.99946     2.03548    0.01341     3.04835
      C   11   -0.09112      0.99951     2.08318    0.00843     3.09112
      C   12   -0.11754      0.99952     2.10893    0.00909     3.11754
      C   13    0.15898      0.99938     1.82733    0.01431     2.84102
      C   14   -0.13822      0.99952     2.12923    0.00947     3.13822
      C   15   -0.08858      0.99952     2.07900    0.01007     3.08858
      O   16   -0.27361      0.99986     3.26407    0.00968     4.27361
      C   17   -0.10121      0.99960     2.09259    0.00902     3.10121
      O   18   -0.38478      0.99989     3.37896    0.00594     4.38478
      H   19    0.10272      0.00000     0.39579    0.00149     0.39728
      H   20    0.09922      0.00000     0.39976    0.00102     0.40078
      H   21    0.09494      0.00000     0.40370    0.00136     0.40506
      H   22    0.09494      0.00000     0.40393    0.00113     0.40506
      H   23    0.09665      0.00000     0.40241    0.00094     0.40335
      H   24    0.10754      0.00000     0.39125    0.00122     0.39246
      H   25    0.10021      0.00000     0.39874    0.00105     0.39979
      H   26    0.11501      0.00000     0.38201    0.00298     0.38499
      H   27    0.24344      0.00000     0.24970    0.00686     0.25656
      H   28    0.10259      0.00000     0.39656    0.00085     0.39741
      H   29    0.10648      0.00000     0.39280    0.00071     0.39352
      H   30    0.10240      0.00000     0.39679    0.00081     0.39760
      H   31    0.10900      0.00000     0.38995    0.00105     0.39100
      H   32    0.10433      0.00000     0.39468    0.00099     0.39567
      H   33    0.10906      0.00000     0.38899    0.00195     0.39094
      H   34    0.10220      0.00000     0.39570    0.00209     0.39780
      H   35    0.08528      0.00000     0.41304    0.00168     0.41472
      H   36    0.08764      0.00000     0.41043    0.00193     0.41236
      H   37    0.09316      0.00000     0.40566    0.00118     0.40684
      H   38    0.24266      0.00000     0.25451    0.00282     0.25734
 =======================================================================
   * Total *   -0.00000     17.99316    49.78180    0.22505    68.00000

 Normal termination of Gaussian 16 at Fri Dec 11 22:30:59 2020.
