 Gaussian 16, Revision A.03,

 -----------------------------------------------------------
 # opt freq B3LYP/6-31G(d) empiricaldispersion=gd3bj scf=xqc
 -----------------------------------------------------------

 -------------------------------
 CID_147605437_JID_3623_neutraal
 -------------------------------
 Symbolic Z-matrix:
 Charge =  0 Multiplicity = 1

 SCF Done:  E(RB3LYP) =  -540.696713697     A.U. after   14 cycles
 SCF Done:  E(RB3LYP) =  -540.700763859     A.U. after   12 cycles
 SCF Done:  E(RB3LYP) =  -540.700987910     A.U. after   12 cycles
 SCF Done:  E(RB3LYP) =  -540.702598333     A.U. after   12 cycles
 SCF Done:  E(RB3LYP) =  -540.703326019     A.U. after   12 cycles
 SCF Done:  E(RB3LYP) =  -540.703224264     A.U. after   12 cycles
 SCF Done:  E(RB3LYP) =  -540.704475636     A.U. after   12 cycles
 SCF Done:  E(RB3LYP) =  -540.704934513     A.U. after   12 cycles
 SCF Done:  E(RB3LYP) =  -540.705077811     A.U. after   12 cycles
 SCF Done:  E(RB3LYP) =  -540.705150272     A.U. after   11 cycles
 SCF Done:  E(RB3LYP) =  -540.705242304     A.U. after    9 cycles
 SCF Done:  E(RB3LYP) =  -540.705243774     A.U. after    9 cycles
 SCF Done:  E(RB3LYP) =  -540.705244135     A.U. after    8 cycles
 SCF Done:  E(RB3LYP) =  -540.705244288     A.U. after    8 cycles
 SCF Done:  E(RB3LYP) =  -540.705244321     A.U. after    7 cycles
 Optimization completed.
    -- Stationary point found.
 Normal termination of Gaussian 16 at Mon Dec 14 18:47:35 2020.

 --------------------------------------------------------------------
 #N Geom=AllCheck Guess=TCheck SCRF=Check GenChk RB3LYP/6-31G(d) Freq
 --------------------------------------------------------------------

 Structure from the checkpoint file:  "JID_3623.chk"
 -------------------------------
 CID_147605437_JID_3623_neutraal
 -------------------------------
 Charge =  0 Multiplicity = 1

 SCF Done:  E(RB3LYP) =  -540.705244321     A.U. after    1 cycles

  Exact polarizability: 160.908   3.990 132.224  -9.425  -2.987  98.422
 Approx polarizability: 211.597   9.446 195.084 -13.534 -10.581 145.726

                      1                      2                      3
                      A                      A                      A
 Frequencies --     40.7163                49.2984                70.4237
 Red. masses --      3.3433                 3.5190                 3.2708
 Frc consts  --      0.0033                 0.0050                 0.0096
 IR Inten    --      0.0890                 0.1939                 0.6544

                      4                      5                      6
                      A                      A                      A
 Frequencies --     80.4031                96.7405               132.5517
 Red. masses --      3.9262                 3.3946                 2.6968
 Frc consts  --      0.0150                 0.0187                 0.0279
 IR Inten    --      0.7977                 1.0617                 0.2464

                      7                      8                      9
                      A                      A                      A
 Frequencies --    157.5887               181.9242               223.7204
 Red. masses --      3.5096                 3.3474                 1.7912
 Frc consts  --      0.0514                 0.0653                 0.0528
 IR Inten    --      4.3560                 1.3190                 1.8286

                     10                     11                     12
                      A                      A                      A
 Frequencies --    226.3861               235.3701               256.4196
 Red. masses --      1.4717                 2.4347                 1.9917
 Frc consts  --      0.0444                 0.0795                 0.0772
 IR Inten    --      0.1246                 0.3887                 1.8122

                     13                     14                     15
                      A                      A                      A
 Frequencies --    280.4555               306.0846               321.1047
 Red. masses --      1.5070                 2.8060                 1.3908
 Frc consts  --      0.0698                 0.1549                 0.0845
 IR Inten    --      2.5158                 3.6778                 1.0727

                     16                     17                     18
                      A                      A                      A
 Frequencies --    398.1446               405.1479               467.2362
 Red. masses --      2.7146                 2.4852                 2.3200
 Frc consts  --      0.2535                 0.2403                 0.2984
 IR Inten    --      5.3777                 0.0184                 3.0681

                     19                     20                     21
                      A                      A                      A
 Frequencies --    478.1489               515.4624               536.0227
 Red. masses --      2.3826                 2.2818                 2.3113
 Frc consts  --      0.3209                 0.3572                 0.3913
 IR Inten    --     27.2736                 3.5377                 4.2357

                     22                     23                     24
                      A                      A                      A
 Frequencies --    616.7820               626.8310               658.0294
 Red. masses --      2.5303                 3.9464                 1.1994
 Frc consts  --      0.5671                 0.9136                 0.3060
 IR Inten    --     11.8194                 7.5743                84.8795

                     25                     26                     27
                      A                      A                      A
 Frequencies --    733.7227               752.8936               766.7554
 Red. masses --      1.1235                 1.5548                 1.6992
 Frc consts  --      0.3564                 0.5193                 0.5886
 IR Inten    --      1.2722                27.0661                 7.1731

                     28                     29                     30
                      A                      A                      A
 Frequencies --    810.3316               814.0993               816.6715
 Red. masses --      2.2734                 1.4224                 1.1863
 Frc consts  --      0.8795                 0.5554                 0.4662
 IR Inten    --      6.3042                57.6254                21.8836

                     31                     32                     33
                      A                      A                      A
 Frequencies --    839.5851               882.0492               922.0455
 Red. masses --      2.1040                 2.6981                 2.0875
 Frc consts  --      0.8738                 1.2368                 1.0456
 IR Inten    --      4.9749                 1.1076                 5.9239

                     34                     35                     36
                      A                      A                      A
 Frequencies --    934.9307               967.7243               984.2812
 Red. masses --      1.3711                 2.0014                 1.7781
 Frc consts  --      0.7061                 1.1043                 1.0150
 IR Inten    --     34.1810                 1.3745                 1.5448

                     37                     38                     39
                      A                      A                      A
 Frequencies --   1027.5347              1042.1221              1042.5036
 Red. masses --      1.9567                 2.1559                 1.4728
 Frc consts  --      1.2172                 1.3795                 0.9431
 IR Inten    --      6.2641                12.0831                 1.2917

                     40                     41                     42
                      A                      A                      A
 Frequencies --   1078.3072              1087.4801              1102.3971
 Red. masses --      1.6152                 1.4980                 1.8493
 Frc consts  --      1.1065                 1.0437                 1.3242
 IR Inten    --      3.4553                 2.4926                10.2277

                     43                     44                     45
                      A                      A                      A
 Frequencies --   1107.0510              1134.5656              1136.5807
 Red. masses --      1.7039                 1.2408                 1.7381
 Frc consts  --      1.2303                 0.9410                 1.3229
 IR Inten    --      1.0365                20.7605                19.5942

                     46                     47                     48
                      A                      A                      A
 Frequencies --   1169.2587              1237.2333              1250.2149
 Red. masses --      2.6394                 1.3435                 1.3361
 Frc consts  --      2.1261                 1.2117                 1.2304
 IR Inten    --     31.8007                43.0124                30.2755

                     49                     50                     51
                      A                      A                      A
 Frequencies --   1287.1749              1295.4598              1330.8104
 Red. masses --      1.3009                 1.3554                 1.5781
 Frc consts  --      1.2699                 1.3402                 1.6467
 IR Inten    --     18.3177                13.1841                 6.3033

                     52                     53                     54
                      A                      A                      A
 Frequencies --   1352.9894              1356.1064              1370.4445
 Red. masses --      1.3232                 1.3250                 2.5319
 Frc consts  --      1.4272                 1.4357                 2.8017
 IR Inten    --      4.1074                39.7312               110.3039

                     55                     56                     57
                      A                      A                      A
 Frequencies --   1375.2724              1397.0687              1419.3604
 Red. masses --      1.4879                 1.2917                 1.3487
 Frc consts  --      1.6581                 1.4855                 1.6008
 IR Inten    --      1.6765                 6.2950                 5.0785

                     58                     59                     60
                      A                      A                      A
 Frequencies --   1438.1454              1440.2404              1448.6312
 Red. masses --      1.2351                 1.2807                 1.2467
 Frc consts  --      1.5051                 1.5652                 1.5415
 IR Inten    --      9.5894                21.5696                11.4904

                     61                     62                     63
                      A                      A                      A
 Frequencies --   1455.9561              1485.5087              1507.5752
 Red. masses --      1.3087                 1.1848                 1.0957
 Frc consts  --      1.6345                 1.5404                 1.4673
 IR Inten    --     13.3542                 2.7408                11.5448

                     64                     65                     66
                      A                      A                      A
 Frequencies --   1512.0003              1521.3667              1525.9238
 Red. masses --      1.0459                 1.0901                 1.0627
 Frc consts  --      1.4088                 1.4865                 1.4579
 IR Inten    --      6.6165                 6.3813                18.1268

                     67                     68                     69
                      A                      A                      A
 Frequencies --   1534.0248              1543.2481              1555.9714
 Red. masses --      1.0480                 1.2239                 1.0747
 Frc consts  --      1.4531                 1.7174                 1.5330
 IR Inten    --      7.9368                 8.2439                 7.0854

                     70                     71                     72
                      A                      A                      A
 Frequencies --   1560.9419              1709.9830              1721.8414
 Red. masses --      1.0625                 7.3904                 5.1442
 Frc consts  --      1.5254                12.7321                 8.9858
 IR Inten    --      4.8202                66.6758                19.4318

                     73                     74                     75
                      A                      A                      A
 Frequencies --   1731.1468              2961.1755              3023.1402
 Red. masses --      4.5282                 1.0761                 1.0769
 Frc consts  --      7.9955                 5.5596                 5.7988
 IR Inten    --    148.0197                71.7674                 9.1360

                     76                     77                     78
                      A                      A                      A
 Frequencies --   3038.4814              3042.1227              3046.8433
 Red. masses --      1.0719                 1.0643                 1.0398
 Frc consts  --      5.8305                 5.8034                 5.6873
 IR Inten    --     38.4282                27.6614                18.7929

                     79                     80                     81
                      A                      A                      A
 Frequencies --   3051.6051              3079.2141              3081.7057
 Red. masses --      1.0369                 1.0986                 1.0967
 Frc consts  --      5.6890                 6.1371                 6.1364
 IR Inten    --     23.4096                36.1029                19.3099

                     82                     83                     84
                      A                      A                      A
 Frequencies --   3096.6662              3115.0346              3125.6602
 Red. masses --      1.0994                 1.1021                 1.0855
 Frc consts  --      6.2113                 6.3010                 6.2484
 IR Inten    --     22.3815                32.0518                35.3744

                     85                     86                     87
                      A                      A                      A
 Frequencies --   3140.9141              3150.0349              3156.6283
 Red. masses --      1.1015                 1.0989                 1.0603
 Frc consts  --      6.4026                 6.4244                 6.2249
 IR Inten    --      8.8781                21.3986                10.3300

                     88                     89                     90
                      A                      A                      A
 Frequencies --   3166.7264              3170.7350              3232.8175
 Red. masses --      1.0886                 1.0620                 1.1158
 Frc consts  --      6.4316                 6.2904                 6.8705
 IR Inten    --     16.7541                 4.3420                18.7363

                     91                     92                     93
                      A                      A                      A
 Frequencies --   3257.6526              3352.6075              3547.0084
 Red. masses --      1.1142                 1.0734                 1.0753
 Frc consts  --      6.9664                 7.1085                 7.9706
 IR Inten    --     14.6692                15.1496                 3.2605

 - Thermochemistry -
 -------------------
 Temperature   298.150 Kelvin.  Pressure   1.00000 Atm.
 Atom     1 has atomic number  6 and mass  12.00000

 Molecular mass:   180.16265 amu.
 Principal axes and moments of inertia in atomic units:
                           1         2         3
     Eigenvalues --  1630.529813531.266734225.68012
           X            0.99999  -0.00314  -0.00235
           Y            0.00322   0.99934   0.03617
           Z            0.00223  -0.03618   0.99934
 This molecule is an asymmetric top.
 Rotational symmetry number  1.
 Warning -- assumption of classical behavior for rotation
           may cause significant error
 Rotational temperatures (Kelvin)      0.05312     0.02453     0.02050
 Rotational constants (GHZ):           1.10684     0.51107     0.42709
 Zero-point vibrational energy     781851.1 (Joules/Mol)
                                  186.86690 (Kcal/Mol)
 Warning -- explicit consideration of  22 degrees of freedom as
           vibrations may cause significant error
 Vibrational temperatures:     58.58    70.93   101.32   115.68   139.19
          (Kelvin)            190.71   226.73   261.75   321.88   325.72
                              338.65   368.93   403.51   440.39   462.00
                              572.84   582.92   672.25   687.95   741.64
                              771.22   887.41   901.87   946.76  1055.66
                             1083.25  1103.19  1165.89  1171.31  1175.01
                             1207.98  1269.07  1326.62  1345.16  1392.34
                             1416.16  1478.39  1499.38  1499.93  1551.44
                             1564.64  1586.10  1592.80  1632.39  1635.29
                             1682.30  1780.10  1798.78  1851.96  1863.88
                             1914.74  1946.65  1951.13  1971.76  1978.71
                             2010.07  2042.14  2069.17  2072.18  2084.26
                             2094.80  2137.32  2169.06  2175.43  2188.91
                             2195.46  2207.12  2220.39  2238.70  2245.85
                             2460.28  2477.35  2490.73  4260.47  4349.62
                             4371.70  4376.94  4383.73  4390.58  4430.30
                             4433.89  4455.41  4481.84  4497.13  4519.07
                             4532.20  4541.68  4556.21  4561.98  4651.30
                             4687.04  4823.65  5103.35

 Zero-point correction=                           0.297791 (Hartree/Particle)
 Thermal correction to Energy=                    0.312991
 Thermal correction to Enthalpy=                  0.313935
 Thermal correction to Gibbs Free Energy=         0.255498
 Sum of electronic and zero-point Energies=           -540.407453
 Sum of electronic and thermal Energies=              -540.392253
 Sum of electronic and thermal Enthalpies=            -540.391309
 Sum of electronic and thermal Free Energies=         -540.449747

                     E (Thermal)             CV                S
                      KCal/Mol        Cal/Mol-Kelvin    Cal/Mol-Kelvin
 Total                  196.405             56.835            122.993
 Electronic               0.000              0.000              0.000
 Translational            0.889              2.981             41.473
 Rotational               0.889              2.981             31.565
 Vibrational            194.628             50.873             49.955
 Vibration     1          0.594              1.981              5.224
 Vibration     2          0.595              1.978              4.845
 Vibration     3          0.598              1.968              4.141
 Vibration     4          0.600              1.962              3.881
 Vibration     5          0.603              1.952              3.519
 Vibration     6          0.613              1.921              2.909
 Vibration     7          0.621              1.894              2.579
 Vibration     8          0.630              1.864              2.309
 Vibration     9          0.649              1.805              1.929
 Vibration    10          0.650              1.801              1.907
 Vibration    11          0.655              1.787              1.838
 Vibration    12          0.666              1.752              1.686
 Vibration    13          0.680              1.710              1.531
 Vibration    14          0.696              1.662              1.383
 Vibration    15          0.707              1.633              1.304
 Vibration    16          0.764              1.474              0.969
 Vibration    17          0.770              1.459              0.944
 Vibration    18          0.825              1.323              0.745
 Vibration    19          0.835              1.299              0.715
 Vibration    20          0.870              1.216              0.621
 Vibration    21          0.891              1.170              0.574
 Vibration    22          0.976              0.996              0.422

 Optimization completed.
    -- Stationary point found.
 Normal termination of Gaussian 16 at Mon Dec 14 18:57:06 2020.

 ----------------------------------------------------------------------
 # B3LYP/6-311++G(d,p) empiricaldispersion=gd3bj scf=xqc pop=npa geom=c
 heck
 ----------------------------------------------------------------------

 ---------------------------------------
 CID_147605437_JID_3623_Energie_neutraal
 ---------------------------------------
 Structure from the checkpoint file:  "JID_3623.chk"
 Charge =  0 Multiplicity = 1

 SCF Done:  E(RB3LYP) =  -540.864782946     A.U. after   14 cycles
 Normal termination of Gaussian 16 at Mon Dec 14 19:01:32 2020.

 ----------------------------------------------------------------------
 # B3LYP/6-311++G(d,p) empiricaldispersion=gd3bj scf=xqc pop=npa geom=c
 heck
 ----------------------------------------------------------------------

 -------------------------------------
 CID_147605437_JID_3623_Energie_kation
 -------------------------------------
 Structure from the checkpoint file:  "JID_3623.chk"
 Charge =  1 Multiplicity = 2

 SCF Done:  E(UB3LYP) =  -540.584747442     A.U. after   21 cycles
 Normal termination of Gaussian 16 at Mon Dec 14 19:10:57 2020.
 Gaussian 16:  ES64L-G16RevA.03 25-Dec-2016

 ----------------------------------------------------------------------
 # B3LYP/6-311++G(d,p) empiricaldispersion=gd3bj scf=xqc pop=npa geom=c
 heck
 ----------------------------------------------------------------------

 ------------------------------------
 CID_147605437_JID_3623_Energie_anion
 ------------------------------------
 Structure from the checkpoint file:  "JID_3623.chk"
 Charge = -1 Multiplicity = 2

                         Standard orientation:
 ---------------------------------------------------------------------
 Center     Atomic      Atomic             Coordinates (Angstroms)
 Number     Number       Type             X           Y           Z
 ---------------------------------------------------------------------
      1          6           0       -0.711316   -1.936305   -1.213117
      2          6           0       -1.692995   -1.818734   -0.035821
      3          6           0       -2.365344   -0.469354    0.102590
      4          6           0       -3.688410   -0.361812   -0.064119
      5          6           0       -1.568135    0.793582    0.415821
      6          6           0       -0.529787    0.700515    1.571616
      7          6           0        0.790083   -0.045962    1.356226
      8          7           0        1.510036    0.443208    0.186317
      9          6           0        2.794733   -0.041964   -0.108946
     10          6           0        3.746422    0.742369   -0.640025
     11          6           0        3.014719   -1.511985    0.138934
     12          6           0       -0.965234    1.438019   -0.830481
     13          7           0       -0.787294    2.687617   -1.010356
     14          1           0       -1.223152   -1.735029   -2.160657
     15          1           0       -0.298325   -2.950323   -1.262807
     16          1           0        0.122479   -1.234838   -1.122380
     17          1           0       -2.475917   -2.577314   -0.148528
     18          1           0       -1.169320   -2.066486    0.896831
     19          1           0       -4.205429    0.590216    0.029650
     20          1           0       -4.304157   -1.223945   -0.307129
     21          1           0       -2.304138    1.522560    0.780342
     22          1           0       -0.284738    1.735535    1.847769
     23          1           0       -1.027175    0.263697    2.446003
     24          1           0        1.378942    0.063064    2.284334
     25          1           0        0.612613   -1.115776    1.228638
     26          1           0        1.449638    1.450982    0.081593
     27          1           0        4.696967    0.328311   -0.954776
     28          1           0        3.586162    1.804055   -0.808625
     29          1           0        2.961828   -1.757871    1.206926
     30          1           0        2.256482   -2.118249   -0.371330
     31          1           0        3.999579   -1.812881   -0.224576
     32          1           0       -0.657164    0.773452   -1.637717
     33          1           0       -1.122779    3.214858   -0.191356
 ---------------------------------------------------------------------

 SCF Done:  E(UB3LYP) =  -540.853582343     A.U. after   33 cycles
 SCF Done:  E(UB3LYP) =  -540.853582343     a.u. after    1 cycles

 The electronic state is 2-A.
 Alpha  occ. eigenvalues --  -14.22097 -14.19923 -10.11774 -10.11510 -10.10216
 Alpha  occ. eigenvalues --  -10.09112 -10.08706 -10.08079 -10.07403 -10.07236
 Alpha  occ. eigenvalues --  -10.06316 -10.06282 -10.04824  -0.83523  -0.80798
 Alpha  occ. eigenvalues --   -0.73039  -0.69135  -0.65939  -0.63694  -0.60392
 Alpha  occ. eigenvalues --   -0.58270  -0.53245  -0.52063  -0.48659  -0.46669
 Alpha  occ. eigenvalues --   -0.43685  -0.39454  -0.38882  -0.38351  -0.37710
 Alpha  occ. eigenvalues --   -0.34844  -0.34077  -0.33238  -0.32361  -0.31934
 Alpha  occ. eigenvalues --   -0.30796  -0.30701  -0.29669  -0.28240  -0.27736
 Alpha  occ. eigenvalues --   -0.27064  -0.26065  -0.25679  -0.24368  -0.22866
 Alpha  occ. eigenvalues --   -0.21673  -0.19829  -0.17699  -0.15148  -0.11088
 Alpha  occ. eigenvalues --    0.04281
 Alpha virt. eigenvalues --    0.06497   0.07014   0.07797   0.07893   0.08642
 Alpha virt. eigenvalues --    0.08744   0.09292   0.09843   0.10199   0.10472
 Alpha virt. eigenvalues --    0.10945   0.11280   0.11700   0.12739   0.12852

  Beta  occ. eigenvalues --  -14.22092 -14.19894 -10.11761 -10.11508 -10.10188
  Beta  occ. eigenvalues --  -10.09102 -10.08687 -10.08047 -10.07378 -10.07207
  Beta  occ. eigenvalues --  -10.06297 -10.06263 -10.04814  -0.83507  -0.80753
  Beta  occ. eigenvalues --   -0.72989  -0.69100  -0.65900  -0.63655  -0.60347
  Beta  occ. eigenvalues --   -0.58227  -0.53180  -0.51988  -0.48600  -0.46633
  Beta  occ. eigenvalues --   -0.43627  -0.39419  -0.38827  -0.38310  -0.37673
  Beta  occ. eigenvalues --   -0.34803  -0.34041  -0.33210  -0.32320  -0.31890
  Beta  occ. eigenvalues --   -0.30758  -0.30667  -0.29638  -0.28191  -0.27682
  Beta  occ. eigenvalues --   -0.27034  -0.26022  -0.25638  -0.24335  -0.22817
  Beta  occ. eigenvalues --   -0.21622  -0.19781  -0.17647  -0.15086  -0.11065
  Beta virt. eigenvalues --    0.06633   0.07350   0.07605   0.07925   0.08395
  Beta virt. eigenvalues --    0.09047   0.09084   0.09516   0.10154   0.10639
  Beta virt. eigenvalues --    0.10949   0.11047   0.11550   0.12117   0.13154

 Mulliken charges and spin densities:
               1          2
     1  C    0.317284  -0.876976
     2  C   -0.451177  -0.145615
     3  C   -0.601119   1.248106
     4  C    1.312330  -1.896779
     5  C   -0.649858   1.085157
     6  C    1.662222  -2.616084
     7  C   -0.760456   0.858505
     8  N    0.061049  -0.015248
     9  C   -0.320748   0.778127
    10  C   -1.058991   0.323896
    11  C    0.811916  -1.469763
    12  C    0.438024  -1.169757
    13  N   -0.287220   0.096423
    14  H    0.183565  -0.046395
    15  H   -0.312363   0.456992
    16  H    0.311398  -0.125813
    17  H   -0.282815   0.449445
    18  H   -0.271078   0.438929
    19  H   -0.039067   0.164744
    20  H   -0.030210   0.150705
    21  H   -0.395952   0.642061
    22  H   -0.098371   0.295740
    23  H   -0.506532   0.714433
    24  H   -0.564611   0.768986
    25  H    0.493060  -0.406745
    26  H    0.263231  -0.021350
    27  H    0.069160   0.044533
    28  H    0.015379   0.064681
    29  H   -0.274785   0.453662
    30  H   -0.051373   0.201912
    31  H   -0.237941   0.386050
    32  H    0.207382   0.015012
    33  H    0.048665   0.152427
 Sum of Mulliken charges =  -1.00000   1.00000

 Dipole moment (field-independent basis, Debye):
    X=              0.6069    Y=              0.6316    Z=             -3.6537  Tot=              3.7572
 Quadrupole moment (field-independent basis, Debye-Ang):
   XX=           -139.1785   YY=           -134.3441   ZZ=           -127.3264
   XY=              5.1573   XZ=              2.1239   YZ=              3.4511

 Summary of Natural Population Analysis:

                                       Natural Population
                Natural  -----------------------------------------------
    Atom  No    Charge         Core      Valence    Rydberg      Total
 -----------------------------------------------------------------------
      C    1   -0.29003      0.99965     2.28438    0.00600     3.29003
      C    2   -0.20531      0.99958     2.19576    0.00997     3.20531
      C    3    0.01111      0.99949     1.97729    0.01211     2.98889
      C    4   -0.19083      0.99948     2.18359    0.00775     3.19083
      C    5   -0.16277      0.99951     2.14697    0.01629     3.16277
      C    6   -0.18577      0.99960     2.17494    0.01122     3.18577
      C    7   -0.08804      0.99959     2.07691    0.01154     3.08804
      N    8   -0.32878      0.99968     2.81842    0.01068     3.82878
      C    9    0.10442      0.99952     1.88362    0.01244     2.89558
      C   10   -0.25289      0.99952     2.24698    0.00639     3.25289
      C   11   -0.30618      0.99962     2.30103    0.00553     3.30618
      C   12    0.09068      0.99965     1.89394    0.01574     2.90932
      N   13   -0.32073      0.99974     2.81216    0.00883     3.82073
      H   14    0.09499      0.00000     0.40414    0.00087     0.40501
      H   15    0.10039      0.00000     0.39855    0.00107     0.39961
      H   16    0.10329      0.00000     0.39448    0.00223     0.39671
      H   17    0.09958      0.00000     0.39909    0.00134     0.40042
      H   18    0.10286      0.00000     0.39496    0.00218     0.39714
      H   19    0.09338      0.00000     0.40567    0.00095     0.40662
      H   20    0.09225      0.00000     0.40681    0.00094     0.40775
      H   21    0.11096      0.00000     0.38598    0.00306     0.38904
      H   22    0.09895      0.00000     0.39924    0.00180     0.40105
      H   23    0.11064      0.00000     0.38668    0.00268     0.38936
      H   24    0.09055      0.00000     0.40752    0.00193     0.40945
      H   25    0.09660      0.00000     0.40093    0.00247     0.40340
      H   26    0.18533      0.00000     0.31167    0.00300     0.31467
      H   27    0.09428      0.00000     0.40495    0.00077     0.40572
      H   28    0.09235      0.00000     0.40670    0.00095     0.40765
      H   29    0.10750      0.00000     0.39109    0.00141     0.39250
      H   30    0.10676      0.00000     0.39198    0.00126     0.39324
      H   31    0.10441      0.00000     0.39480    0.00079     0.39559
      H   32    0.08408      0.00000     0.41401    0.00192     0.41592
      H   33    0.15596      0.00000     0.34160    0.00243     0.34404
 =======================================================================
   * Total *    0.00000     12.99463    36.83684    0.16853    50.00000

 Normal termination of Gaussian 16 at Mon Dec 14 19:25:07 2020.
