 Gaussian 16, Revision A.03,

 -----------------------------------------------------------
 # opt freq B3LYP/6-31G(d) empiricaldispersion=gd3bj scf=xqc
 -----------------------------------------------------------

 -------------------------------
 CID_124095208_JID_6777_neutraal
 -------------------------------
 Symbolic Z-matrix:
 Charge =  0 Multiplicity = 1

 SCF Done:  E(RB3LYP) =  -792.482506497     A.U. after   15 cycles
 SCF Done:  E(RB3LYP) =  -792.489228678     A.U. after   13 cycles
 SCF Done:  E(RB3LYP) =  -792.489849018     A.U. after   12 cycles
 SCF Done:  E(RB3LYP) =  -792.489751042     A.U. after   13 cycles
 SCF Done:  E(RB3LYP) =  -792.490150794     A.U. after   12 cycles
 SCF Done:  E(RB3LYP) =  -792.490257310     A.U. after   12 cycles
 SCF Done:  E(RB3LYP) =  -792.490299285     A.U. after   13 cycles
 SCF Done:  E(RB3LYP) =  -792.490332803     A.U. after   12 cycles
 SCF Done:  E(RB3LYP) =  -792.490348675     A.U. after   10 cycles
 SCF Done:  E(RB3LYP) =  -792.490361725     A.U. after   11 cycles
 SCF Done:  E(RB3LYP) =  -792.490375199     A.U. after   10 cycles
 SCF Done:  E(RB3LYP) =  -792.490395133     A.U. after   10 cycles
 SCF Done:  E(RB3LYP) =  -792.490402542     A.U. after    9 cycles
 SCF Done:  E(RB3LYP) =  -792.490403957     A.U. after    9 cycles
 SCF Done:  E(RB3LYP) =  -792.490404028     A.U. after    7 cycles
 SCF Done:  E(RB3LYP) =  -792.490404046     A.U. after    7 cycles
 Optimization completed.
    -- Stationary point found.
 Normal termination of Gaussian 16 at Fri Dec 11 00:29:36 2020.

 --------------------------------------------------------------------
 #N Geom=AllCheck Guess=TCheck SCRF=Check GenChk RB3LYP/6-31G(d) Freq
 --------------------------------------------------------------------

 Structure from the checkpoint file:  "JID_6777.chk"
 -------------------------------
 CID_124095208_JID_6777_neutraal
 -------------------------------
 Charge =  0 Multiplicity = 1

 SCF Done:  E(RB3LYP) =  -792.490404046     A.U. after    1 cycles

  Exact polarizability: 159.148  -7.673 139.175   9.364   1.601  68.346
 Approx polarizability: 238.774  -5.087 255.967  23.456   3.557 117.387

                      1                      2                      3
                      A                      A                      A
 Frequencies --     27.0375                53.5583                63.2950
 Red. masses --      5.2607                 7.3536                 2.5478
 Frc consts  --      0.0023                 0.0124                 0.0060
 IR Inten    --      0.6346                 0.5772                 3.9076

                      4                      5                      6
                      A                      A                      A
 Frequencies --     96.5557               103.5558               112.5263
 Red. masses --      1.4627                 3.8182                 5.6281
 Frc consts  --      0.0080                 0.0241                 0.0420
 IR Inten    --      0.2141                 2.0394                 0.2229

                      7                      8                      9
                      A                      A                      A
 Frequencies --    179.1169               188.8224               277.0388
 Red. masses --      6.1070                 6.2975                 8.1747
 Frc consts  --      0.1154                 0.1323                 0.3697
 IR Inten    --      0.5709                 0.8117                 1.0301

                     10                     11                     12
                      A                      A                      A
 Frequencies --    292.8957               324.7222               332.7613
 Red. masses --      4.8156                 5.9225                 2.9416
 Frc consts  --      0.2434                 0.3679                 0.1919
 IR Inten    --      7.9262                 2.3377                 5.2042

                     13                     14                     15
                      A                      A                      A
 Frequencies --    395.3243               455.5533               466.7985
 Red. masses --      4.5272                 3.7608                 7.3409
 Frc consts  --      0.4169                 0.4598                 0.9425
 IR Inten    --      0.5224                 9.6390                 7.6963

                     16                     17                     18
                      A                      A                      A
 Frequencies --    472.4358               493.2211               582.3719
 Red. masses --      5.7541                10.2706                 5.6622
 Frc consts  --      0.7567                 1.4721                 1.1315
 IR Inten    --      3.5301                 4.7362                13.4862

                     19                     20                     21
                      A                      A                      A
 Frequencies --    593.6312               612.8794               631.8929
 Red. masses --      3.4201                 3.2401                 4.2183
 Frc consts  --      0.7101                 0.7171                 0.9924
 IR Inten    --      4.7067                20.2639                21.1011

                     22                     23                     24
                      A                      A                      A
 Frequencies --    684.3403               693.4108               722.0229
 Red. masses --      2.5877                 4.7111                 2.1050
 Frc consts  --      0.7140                 1.3346                 0.6465
 IR Inten    --      2.7908                 1.2579                89.6249

                     25                     26                     27
                      A                      A                      A
 Frequencies --    747.8023               798.8680               834.2588
 Red. masses --      7.3099                 6.6167                 6.6899
 Frc consts  --      2.4084                 2.4879                 2.7433
 IR Inten    --     14.8517                 5.5255                 0.3432

                     28                     29                     30
                      A                      A                      A
 Frequencies --    848.8242               855.4338               940.6321
 Red. masses --      6.7314                 4.0044                 1.5555
 Frc consts  --      2.8575                 1.7265                 0.8109
 IR Inten    --     12.9060                22.8693                 1.3949

                     31                     32                     33
                      A                      A                      A
 Frequencies --   1001.6552              1006.7057              1044.7407
 Red. masses --      1.5405                 2.0273                 4.4347
 Frc consts  --      0.9106                 1.2105                 2.8519
 IR Inten    --      0.9767                 5.4676                92.6387

                     34                     35                     36
                      A                      A                      A
 Frequencies --   1059.3320              1075.8628              1123.0737
 Red. masses --      2.1273                 1.7575                 5.4995
 Frc consts  --      1.4065                 1.1985                 4.0869
 IR Inten    --      4.2210                 7.5988                71.8660

                     37                     38                     39
                      A                      A                      A
 Frequencies --   1152.0299              1177.5295              1200.4833
 Red. masses --      7.7048                 3.1382                 4.8758
 Frc consts  --      6.0248                 2.5637                 4.1400
 IR Inten    --     14.5758                32.1846                43.7226

                     40                     41                     42
                      A                      A                      A
 Frequencies --   1263.4370              1275.2565              1288.5728
 Red. masses --      3.6378                 4.5085                 4.9012
 Frc consts  --      3.4213                 4.3199                 4.7948
 IR Inten    --    289.2844                68.1615                60.5128

                     43                     44                     45
                      A                      A                      A
 Frequencies --   1322.4364              1338.5411              1377.7904
 Red. masses --      1.1617                 3.2896                 2.1574
 Frc consts  --      1.1970                 3.4726                 2.4130
 IR Inten    --     29.7063                17.9276                 8.5279

                     46                     47                     48
                      A                      A                      A
 Frequencies --   1418.4307              1429.2342              1454.6848
 Red. masses --      1.3703                 1.5764                 1.6893
 Frc consts  --      1.6244                 1.8972                 2.1061
 IR Inten    --     13.3326                70.2248                18.8364

                     49                     50                     51
                      A                      A                      A
 Frequencies --   1466.8024              1497.5819              1500.2495
 Red. masses --      2.3167                 1.6835                 1.0693
 Frc consts  --      2.9367                 2.2246                 1.4180
 IR Inten    --     33.3602                10.7836                13.3960

                     52                     53                     54
                      A                      A                      A
 Frequencies --   1503.4571              1504.8042              1578.1833
 Red. masses --      1.1705                 1.1376                 5.6335
 Frc consts  --      1.5588                 1.5177                 8.2669
 IR Inten    --      9.4862                 4.7756                43.2756

                     55                     56                     57
                      A                      A                      A
 Frequencies --   1636.6106              1662.7414              1814.1398
 Red. masses --      6.3329                 7.2759                 9.6412
 Frc consts  --      9.9941                11.8518                18.6948
 IR Inten    --     32.9954                31.2918               373.5354

                     58                     59                     60
                      A                      A                      A
 Frequencies --   1847.3194              3070.2574              3074.2165
 Red. masses --     10.8706                 1.0571                 1.0376
 Frc consts  --     21.8568                 5.8711                 5.7775
 IR Inten    --    192.8882                17.6296                 1.7975

                     61                     62                     63
                      A                      A                      A
 Frequencies --   3116.8035              3139.6144              3182.1141
 Red. masses --      1.1069                 1.0994                 1.0907
 Frc consts  --      6.3356                 6.3851                 6.5068
 IR Inten    --      6.5525                 5.2866                16.5573

                     64                     65                     66
                      A                      A                      A
 Frequencies --   3186.3309              3207.3170              3600.9939
 Red. masses --      1.1040                 1.0920                 1.0786
 Frc consts  --      6.6040                 6.6187                 8.2405
 IR Inten    --      6.4605                18.4143                59.2596

 - Thermochemistry -
 -------------------
 Temperature   298.150 Kelvin.  Pressure   1.00000 Atm.
 Atom     1 has atomic number  6 and mass  12.00000

 Molecular mass:   220.05964 amu.
 Principal axes and moments of inertia in atomic units:
                           1         2         3
     Eigenvalues --  1766.599975202.462586532.94373
           X            0.99990  -0.01346   0.00300
           Y            0.01345   0.99990   0.00378
           Z           -0.00305  -0.00374   0.99999
 This molecule is an asymmetric top.
 Rotational symmetry number  1.
 Warning -- assumption of classical behavior for rotation
           may cause significant error
 Rotational temperatures (Kelvin)      0.04903     0.01665     0.01326
 Rotational constants (GHZ):           1.02159     0.34690     0.27625
 Zero-point vibrational energy     463438.8 (Joules/Mol)
                                  110.76454 (Kcal/Mol)
 Warning -- explicit consideration of  20 degrees of freedom as
           vibrations may cause significant error
 Vibrational temperatures:     38.90    77.06    91.07   138.92   148.99
          (Kelvin)            161.90   257.71   271.67   398.60   421.41
                              467.20   478.77   568.78   655.44   671.62
                              679.73   709.64   837.90   854.10   881.80
                              909.15   984.61   997.66  1038.83  1075.92
                             1149.39  1200.31  1221.27  1230.78  1353.36
                             1441.16  1448.42  1503.15  1524.14  1547.93
                             1615.85  1657.51  1694.20  1727.23  1817.80
                             1834.81  1853.97  1902.69  1925.86  1982.33
                             2040.81  2056.35  2092.97  2110.40  2154.69
                             2158.52  2163.14  2165.08  2270.65  2354.72
                             2392.31  2610.14  2657.88  4417.42  4423.11
                             4484.39  4517.20  4578.35  4584.42  4614.61
                             5181.03

 Zero-point correction=                           0.176515 (Hartree/Particle)
 Thermal correction to Energy=                    0.189911
 Thermal correction to Enthalpy=                  0.190855
 Thermal correction to Gibbs Free Energy=         0.134579
 Sum of electronic and zero-point Energies=           -792.313890
 Sum of electronic and thermal Energies=              -792.300493
 Sum of electronic and thermal Enthalpies=            -792.299549
 Sum of electronic and thermal Free Energies=         -792.355825

                     E (Thermal)             CV                S
                      KCal/Mol        Cal/Mol-Kelvin    Cal/Mol-Kelvin
 Total                  119.171             49.305            118.443
 Electronic               0.000              0.000              0.000
 Translational            0.889              2.981             42.069
 Rotational               0.889              2.981             32.462
 Vibrational            117.393             43.344             43.912
 Vibration     1          0.593              1.984              6.036
 Vibration     2          0.596              1.976              4.681
 Vibration     3          0.597              1.972              4.352
 Vibration     4          0.603              1.952              3.523
 Vibration     5          0.605              1.946              3.386
 Vibration     6          0.607              1.939              3.225
 Vibration     7          0.629              1.868              2.338
 Vibration     8          0.633              1.855              2.239
 Vibration     9          0.678              1.716              1.552
 Vibration    10          0.688              1.687              1.457
 Vibration    11          0.709              1.626              1.286
 Vibration    12          0.715              1.610              1.247
 Vibration    13          0.762              1.480              0.980
 Vibration    14          0.814              1.349              0.779
 Vibration    15          0.824              1.324              0.747
 Vibration    16          0.829              1.311              0.731
 Vibration    17          0.849              1.265              0.675
 Vibration    18          0.939              1.069              0.481
 Vibration    19          0.951              1.045              0.461
 Vibration    20          0.972              1.005              0.428

 Optimization completed.
    -- Stationary point found.
 Normal termination of Gaussian 16 at Fri Dec 11 00:36:51 2020.

 ----------------------------------------------------------------------
 # B3LYP/6-311++G(d,p) empiricaldispersion=gd3bj scf=xqc pop=npa geom=c
 heck
 ----------------------------------------------------------------------

 ---------------------------------------
 CID_124095208_JID_6777_Energie_neutraal
 ---------------------------------------
 Structure from the checkpoint file:  "JID_6777.chk"
 Charge =  0 Multiplicity = 1

 SCF Done:  E(RB3LYP) =  -792.710914829     A.U. after   15 cycles
 Normal termination of Gaussian 16 at Fri Dec 11 00:39:16 2020.

 ----------------------------------------------------------------------
 # B3LYP/6-311++G(d,p) empiricaldispersion=gd3bj scf=xqc pop=npa geom=c
 heck
 ----------------------------------------------------------------------

 -------------------------------------
 CID_124095208_JID_6777_Energie_kation
 -------------------------------------
 Structure from the checkpoint file:  "JID_6777.chk"
 Charge =  1 Multiplicity = 2

 SCF Done:  E(UB3LYP) =  -792.377930235     A.U. after   27 cycles
 Normal termination of Gaussian 16 at Fri Dec 11 00:45:15 2020.
 Gaussian 16:  ES64L-G16RevA.03 25-Dec-2016

 ----------------------------------------------------------------------
 # B3LYP/6-311++G(d,p) empiricaldispersion=gd3bj scf=xqc pop=npa geom=c
 heck
 ----------------------------------------------------------------------

 ------------------------------------
 CID_124095208_JID_6777_Energie_anion
 ------------------------------------
 Structure from the checkpoint file:  "JID_6777.chk"
 Charge = -1 Multiplicity = 2

                         Standard orientation:
 ---------------------------------------------------------------------
 Center     Atomic      Atomic             Coordinates (Angstroms)
 Number     Number       Type             X           Y           Z
 ---------------------------------------------------------------------
      1          6           0       -4.620802    0.473139    0.017519
      2          6           0       -3.349151   -0.253493    0.364008
      3          8           0       -2.915480   -0.449443    1.474606
      4          8           0       -2.717947   -0.672651   -0.770944
      5          6           0       -1.433137   -1.247118   -0.570955
      6          6           0       -0.360197   -0.196585   -0.374338
      7          7           0       -0.718188    1.048449   -0.406801
      8          7           0        0.239983    1.983913   -0.225678
      9          6           0        1.607667    1.823815   -0.002835
     10          8           0        2.344013    2.782113    0.140347
     11          6           0        2.001705    0.391213    0.029725
     12          7           0        3.291920    0.090885    0.235749
     13          6           0        3.592294   -1.202369    0.258301
     14          7           0        2.744304   -2.238980    0.099406
     15          6           0        1.470884   -1.929050   -0.102717
     16          6           0        1.014532   -0.595768   -0.153273
     17          1           0       -5.203097    0.642507    0.923502
     18          1           0       -5.204260   -0.094605   -0.712730
     19          1           0       -4.364583    1.435106   -0.439658
     20          1           0       -1.454768   -1.918266    0.294180
     21          1           0       -1.231023   -1.834774   -1.471798
     22          1           0       -0.094994    2.939851   -0.252488
     23          1           0        4.635627   -1.459142    0.423333
     24          1           0        0.783496   -2.763394   -0.227764
 ---------------------------------------------------------------------

 SCF Done:  E(UB3LYP) =  -792.747115565     A.U. after   29 cycles

 The electronic state is 2-A.
 Alpha  occ. eigenvalues --  -19.07331 -19.02337 -18.93943 -14.24734 -14.22611
 Alpha  occ. eigenvalues --  -14.15094 -14.14394 -10.21594 -10.13034 -10.12022
 Alpha  occ. eigenvalues --  -10.10299 -10.09127 -10.08462 -10.06970 -10.05630
 Alpha  occ. eigenvalues --  -10.04805  -1.01647  -0.93317  -0.91781  -0.87195
 Alpha  occ. eigenvalues --   -0.82891  -0.73483  -0.72777  -0.68262  -0.66152
 Alpha  occ. eigenvalues --   -0.61566  -0.55230  -0.53602  -0.49446  -0.47001
 Alpha  occ. eigenvalues --   -0.44616  -0.41755  -0.40519  -0.39584  -0.38026
 Alpha  occ. eigenvalues --   -0.37258  -0.35489  -0.34462  -0.33874  -0.32899
 Alpha  occ. eigenvalues --   -0.31440  -0.30884  -0.28740  -0.27235  -0.27172
 Alpha  occ. eigenvalues --   -0.26631  -0.26189  -0.23190  -0.21564  -0.19454
 Alpha  occ. eigenvalues --   -0.19077  -0.17024  -0.16288  -0.14821  -0.11766
 Alpha  occ. eigenvalues --   -0.10445  -0.09731   0.02908
 Alpha virt. eigenvalues --    0.06341   0.07825   0.08415   0.09051   0.10175
 Alpha virt. eigenvalues --    0.10298   0.11169   0.11553   0.12098   0.13295
 Alpha virt. eigenvalues --    0.14727   0.14811   0.14963   0.15997   0.16573

  Beta  occ. eigenvalues --  -19.07331 -19.02337 -18.93680 -14.24773 -14.22620
  Beta  occ. eigenvalues --  -14.14760 -14.13889 -10.21594 -10.13041 -10.11853
  Beta  occ. eigenvalues --  -10.10299 -10.08991 -10.08507 -10.06855 -10.05743
  Beta  occ. eigenvalues --  -10.04308  -1.01646  -0.93314  -0.91596  -0.86878
  Beta  occ. eigenvalues --   -0.82223  -0.72739  -0.72492  -0.68257  -0.65799
  Beta  occ. eigenvalues --   -0.61525  -0.54482  -0.53461  -0.49257  -0.46762
  Beta  occ. eigenvalues --   -0.44380  -0.41737  -0.40430  -0.39456  -0.37959
  Beta  occ. eigenvalues --   -0.36991  -0.35273  -0.34359  -0.33777  -0.32675
  Beta  occ. eigenvalues --   -0.31123  -0.30588  -0.28641  -0.27053  -0.26411
  Beta  occ. eigenvalues --   -0.25960  -0.25765  -0.22202  -0.21521  -0.19435
  Beta  occ. eigenvalues --   -0.18961  -0.15669  -0.14305  -0.14174  -0.11480
  Beta  occ. eigenvalues --   -0.09452  -0.09273
  Beta virt. eigenvalues --    0.06328   0.08100   0.08471   0.09017   0.09592
  Beta virt. eigenvalues --    0.10183   0.10288   0.11155   0.11624   0.12188
  Beta virt. eigenvalues --    0.13283   0.14741   0.14792   0.15967   0.16180

 Mulliken charges and spin densities:
               1          2
     1  C   -0.562078  -0.003467
     2  C    0.046391   0.004807
     3  O   -0.232363  -0.000761
     4  O    0.035491  -0.000688
     5  C   -0.476082  -0.000152
     6  C   -1.014850   0.059467
     7  N   -0.045896  -0.007406
     8  N   -0.215053  -0.027265
     9  C   -0.021927   0.088765
    10  O   -0.390926   0.099656
    11  C   -0.680109   0.083994
    12  N   -0.115827   0.249656
    13  C    0.186181  -0.026387
    14  N   -0.144585   0.152793
    15  C   -1.063689   0.348273
    16  C    2.201378  -0.018723
    17  H    0.153260   0.000241
    18  H    0.157132   0.000007
    19  H    0.178867   0.000194
    20  H    0.219402   0.010954
    21  H    0.168529   0.016561
    22  H    0.321195  -0.000517
    23  H    0.169466  -0.000092
    24  H    0.126096  -0.029910
 Sum of Mulliken charges =  -1.00000   1.00000

 Dipole moment (field-independent basis, Debye):
    X=            -10.4536    Y=             -0.9251    Z=             -2.1025  Tot=             10.7029
 Quadrupole moment (field-independent basis, Debye-Ang):
   XX=           -130.9427   YY=           -118.4262   ZZ=           -102.0826
   XY=             -7.1197   XZ=              1.7329   YZ=              0.3404

 Summary of Natural Population Analysis:

                                       Natural Population
                Natural  -----------------------------------------------
    Atom  No    Charge         Core      Valence    Rydberg      Total
 -----------------------------------------------------------------------
      C    1   -0.33372      0.99962     2.32980    0.00431     3.33372
      C    2    0.40773      0.99973     1.56768    0.02486     2.59227
      O    3   -0.29919      0.99987     3.29285    0.00647     4.29919
      O    4   -0.28093      0.99986     3.27125    0.00982     4.28093
      C    5   -0.02709      0.99954     2.01679    0.01076     3.02709
      C    6    0.11121      0.99955     1.87613    0.01310     2.88879
      N    7   -0.14666      0.99964     2.63370    0.01332     3.64666
      N    8   -0.21153      0.99968     2.69945    0.01240     3.71153
      C    9    0.33227      0.99962     1.64540    0.02271     2.66773
      O   10   -0.29327      0.99988     3.28551    0.00788     4.29327
      C   11    0.09667      0.99947     1.89088    0.01298     2.90333
      N   12   -0.16721      0.99967     2.65654    0.01099     3.66721
      C   13    0.12548      0.99968     1.85371    0.02113     2.87452
      N   14   -0.20924      0.99971     2.69671    0.01281     3.70924
      C   15    0.13041      0.99959     1.85515    0.01485     2.86959
      C   16   -0.09775      0.99947     2.09128    0.00700     3.09775
      H   17    0.10664      0.00000     0.39247    0.00089     0.39336
      H   18    0.10844      0.00000     0.39066    0.00089     0.39156
      H   19    0.11640      0.00000     0.38262    0.00098     0.38360
      H   20    0.10201      0.00000     0.39641    0.00158     0.39799
      H   21    0.09737      0.00000     0.40136    0.00127     0.40263
      H   22    0.18662      0.00000     0.31064    0.00274     0.31338
      H   23    0.07187      0.00000     0.42679    0.00134     0.42813
      H   24    0.07347      0.00000     0.42490    0.00163     0.42653
 =======================================================================
   * Total *   -0.00000     15.99458    40.78870    0.21672    57.00000

 Normal termination of Gaussian 16 at Fri Dec 11 00:51:46 2020.
