 Gaussian 16, Revision A.03,

 -----------------------------------------------------------
 # opt freq B3LYP/6-31G(d) empiricaldispersion=gd3bj scf=xqc
 -----------------------------------------------------------

 -------------------------------
 CID_136394280_JID_5556_neutraal
 -------------------------------
 Symbolic Z-matrix:
 Charge =  0 Multiplicity = 1

 SCF Done:  E(RB3LYP) =  -769.214474380     A.U. after   18 cycles
 SCF Done:  E(RB3LYP) =  -769.220393339     A.U. after   14 cycles
 SCF Done:  E(RB3LYP) =  -769.218095685     A.U. after   16 cycles
 SCF Done:  E(RB3LYP) =  -769.222504313     A.U. after   14 cycles
 SCF Done:  E(RB3LYP) =  -769.223470817     A.U. after   14 cycles
 SCF Done:  E(RB3LYP) =  -769.223860240     A.U. after   13 cycles
 SCF Done:  E(RB3LYP) =  -769.224086718     A.U. after   14 cycles
 SCF Done:  E(RB3LYP) =  -769.224166167     A.U. after   13 cycles
 SCF Done:  E(RB3LYP) =  -769.224210283     A.U. after   12 cycles
 SCF Done:  E(RB3LYP) =  -769.224220654     A.U. after   10 cycles
 SCF Done:  E(RB3LYP) =  -769.224225159     A.U. after    9 cycles
 SCF Done:  E(RB3LYP) =  -769.224225389     A.U. after    8 cycles
 SCF Done:  E(RB3LYP) =  -769.224225579     A.U. after    8 cycles
 SCF Done:  E(RB3LYP) =  -769.224225740     A.U. after    8 cycles
 SCF Done:  E(RB3LYP) =  -769.224225812     A.U. after    7 cycles
 SCF Done:  E(RB3LYP) =  -769.224225835     A.U. after    7 cycles
 Optimization completed.
    -- Stationary point found.
 Normal termination of Gaussian 16 at Thu Dec 10 16:27:33 2020.

 --------------------------------------------------------------------
 #N Geom=AllCheck Guess=TCheck SCRF=Check GenChk RB3LYP/6-31G(d) Freq
 --------------------------------------------------------------------

 Structure from the checkpoint file:  "JID_5556.chk"
 -------------------------------
 CID_136394280_JID_5556_neutraal
 -------------------------------
 Charge =  0 Multiplicity = 1

 SCF Done:  E(RB3LYP) =  -769.224225835     A.U. after    1 cycles

  Exact polarizability: 159.716   3.091 132.395   0.266   0.019  42.963
 Approx polarizability: 231.736  -3.530 254.407  -0.418  -0.970  68.854

                      1                      2                      3
                      A                      A                      A
 Frequencies --     27.3927                70.3967                95.4427
 Red. masses --     11.8710                 7.3726                 3.3667
 Frc consts  --      0.0052                 0.0215                 0.0181
 IR Inten    --      0.1558                 0.0512                20.9723

                      4                      5                      6
                      A                      A                      A
 Frequencies --    142.6070               149.9178               166.3794
 Red. masses --      8.1204                 6.0522                 7.8452
 Frc consts  --      0.0973                 0.0801                 0.1280
 IR Inten    --      1.7638                 2.9042                 1.4834

                      7                      8                      9
                      A                      A                      A
 Frequencies --    223.8096               225.9488               323.8787
 Red. masses --     11.8754                 6.2730                 9.2539
 Frc consts  --      0.3505                 0.1887                 0.5719
 IR Inten    --      4.3721                 4.4874                 2.3737

                     10                     11                     12
                      A                      A                      A
 Frequencies --    341.4676               346.8238               361.1912
 Red. masses --      3.8713                 1.1337                 7.8732
 Frc consts  --      0.2660                 0.0803                 0.6052
 IR Inten    --     34.5516                97.0417                 7.7640

                     13                     14                     15
                      A                      A                      A
 Frequencies --    438.3601               492.7536               506.1810
 Red. masses --      8.3929                 7.6791                 7.8781
 Frc consts  --      0.9502                 1.0986                 1.1893
 IR Inten    --      0.6775                17.5258                27.0443

                     16                     17                     18
                      A                      A                      A
 Frequencies --    557.9516               571.7032               598.2717
 Red. masses --      2.1607                 2.1212                 3.9238
 Frc consts  --      0.3963                 0.4085                 0.8275
 IR Inten    --    127.5050               159.4197                36.4048

                     19                     20                     21
                      A                      A                      A
 Frequencies --    606.7298               618.9447               658.4745
 Red. masses --      2.2610                 3.5050                 4.0571
 Frc consts  --      0.4904                 0.7911                 1.0364
 IR Inten    --     36.4706                13.9320                59.5394

                     22                     23                     24
                      A                      A                      A
 Frequencies --    678.1141               704.5745               734.2813
 Red. masses --      4.3184                 5.9259                 5.0344
 Frc consts  --      1.1700                 1.7332                 1.5993
 IR Inten    --     24.2770                44.2740                10.2445

                     25                     26                     27
                      A                      A                      A
 Frequencies --    739.8064               775.0300               844.5438
 Red. masses --      7.0630                 9.0237                 1.4085
 Frc consts  --      2.2776                 3.1935                 0.5919
 IR Inten    --    132.1308                27.6477                 6.9840

                     28                     29                     30
                      A                      A                      A
 Frequencies --    846.6382               990.2954              1012.8633
 Red. masses --      7.9002                 7.1626                 1.8433
 Frc consts  --      3.3364                 4.1386                 1.1142
 IR Inten    --      1.4258                18.0160                 1.8357

                     31                     32                     33
                      A                      A                      A
 Frequencies --   1052.7676              1078.7633              1138.9020
 Red. masses --      3.5641                 4.0271                 3.7338
 Frc consts  --      2.3274                 2.7612                 2.8535
 IR Inten    --     23.4003                25.4090                19.7791

                     34                     35                     36
                      A                      A                      A
 Frequencies --   1141.0965              1213.1091              1298.6921
 Red. masses --      2.5805                 4.8306                 1.8561
 Frc consts  --      1.9797                 4.1885                 1.8445
 IR Inten    --     11.4566                36.4776                37.4623

                     37                     38                     39
                      A                      A                      A
 Frequencies --   1340.5443              1343.1159              1384.8972
 Red. masses --      2.9665                 2.9257                 1.6135
 Frc consts  --      3.1410                 3.1096                 1.8233
 IR Inten    --      5.1906               130.2177                39.7914

                     40                     41                     42
                      A                      A                      A
 Frequencies --   1402.3823              1445.2954              1543.1869
 Red. masses --      2.3639                 7.1150                 5.2347
 Frc consts  --      2.7391                 8.7567                 7.3448
 IR Inten    --    196.2128                82.2168                28.6929

                     43                     44                     45
                      A                      A                      A
 Frequencies --   1569.6346              1605.2488              1622.8028
 Red. masses --      6.4352                 9.2469                 2.5037
 Frc consts  --      9.3413                14.0388                 3.8848
 IR Inten    --    121.9105               167.5439               277.0881

                     46                     47                     48
                      A                      A                      A
 Frequencies --   1688.2334              1799.9748              1834.7535
 Red. masses --      1.6194                11.9993                10.5820
 Frc consts  --      2.7193                22.9055                20.9881
 IR Inten    --    430.2764               313.8618               113.2678

                     49                     50                     51
                      A                      A                      A
 Frequencies --   1837.5246              2997.4807              3330.5014
 Red. masses --     10.0673                 1.0893                 1.0981
 Frc consts  --     20.0276                 5.7667                 7.1763
 IR Inten    --    494.7966                85.4828                24.0070

                     52                     53                     54
                      A                      A                      A
 Frequencies --   3572.3551              3585.3129              3682.2262
 Red. masses --      1.0483                 1.0764                 1.1012
 Frc consts  --      7.8821                 8.1524                 8.7971
 IR Inten    --     56.1216                50.3894                36.0350

 - Thermochemistry -
 -------------------
 Temperature   298.150 Kelvin.  Pressure   1.00000 Atm.
 Atom     1 has atomic number  6 and mass  12.00000

 Molecular mass:   207.03924 amu.
 Principal axes and moments of inertia in atomic units:
                           1         2         3
     Eigenvalues --  1567.627774075.019725641.11047
           X            0.99976   0.02188   0.00120
           Y           -0.02188   0.99976   0.00266
           Z           -0.00114  -0.00269   1.00000
 This molecule is an asymmetric top.
 Rotational symmetry number  1.
 Warning -- assumption of classical behavior for rotation
           may cause significant error
 Rotational temperatures (Kelvin)      0.05525     0.02125     0.01535
 Rotational constants (GHZ):           1.15126     0.44288     0.31993
 Zero-point vibrational energy     355049.1 (Joules/Mol)
                                   84.85877 (Kcal/Mol)
 Warning -- explicit consideration of  20 degrees of freedom as
           vibrations may cause significant error
 Vibrational temperatures:     39.41   101.29   137.32   205.18   215.70
          (Kelvin)            239.38   322.01   325.09   465.99   491.30
                              499.00   519.67   630.70   708.96   728.28
                              802.77   822.55   860.78   872.95   890.52
                              947.40   975.65  1013.73  1056.47  1064.42
                             1115.10  1215.11  1218.12  1424.81  1457.28
                             1514.70  1552.10  1638.63  1641.78  1745.39
                             1868.53  1928.74  1932.44  1992.56  2017.72
                             2079.46  2220.30  2258.35  2309.60  2334.85
                             2428.99  2589.76  2639.80  2643.79  4312.71
                             4791.85  5139.82  5158.47  5297.90

 Zero-point correction=                           0.135231 (Hartree/Particle)
 Thermal correction to Energy=                    0.147509
 Thermal correction to Enthalpy=                  0.148454
 Thermal correction to Gibbs Free Energy=         0.095560
 Sum of electronic and zero-point Energies=           -769.088995
 Sum of electronic and thermal Energies=              -769.076716
 Sum of electronic and thermal Enthalpies=            -769.075772
 Sum of electronic and thermal Free Energies=         -769.128666

                     E (Thermal)             CV                S
                      KCal/Mol        Cal/Mol-Kelvin    Cal/Mol-Kelvin
 Total                   92.564             45.754            111.324
 Electronic               0.000              0.000              0.000
 Translational            0.889              2.981             41.887
 Rotational               0.889              2.981             31.955
 Vibrational             90.786             39.793             37.482
 Vibration     1          0.593              1.984              6.010
 Vibration     2          0.598              1.968              4.142
 Vibration     3          0.603              1.952              3.545
 Vibration     4          0.616              1.911              2.769
 Vibration     5          0.618              1.903              2.673
 Vibration     6          0.624              1.884              2.476
 Vibration     7          0.649              1.805              1.928
 Vibration     8          0.650              1.801              1.911
 Vibration     9          0.708              1.628              1.290
 Vibration    10          0.721              1.593              1.205
 Vibration    11          0.725              1.582              1.181
 Vibration    12          0.735              1.552              1.117
 Vibration    13          0.799              1.387              0.832
 Vibration    14          0.848              1.266              0.676
 Vibration    15          0.861              1.236              0.643
 Vibration    16          0.913              1.122              0.528
 Vibration    17          0.928              1.092              0.501
 Vibration    18          0.956              1.035              0.453
 Vibration    19          0.965              1.018              0.438
 Vibration    20          0.979              0.992              0.418

 Optimization completed.
    -- Stationary point found.
 Normal termination of Gaussian 16 at Thu Dec 10 16:32:53 2020.

 ----------------------------------------------------------------------
 # B3LYP/6-311++G(d,p) empiricaldispersion=gd3bj scf=xqc pop=npa geom=c
 heck
 ----------------------------------------------------------------------

 ---------------------------------------
 CID_136394280_JID_5556_Energie_neutraal
 ---------------------------------------
 Structure from the checkpoint file:  "JID_5556.chk"
 Charge =  0 Multiplicity = 1

 SCF Done:  E(RB3LYP) =  -769.448457770     A.U. after   15 cycles
 Normal termination of Gaussian 16 at Thu Dec 10 16:35:35 2020.

 ----------------------------------------------------------------------
 # B3LYP/6-311++G(d,p) empiricaldispersion=gd3bj scf=xqc pop=npa geom=c
 heck
 ----------------------------------------------------------------------

 -------------------------------------
 CID_136394280_JID_5556_Energie_kation
 -------------------------------------
 Structure from the checkpoint file:  "JID_5556.chk"
 Charge =  1 Multiplicity = 2

 SCF Done:  E(UB3LYP) =  -769.142980551     A.U. after   22 cycles
 Normal termination of Gaussian 16 at Thu Dec 10 16:39:44 2020.
 Gaussian 16:  ES64L-G16RevA.03 25-Dec-2016

 ----------------------------------------------------------------------
 # B3LYP/6-311++G(d,p) empiricaldispersion=gd3bj scf=xqc pop=npa geom=c
 heck
 ----------------------------------------------------------------------

 ------------------------------------
 CID_136394280_JID_5556_Energie_anion
 ------------------------------------
 Structure from the checkpoint file:  "JID_5556.chk"
 Charge = -1 Multiplicity = 2

                         Standard orientation:
 ---------------------------------------------------------------------
 Center     Atomic      Atomic             Coordinates (Angstroms)
 Number     Number       Type             X           Y           Z
 ---------------------------------------------------------------------
      1          6           0       -1.347532   -1.540122    0.007697
      2          7           0       -0.204989   -2.150102    0.011521
      3          6           0        0.755383   -1.145910    0.009458
      4          6           0        0.174260    0.114502    0.003123
      5          7           0       -1.211778   -0.124990    0.002673
      6          6           0       -2.215033    0.847915    0.000113
      7          8           0       -2.003757    2.041636    0.003678
      8          6           0       -3.689945    0.407460   -0.007599
      9          8           0       -4.119089   -0.720291   -0.007067
     10          7           0        0.778441    1.320466    0.008927
     11          6           0        2.091719    1.237418   -0.003409
     12          7           0        2.775450    0.051720   -0.005884
     13          6           0        2.191756   -1.261206    0.000871
     14          8           0        2.913435   -2.240519   -0.008359
     15          7           0        2.829345    2.391323   -0.066879
     16          1           0       -2.323027   -1.996638    0.008546
     17          1           0       -4.339552    1.303680   -0.013006
     18          1           0        3.787051    0.044043   -0.076607
     19          1           0        2.278003    3.224240    0.096484
     20          1           0        3.743886    2.398800    0.364541
 ---------------------------------------------------------------------

 SCF Done:  E(UB3LYP) =  -769.506299183     A.U. after   23 cycles

 The electronic state is 2-A.
 Alpha  occ. eigenvalues --  -18.98354 -18.94867 -18.93461 -14.26629 -14.25438
 Alpha  occ. eigenvalues --  -14.24732 -14.19853 -14.18138 -10.19203 -10.17235
 Alpha  occ. eigenvalues --  -10.12284 -10.10619 -10.10267 -10.07830 -10.07307
 Alpha  occ. eigenvalues --   -0.94609  -0.91618  -0.90415  -0.88662  -0.87284
 Alpha  occ. eigenvalues --   -0.81598  -0.79823  -0.75817  -0.64734  -0.57153
 Alpha  occ. eigenvalues --   -0.55490  -0.52555  -0.49641  -0.48164  -0.44156
 Alpha  occ. eigenvalues --   -0.43110  -0.41534  -0.38972  -0.36759  -0.34937
 Alpha  occ. eigenvalues --   -0.32771  -0.32429  -0.31541  -0.30533  -0.29535
 Alpha  occ. eigenvalues --   -0.28996  -0.27171  -0.26365  -0.22460  -0.20854
 Alpha  occ. eigenvalues --   -0.20485  -0.19055  -0.16419  -0.15810  -0.15155
 Alpha  occ. eigenvalues --   -0.13622  -0.10218  -0.08710   0.01221
 Alpha virt. eigenvalues --    0.05133   0.08756   0.09109   0.10220   0.11124
 Alpha virt. eigenvalues --    0.11846   0.12724   0.13399   0.13975   0.14195
 Alpha virt. eigenvalues --    0.14842   0.16553   0.17324   0.17473   0.18293

  Beta  occ. eigenvalues --  -18.98353 -18.94273 -18.92729 -14.26595 -14.25426
  Beta  occ. eigenvalues --  -14.24819 -14.19887 -14.18142 -10.19124 -10.17234
  Beta  occ. eigenvalues --  -10.12160 -10.10372 -10.10182 -10.07556 -10.07285
  Beta  occ. eigenvalues --   -0.94567  -0.91322  -0.90103  -0.87741  -0.86446
  Beta  occ. eigenvalues --   -0.81558  -0.79776  -0.75686  -0.64613  -0.56768
  Beta  occ. eigenvalues --   -0.55419  -0.52044  -0.49512  -0.47343  -0.44096
  Beta  occ. eigenvalues --   -0.43007  -0.41472  -0.38789  -0.36508  -0.34857
  Beta  occ. eigenvalues --   -0.32531  -0.31883  -0.31335  -0.30374  -0.28916
  Beta  occ. eigenvalues --   -0.28757  -0.26411  -0.24053  -0.20798  -0.20453
  Beta  occ. eigenvalues --   -0.19599  -0.18836  -0.16408  -0.15118  -0.14402
  Beta  occ. eigenvalues --   -0.13050  -0.09884  -0.08057
  Beta virt. eigenvalues --    0.05118   0.08052   0.08872   0.10362   0.10861
  Beta virt. eigenvalues --    0.11441   0.11915   0.12728   0.13420   0.14190
  Beta virt. eigenvalues --    0.14684   0.14884   0.16565   0.17386   0.17731

 Mulliken charges and spin densities:
               1          2
     1  C    0.166395   0.062143
     2  N   -0.179682  -0.005662
     3  C    0.088817   0.026517
     4  C   -0.325402   0.066836
     5  N   -0.037389  -0.043405
     6  C    0.066989   0.206258
     7  O   -0.359557   0.250997
     8  C   -0.186219   0.227278
     9  O   -0.373558   0.199444
    10  N   -0.249915  -0.026812
    11  C    0.235118   0.035551
    12  N   -0.389669   0.015914
    13  C    0.060346  -0.002052
    14  O   -0.399793   0.000478
    15  N   -0.287660   0.006647
    16  H    0.268688  -0.006507
    17  H    0.079947  -0.020118
    18  H    0.321877  -0.001532
    19  H    0.288143  -0.000330
    20  H    0.212526   0.008354
 Sum of Mulliken charges =  -1.00000   1.00000

 Dipole moment (field-independent basis, Debye):
    X=              8.6089    Y=              4.3098    Z=              0.7537  Tot=              9.6569
 Quadrupole moment (field-independent basis, Debye-Ang):
   XX=           -122.3803   YY=           -114.8918   ZZ=            -88.7174
   XY=             19.6846   XZ=              2.7943   YZ=              2.4325

 Summary of Natural Population Analysis:

                                       Natural Population
                Natural  -----------------------------------------------
    Atom  No    Charge         Core      Valence    Rydberg      Total
 -----------------------------------------------------------------------
      C    1    0.14143      0.99966     1.84305    0.01586     2.85857
      N    2   -0.24203      0.99970     2.73146    0.01087     3.74203
      C    3   -0.02465      0.99938     2.01332    0.01195     3.02465
      C    4    0.21204      0.99945     1.77503    0.01348     2.78796
      N    5   -0.24345      0.99961     2.73214    0.01171     3.74345
      C    6    0.32006      0.99969     1.65826    0.02199     2.67994
      O    7   -0.20242      0.99988     3.19578    0.00677     4.20242
      C    8    0.21279      0.99975     1.76562    0.02184     2.78721
      O    9   -0.23276      0.99987     3.22449    0.00840     4.23276
      N   10   -0.27332      0.99963     2.76382    0.00987     3.77332
      C   11    0.31662      0.99966     1.66816    0.01556     2.68338
      N   12   -0.31035      0.99965     2.80346    0.00725     3.81035
      C   13    0.31971      0.99960     1.65803    0.02265     2.68029
      O   14   -0.32376      0.99987     3.31661    0.00728     4.32376
      N   15   -0.40104      0.99970     2.89275    0.00858     3.90104
      H   16    0.11285      0.00000     0.38583    0.00133     0.38715
      H   17    0.04100      0.00000     0.45576    0.00324     0.45900
      H   18    0.19399      0.00000     0.30299    0.00302     0.30601
      H   19    0.19960      0.00000     0.29881    0.00158     0.30040
      H   20    0.18370      0.00000     0.31472    0.00157     0.31630
 =======================================================================
   * Total *   -0.00000     14.99511    37.80009    0.20481    53.00000

 Normal termination of Gaussian 16 at Thu Dec 10 16:46:46 2020.
