 Gaussian 16, Revision A.03,

 -----------------------------------------------------------
 # opt freq B3LYP/6-31G(d) empiricaldispersion=gd3bj scf=xqc
 -----------------------------------------------------------

 ------------------------------
 CID_10261599_JID_3958_neutraal
 ------------------------------
 Symbolic Z-matrix:
 Charge =  0 Multiplicity = 1

 SCF Done:  E(RB3LYP) =  -553.160524058     A.U. after   15 cycles
 SCF Done:  E(RB3LYP) =  -553.164572205     A.U. after   13 cycles
 SCF Done:  E(RB3LYP) =  -553.165377802     A.U. after   12 cycles
 SCF Done:  E(RB3LYP) =  -553.165828814     A.U. after   13 cycles
 SCF Done:  E(RB3LYP) =  -553.165989511     A.U. after   12 cycles
 SCF Done:  E(RB3LYP) =  -553.166158657     A.U. after   12 cycles
 SCF Done:  E(RB3LYP) =  -553.166396985     A.U. after   13 cycles
 SCF Done:  E(RB3LYP) =  -553.165717719     A.U. after   15 cycles
 SCF Done:  E(RB3LYP) =  -553.159048789     A.U. after   14 cycles
 SCF Done:  E(RB3LYP) =  -553.159140012     A.U. after   13 cycles
 SCF Done:  E(RB3LYP) =  -553.169517039     A.U. after   11 cycles
 SCF Done:  E(RB3LYP) =  -553.169535595     A.U. after   10 cycles
 SCF Done:  E(RB3LYP) =  -553.169540481     A.U. after    9 cycles
 SCF Done:  E(RB3LYP) =  -553.169541641     A.U. after    9 cycles
 SCF Done:  E(RB3LYP) =  -553.169541758     A.U. after    8 cycles
 Optimization completed.
    -- Stationary point found.
 Normal termination of Gaussian 16 at Mon Dec 14 16:39:29 2020.

 --------------------------------------------------------------------
 #N Geom=AllCheck Guess=TCheck SCRF=Check GenChk RB3LYP/6-31G(d) Freq
 --------------------------------------------------------------------

 Structure from the checkpoint file:  "JID_3958.chk"
 ------------------------------
 CID_10261599_JID_3958_neutraal
 ------------------------------
 Charge =  0 Multiplicity = 1

 SCF Done:  E(RB3LYP) =  -553.169541758     A.U. after    1 cycles

  Exact polarizability: 141.603   8.119 136.517   4.713  15.267  83.151
 Approx polarizability: 215.035  15.317 233.158  12.226  42.190 120.302

                      1                      2                      3
                      A                      A                      A
 Frequencies --     48.5089                63.3085                91.4464
 Red. masses --      4.1319                 2.8320                 3.4641
 Frc consts  --      0.0057                 0.0067                 0.0171
 IR Inten    --      2.9681                 0.1157                 0.4162

                      4                      5                      6
                      A                      A                      A
 Frequencies --    111.1681               145.4596               153.2112
 Red. masses --      3.0620                 3.0281                 5.9217
 Frc consts  --      0.0223                 0.0377                 0.0819
 IR Inten    --      1.0402                 0.2426                 4.4434

                      7                      8                      9
                      A                      A                      A
 Frequencies --    201.3069               225.7030               248.7370
 Red. masses --      1.4610                 1.2965                 2.4081
 Frc consts  --      0.0349                 0.0389                 0.0878
 IR Inten    --      0.9424                 0.1579                 0.1244

                     10                     11                     12
                      A                      A                      A
 Frequencies --    281.6830               321.2629               368.2800
 Red. masses --      2.0986                 3.0298                 2.7332
 Frc consts  --      0.0981                 0.1842                 0.2184
 IR Inten    --      0.2516                 0.4851                 0.1413

                     13                     14                     15
                      A                      A                      A
 Frequencies --    404.5078               423.9518               474.6375
 Red. masses --      5.1746                 3.8592                 4.3768
 Frc consts  --      0.4989                 0.4087                 0.5809
 IR Inten    --      7.4320                 3.8905                 7.2602

                     16                     17                     18
                      A                      A                      A
 Frequencies --    497.1219               559.5845               572.8556
 Red. masses --      3.9273                 5.3554                 3.9621
 Frc consts  --      0.5718                 0.9880                 0.7661
 IR Inten    --      2.9133                 5.4484                 3.1847

                     19                     20                     21
                      A                      A                      A
 Frequencies --    601.0659               622.3086               696.8316
 Red. masses --      4.1239                 6.8706                 5.4675
 Frc consts  --      0.8778                 1.5677                 1.5642
 IR Inten    --      6.6412                 0.7105                 5.2625

                     22                     23                     24
                      A                      A                      A
 Frequencies --    781.5928               796.5714               815.4564
 Red. masses --      2.6227                 1.3306                 1.4551
 Frc consts  --      0.9440                 0.4974                 0.5701
 IR Inten    --      6.8654                 9.5943                 1.8430

                     25                     26                     27
                      A                      A                      A
 Frequencies --    825.7317               829.3307               917.9229
 Red. masses --      1.5828                 2.5041                 2.5973
 Frc consts  --      0.6359                 1.0147                 1.2894
 IR Inten    --     19.4726                 0.7844                 1.3387

                     28                     29                     30
                      A                      A                      A
 Frequencies --    938.8962               949.7047               988.2004
 Red. masses --      1.4242                 2.0659                 1.3227
 Frc consts  --      0.7397                 1.0979                 0.7610
 IR Inten    --      0.5382                 0.6914                 1.1858

                     31                     32                     33
                      A                      A                      A
 Frequencies --   1035.8233              1096.0874              1097.5769
 Red. masses --      3.4243                 1.9989                 2.2944
 Frc consts  --      2.1647                 1.4149                 1.6285
 IR Inten    --      8.6459                15.7582                 6.2688

                     34                     35                     36
                      A                      A                      A
 Frequencies --   1121.8077              1126.6544              1134.3550
 Red. masses --      1.8019                 1.9903                 2.3646
 Frc consts  --      1.3360                 1.4885                 1.7927
 IR Inten    --      9.1698                32.4805                32.1876

                     37                     38                     39
                      A                      A                      A
 Frequencies --   1195.6669              1210.7264              1231.8836
 Red. masses --      1.6097                 1.8277                 3.2397
 Frc consts  --      1.3558                 1.5785                 2.8967
 IR Inten    --      0.2722                19.7315                20.1714

                     40                     41                     42
                      A                      A                      A
 Frequencies --   1286.1899              1315.2618              1317.8711
 Red. masses --      1.9856                 3.2882                 1.7515
 Frc consts  --      1.9353                 3.3514                 1.7923
 IR Inten    --     45.2443                18.7644                46.7632

                     43                     44                     45
                      A                      A                      A
 Frequencies --   1337.3371              1378.6272              1410.4286
 Red. masses --      1.4042                 1.4487                 1.2812
 Frc consts  --      1.4796                 1.6222                 1.5016
 IR Inten    --     24.2700                55.1076                16.6229

                     46                     47                     48
                      A                      A                      A
 Frequencies --   1427.4167              1437.4176              1447.5829
 Red. masses --      1.3383                 1.2551                 1.3450
 Frc consts  --      1.6066                 1.5279                 1.6606
 IR Inten    --      0.4592                 9.2055                18.4503

                     49                     50                     51
                      A                      A                      A
 Frequencies --   1473.3018              1500.5143              1520.7602
 Red. masses --      2.8637                 2.1868                 1.0482
 Frc consts  --      3.6624                 2.9010                 1.4283
 IR Inten    --     27.5128                94.0008                 7.0298

                     52                     53                     54
                      A                      A                      A
 Frequencies --   1521.1636              1523.4827              1533.8004
 Red. masses --      1.0923                 1.0466                 1.0504
 Frc consts  --      1.4891                 1.4313                 1.4559
 IR Inten    --      3.4453                 2.5253                 0.1739

                     55                     56                     57
                      A                      A                      A
 Frequencies --   1537.2632              1555.4654              1604.4600
 Red. masses --      1.0716                 1.1223                 5.0478
 Frc consts  --      1.4920                 1.5998                 7.6561
 IR Inten    --      3.8649                 9.2142                 4.2367

                     58                     59                     60
                      A                      A                      A
 Frequencies --   1636.9219              2349.2768              2982.3278
 Red. masses --      5.7159                12.6875                 1.0737
 Frc consts  --      9.0238                41.2567                 5.6266
 IR Inten    --     35.9009                13.2227                55.3651

                     61                     62                     63
                      A                      A                      A
 Frequencies --   3052.5058              3063.9915              3077.8793
 Red. masses --      1.0352                 1.0357                 1.0730
 Frc consts  --      5.6829                 5.7286                 5.9889
 IR Inten    --     18.4069                18.9557                18.7362

                     64                     65                     66
                      A                      A                      A
 Frequencies --   3094.5909              3118.6245              3124.2205
 Red. masses --      1.0879                 1.1011                 1.1016
 Frc consts  --      6.1382                 6.3094                 6.3353
 IR Inten    --     18.3511                19.9372                34.0377

                     67                     68                     69
                      A                      A                      A
 Frequencies --   3132.9235              3142.3462              3162.6702
 Red. masses --      1.1012                 1.1033                 1.0957
 Frc consts  --      6.3684                 6.4190                 6.4573
 IR Inten    --     37.8886                22.0882                12.3460

                     70                     71                     72
                      A                      A                      A
 Frequencies --   3188.4203              3208.4094              3231.3821
 Red. masses --      1.0882                 1.0931                 1.0931
 Frc consts  --      6.5181                 6.6297                 6.7247
 IR Inten    --      8.2716                24.1311                 8.0538

 - Thermochemistry -
 -------------------
 Temperature   298.150 Kelvin.  Pressure   1.00000 Atm.
 Atom     1 has atomic number  6 and mass  12.00000

 Molecular mass:   175.11095 amu.
 Principal axes and moments of inertia in atomic units:
                           1         2         3
     Eigenvalues --  1916.799182507.946963234.33161
           X            0.99965   0.02643   0.00024
           Y           -0.02636   0.99762  -0.06366
           Z           -0.00192   0.06363   0.99797
 This molecule is an asymmetric top.
 Rotational symmetry number  1.
 Warning -- assumption of classical behavior for rotation
           may cause significant error
 Rotational temperatures (Kelvin)      0.04519     0.03454     0.02678
 Rotational constants (GHZ):           0.94154     0.71961     0.55800
 Zero-point vibrational energy     573619.9 (Joules/Mol)
                                  137.09846 (Kcal/Mol)
 Warning -- explicit consideration of  19 degrees of freedom as
           vibrations may cause significant error
 Vibrational temperatures:     69.79    91.09   131.57   159.95   209.28
          (Kelvin)            220.44   289.64   324.74   357.88   405.28
                              462.23   529.87   582.00   609.97   682.90
                              715.25   805.12   824.21   864.80   895.36
                             1002.59  1124.54  1146.09  1173.26  1188.04
                             1193.22  1320.69  1350.86  1366.41  1421.80
                             1490.32  1577.03  1579.17  1614.03  1621.00
                             1632.08  1720.30  1741.97  1772.41  1850.54
                             1892.37  1896.12  1924.13  1983.54  2029.29
                             2053.73  2068.12  2082.75  2119.75  2158.91
                             2188.03  2188.62  2191.95  2206.80  2211.78
                             2237.97  2308.46  2355.17  3380.09  4290.90
                             4391.87  4408.40  4428.38  4452.43  4487.01
                             4495.06  4507.58  4521.14  4550.38  4587.43
                             4616.19  4649.24

 Zero-point correction=                           0.218480 (Hartree/Particle)
 Thermal correction to Energy=                    0.231178
 Thermal correction to Enthalpy=                  0.232122
 Thermal correction to Gibbs Free Energy=         0.179232
 Sum of electronic and zero-point Energies=           -552.951061
 Sum of electronic and thermal Energies=              -552.938364
 Sum of electronic and thermal Enthalpies=            -552.937420
 Sum of electronic and thermal Free Energies=         -552.990309

                     E (Thermal)             CV                S
                      KCal/Mol        Cal/Mol-Kelvin    Cal/Mol-Kelvin
 Total                  145.066             47.313            111.315
 Electronic               0.000              0.000              0.000
 Translational            0.889              2.981             41.388
 Rotational               0.889              2.981             31.120
 Vibrational            143.289             41.352             38.807
 Vibration     1          0.595              1.978              4.877
 Vibration     2          0.597              1.972              4.351
 Vibration     3          0.602              1.955              3.629
 Vibration     4          0.607              1.940              3.248
 Vibration     5          0.617              1.908              2.731
 Vibration     6          0.619              1.899              2.632
 Vibration     7          0.638              1.838              2.121
 Vibration     8          0.650              1.802              1.913
 Vibration     9          0.662              1.765              1.740
 Vibration    10          0.681              1.708              1.523
 Vibration    11          0.707              1.633              1.304
 Vibration    12          0.741              1.537              1.087
 Vibration    13          0.770              1.460              0.946
 Vibration    14          0.786              1.418              0.879
 Vibration    15          0.831              1.306              0.725
 Vibration    16          0.853              1.256              0.665
 Vibration    17          0.915              1.119              0.525
 Vibration    18          0.929              1.090              0.499
 Vibration    19          0.959              1.030              0.448

 Optimization completed.
    -- Stationary point found.
 Normal termination of Gaussian 16 at Mon Dec 14 16:46:12 2020.

 ----------------------------------------------------------------------
 # B3LYP/6-311++G(d,p) empiricaldispersion=gd3bj scf=xqc pop=npa geom=c
 heck
 ----------------------------------------------------------------------

 --------------------------------------
 CID_10261599_JID_3958_Energie_neutraal
 --------------------------------------
 Structure from the checkpoint file:  "JID_3958.chk"
 Charge =  0 Multiplicity = 1

 SCF Done:  E(RB3LYP) =  -553.315687214     A.U. after   16 cycles
 Normal termination of Gaussian 16 at Mon Dec 14 16:49:15 2020.

 ----------------------------------------------------------------------
 # B3LYP/6-311++G(d,p) empiricaldispersion=gd3bj scf=xqc pop=npa geom=c
 heck
 ----------------------------------------------------------------------

 ------------------------------------
 CID_10261599_JID_3958_Energie_kation
 ------------------------------------
 Structure from the checkpoint file:  "JID_3958.chk"
 Charge =  1 Multiplicity = 2

 SCF Done:  E(UB3LYP) =  -553.021199260     A.U. after   23 cycles
 Normal termination of Gaussian 16 at Mon Dec 14 16:55:30 2020.
 Gaussian 16:  ES64L-G16RevA.03 25-Dec-2016

 ----------------------------------------------------------------------
 # B3LYP/6-311++G(d,p) empiricaldispersion=gd3bj scf=xqc pop=npa geom=c
 heck
 ----------------------------------------------------------------------

 -----------------------------------
 CID_10261599_JID_3958_Energie_anion
 -----------------------------------
 Structure from the checkpoint file:  "JID_3958.chk"
 Charge = -1 Multiplicity = 2

                         Standard orientation:
 ---------------------------------------------------------------------
 Center     Atomic      Atomic             Coordinates (Angstroms)
 Number     Number       Type             X           Y           Z
 ---------------------------------------------------------------------
      1          6           0        1.854727   -1.715449    1.756957
      2          6           0        2.135830   -0.981326    0.447041
      3          7           0        1.167441    0.087455    0.188951
      4          6           0        1.697101    1.206972   -0.612372
      5          6           0        1.991023    0.834796   -2.068508
      6          6           0       -0.165977   -0.277767   -0.024477
      7          6           0       -1.227723    0.636077    0.214405
      8          7           0       -2.525251    0.362437    0.009014
      9          6           0       -2.851586   -0.857402   -0.413393
     10          6           0       -1.899488   -1.854730   -0.637544
     11          6           0       -0.556068   -1.562742   -0.444614
     12          6           0       -0.958911    1.940420    0.761916
     13          7           0       -0.737483    2.987191    1.217211
     14          1           0        1.850937   -1.007245    2.590841
     15          1           0        2.627369   -2.470046    1.939183
     16          1           0        0.885588   -2.223014    1.742640
     17          1           0        3.114117   -0.495550    0.513684
     18          1           0        2.210213   -1.695903   -0.389543
     19          1           0        0.989960    2.035542   -0.574285
     20          1           0        2.606181    1.558275   -0.112806
     21          1           0        1.081884    0.483730   -2.569431
     22          1           0        2.363948    1.707857   -2.615242
     23          1           0        2.746833    0.045192   -2.141694
     24          1           0       -3.911477   -1.048766   -0.561460
     25          1           0       -2.206335   -2.841501   -0.971104
     26          1           0        0.194271   -2.321265   -0.633471
 ---------------------------------------------------------------------

 SCF Done:  E(UB3LYP) =  -553.324063949     A.U. after   33 cycles
 SCF Done:  E(UB3LYP) =  -553.324063949     a.u. after    1 cycles

 The electronic state is 2-A.
 Alpha  occ. eigenvalues --  -14.19565 -14.14054 -14.13659 -10.09045 -10.08119
 Alpha  occ. eigenvalues --  -10.07090 -10.05566 -10.05297 -10.05201 -10.04942
 Alpha  occ. eigenvalues --  -10.03780 -10.02542 -10.01444  -0.82188  -0.78448
 Alpha  occ. eigenvalues --   -0.73726  -0.65828  -0.65337  -0.63019  -0.59638
 Alpha  occ. eigenvalues --   -0.52583  -0.51916  -0.49299  -0.44881  -0.40570
 Alpha  occ. eigenvalues --   -0.37597  -0.36671  -0.35188  -0.32869  -0.32500
 Alpha  occ. eigenvalues --   -0.30706  -0.29451  -0.28320  -0.27100  -0.26256
 Alpha  occ. eigenvalues --   -0.25893  -0.25316  -0.24594  -0.23552  -0.23346
 Alpha  occ. eigenvalues --   -0.20539  -0.19227  -0.17055  -0.15881  -0.12822
 Alpha  occ. eigenvalues --   -0.10894  -0.07672   0.05077
 Alpha virt. eigenvalues --    0.07170   0.08552   0.09168   0.09867   0.10630
 Alpha virt. eigenvalues --    0.11359   0.12155   0.12247   0.12651   0.13398
 Alpha virt. eigenvalues --    0.14422   0.14501   0.14845   0.16157   0.16545

  Beta  occ. eigenvalues --  -14.19573 -14.13607 -14.13329 -10.09037 -10.08113
  Beta  occ. eigenvalues --  -10.07093 -10.05564 -10.05289 -10.05065 -10.04852
  Beta  occ. eigenvalues --  -10.03796 -10.02398 -10.01077  -0.82092  -0.77795
  Beta  occ. eigenvalues --   -0.73236  -0.65776  -0.64976  -0.62532  -0.59375
  Beta  occ. eigenvalues --   -0.52481  -0.51623  -0.48725  -0.44738  -0.40338
  Beta  occ. eigenvalues --   -0.37455  -0.36541  -0.35072  -0.32775  -0.32357
  Beta  occ. eigenvalues --   -0.30557  -0.29398  -0.28270  -0.26980  -0.25885
  Beta  occ. eigenvalues --   -0.25237  -0.25097  -0.24221  -0.23367  -0.23189
  Beta  occ. eigenvalues --   -0.20019  -0.17883  -0.16849  -0.15049  -0.10889
  Beta  occ. eigenvalues --   -0.10254  -0.06889
  Beta virt. eigenvalues --    0.07143   0.08457   0.09093   0.09914   0.10488
  Beta virt. eigenvalues --    0.11153   0.11545   0.12103   0.12480   0.12754
  Beta virt. eigenvalues --    0.13433   0.14345   0.14453   0.14784   0.16160

 Mulliken charges and spin densities:
               1          2
     1  C   -0.449528  -0.045306
     2  C    0.084911  -0.163630
     3  N    0.375568   0.029813
     4  C   -0.229814   0.044092
     5  C   -0.360303  -0.152681
     6  C    0.404701  -0.013424
     7  C   -0.541995   0.350408
     8  N   -0.034657   0.209900
     9  C    0.087305  -0.129765
    10  C   -0.404954   0.282686
    11  C    0.225056   0.040788
    12  C   -0.925059  -0.115412
    13  N   -0.387930   0.179412
    14  H    0.138982   0.001987
    15  H    0.092853   0.024673
    16  H    0.137983   0.010605
    17  H    0.113533   0.007956
    18  H   -0.052529   0.134614
    19  H    0.102788   0.028819
    20  H    0.142632  -0.018363
    21  H    0.161475   0.001939
    22  H    0.094814   0.031468
    23  H    0.021872   0.106167
    24  H    0.126655   0.009987
    25  H    0.051263   0.037584
    26  H    0.024380   0.105682
 Sum of Mulliken charges =  -1.00000   1.00000

 Dipole moment (field-independent basis, Debye):
    X=              5.6817    Y=             -4.3369    Z=             -1.8279  Tot=              7.3778
 Quadrupole moment (field-independent basis, Debye-Ang):
   XX=           -102.5797   YY=           -113.7432   ZZ=            -94.2461
   XY=              6.1673   XZ=              3.8365   YZ=             -9.8568

 Summary of Natural Population Analysis:

                                       Natural Population
                Natural  -----------------------------------------------
    Atom  No    Charge         Core      Valence    Rydberg      Total
 -----------------------------------------------------------------------
      C    1   -0.29002      0.99966     2.28583    0.00453     3.29002
      C    2   -0.08400      0.99963     2.07270    0.01167     3.08400
      N    3   -0.26931      0.99966     2.75708    0.01257     3.76931
      C    4   -0.08115      0.99962     2.07081    0.01073     3.08115
      C    5   -0.29675      0.99967     2.29283    0.00425     3.29675
      C    6    0.08873      0.99946     1.89928    0.01253     2.91127
      C    7    0.06916      0.99940     1.91733    0.01411     2.93084
      N    8   -0.15909      0.99968     2.64785    0.01156     3.65909
      C    9   -0.01728      0.99960     2.00364    0.01404     3.01728
      C   10   -0.05364      0.99957     2.04497    0.00911     3.05364
      C   11   -0.10097      0.99953     2.09061    0.01084     3.10097
      C   12    0.14249      0.99964     1.83755    0.02032     2.85751
      N   13   -0.16550      0.99978     2.65457    0.01114     3.66550
      H   14    0.10008      0.00000     0.39884    0.00108     0.39992
      H   15    0.09124      0.00000     0.40799    0.00077     0.40876
      H   16    0.10633      0.00000     0.39243    0.00124     0.39367
      H   17    0.09039      0.00000     0.40849    0.00112     0.40961
      H   18    0.08223      0.00000     0.41560    0.00217     0.41777
      H   19    0.11078      0.00000     0.38763    0.00159     0.38922
      H   20    0.08621      0.00000     0.41279    0.00100     0.41379
      H   21    0.10449      0.00000     0.39460    0.00091     0.39551
      H   22    0.09402      0.00000     0.40497    0.00101     0.40598
      H   23    0.09214      0.00000     0.40669    0.00116     0.40786
      H   24    0.07942      0.00000     0.41933    0.00124     0.42058
      H   25    0.08823      0.00000     0.41071    0.00106     0.41177
      H   26    0.09178      0.00000     0.40636    0.00186     0.40822
 =======================================================================
   * Total *    0.00000     12.99489    33.84149    0.16362    47.00000

 Normal termination of Gaussian 16 at Mon Dec 14 17:04:20 2020.
