 Gaussian 16, Revision A.03,

 -----------------------------------------------------------
 # opt freq B3LYP/6-31G(d) empiricaldispersion=gd3bj scf=xqc
 -----------------------------------------------------------

 -------------------------------
 CID_130928178_JID_2490_neutraal
 -------------------------------
 Symbolic Z-matrix:
 Charge =  0 Multiplicity = 1

 SCF Done:  E(RB3LYP) =  -537.330337070     A.U. after   14 cycles
 SCF Done:  E(RB3LYP) =  -537.333496474     A.U. after   11 cycles
 SCF Done:  E(RB3LYP) =  -537.333767666     A.U. after   10 cycles
 SCF Done:  E(RB3LYP) =  -537.333862310     A.U. after   10 cycles
 SCF Done:  E(RB3LYP) =  -537.333958311     A.U. after    9 cycles
 SCF Done:  E(RB3LYP) =  -537.334088190     A.U. after   10 cycles
 SCF Done:  E(RB3LYP) =  -537.334135604     A.U. after   10 cycles
 SCF Done:  E(RB3LYP) =  -537.334142050     A.U. after    9 cycles
 SCF Done:  E(RB3LYP) =  -537.334143796     A.U. after    8 cycles
 SCF Done:  E(RB3LYP) =  -537.334144067     A.U. after    7 cycles
 SCF Done:  E(RB3LYP) =  -537.334144161     A.U. after    7 cycles
 SCF Done:  E(RB3LYP) =  -537.334144185     A.U. after    6 cycles
 Optimization completed.
    -- Stationary point found.
 Normal termination of Gaussian 16 at Wed Dec  9 17:25:50 2020.

 --------------------------------------------------------------------
 #N Geom=AllCheck Guess=TCheck SCRF=Check GenChk RB3LYP/6-31G(d) Freq
 --------------------------------------------------------------------

 Structure from the checkpoint file:  "JID_2490.chk"
 -------------------------------
 CID_130928178_JID_2490_neutraal
 -------------------------------
 Charge =  0 Multiplicity = 1

 SCF Done:  E(RB3LYP) =  -537.334144185     A.U. after    1 cycles

  Exact polarizability: 122.053   0.592 107.078  -1.739   5.663  87.239
 Approx polarizability: 150.963   7.155 160.002  -0.684  13.648 131.960

                      1                      2                      3
                      A                      A                      A
 Frequencies --     55.3662                64.8422                99.2149
 Red. masses --      3.2309                 3.7484                 3.0299
 Frc consts  --      0.0058                 0.0093                 0.0176
 IR Inten    --      0.2932                 1.4001                 0.3295

                      4                      5                      6
                      A                      A                      A
 Frequencies --    132.7904               157.9691               172.6037
 Red. masses --      2.4942                 1.4304                 2.5149
 Frc consts  --      0.0259                 0.0210                 0.0441
 IR Inten    --      1.0510                 1.7317                 2.3698

                      7                      8                      9
                      A                      A                      A
 Frequencies --    181.1705               204.0659               249.8310
 Red. masses --      2.4134                 2.1434                 1.3322
 Frc consts  --      0.0467                 0.0526                 0.0490
 IR Inten    --      0.2863                 0.3433                 0.7836

                     10                     11                     12
                      A                      A                      A
 Frequencies --    258.8771               293.4996               317.5514
 Red. masses --      2.0008                 2.1807                 3.6211
 Frc consts  --      0.0790                 0.1107                 0.2151
 IR Inten    --      3.7826                 1.9514                 5.7860

                     13                     14                     15
                      A                      A                      A
 Frequencies --    336.1380               425.2347               470.8597
 Red. masses --      3.1779                 3.4861                 3.5661
 Frc consts  --      0.2116                 0.3714                 0.4658
 IR Inten    --      0.5557                 9.5354                 9.5607

                     16                     17                     18
                      A                      A                      A
 Frequencies --    531.2558               591.3074               637.6581
 Red. masses --      3.2188                 3.4349                 3.2699
 Frc consts  --      0.5352                 0.7076                 0.7834
 IR Inten    --      3.2922                14.1179                 3.5206

                     19                     20                     21
                      A                      A                      A
 Frequencies --    671.0109               771.1846               806.3532
 Red. masses --      5.1553                 1.4020                 2.7852
 Frc consts  --      1.3676                 0.4913                 1.0670
 IR Inten    --      6.9402                 0.1925                 1.1229

                     22                     23                     24
                      A                      A                      A
 Frequencies --    828.2005               837.0953               891.8549
 Red. masses --      1.3982                 1.2665                 4.2968
 Frc consts  --      0.5651                 0.5229                 2.0136
 IR Inten    --      0.5970                 8.8565                 9.6012

                     25                     26                     27
                      A                      A                      A
 Frequencies --    939.5309               949.7426               996.7579
 Red. masses --      3.7735                 2.6657                 1.3540
 Frc consts  --      1.9625                 1.4167                 0.7926
 IR Inten    --      3.5968                15.5728                 5.6752

                     28                     29                     30
                      A                      A                      A
 Frequencies --   1031.5589              1039.1230              1052.7093
 Red. masses --      2.0454                 1.9459                 1.6913
 Frc consts  --      1.2824                 1.2379                 1.1043
 IR Inten    --      9.4498                 3.6435                 6.3350

                     31                     32                     33
                      A                      A                      A
 Frequencies --   1069.5636              1088.1880              1106.1343
 Red. masses --      1.3741                 1.3930                 2.3487
 Frc consts  --      0.9261                 0.9719                 1.6931
 IR Inten    --      6.8367                 1.7632                 6.9190

                     34                     35                     36
                      A                      A                      A
 Frequencies --   1125.0199              1144.4514              1148.7623
 Red. masses --      1.6223                 1.1247                 2.2375
 Frc consts  --      1.2098                 0.8679                 1.7397
 IR Inten    --      0.6670                 1.3530                29.4338

                     37                     38                     39
                      A                      A                      A
 Frequencies --   1166.8435              1185.5599              1201.8702
 Red. masses --      1.4000                 2.3424                 1.2787
 Frc consts  --      1.1231                 1.9398                 1.0882
 IR Inten    --      9.6285                39.0797                 7.6712

                     40                     41                     42
                      A                      A                      A
 Frequencies --   1212.2760              1215.5499              1233.6646
 Red. masses --      1.4003                 1.5040                 1.7712
 Frc consts  --      1.2125                 1.3094                 1.5882
 IR Inten    --      7.7426                22.7570                 7.9461

                     43                     44                     45
                      A                      A                      A
 Frequencies --   1239.7984              1241.5755              1317.5372
 Red. masses --      2.4530                 1.9117                 1.6296
 Frc consts  --      2.2215                 1.7362                 1.6667
 IR Inten    --     21.9904                21.2130                38.9191

                     46                     47                     48
                      A                      A                      A
 Frequencies --   1334.2600              1339.7850              1385.5147
 Red. masses --      2.2924                 1.5611                 2.3727
 Frc consts  --      2.4045                 1.6511                 2.6836
 IR Inten    --      8.9674                12.9551                83.3928

                     49                     50                     51
                      A                      A                      A
 Frequencies --   1402.9659              1431.9679              1443.8458
 Red. masses --      1.5378                 1.3495                 1.3815
 Frc consts  --      1.7833                 1.6304                 1.6969
 IR Inten    --      1.7853                 8.0271                20.4880

                     52                     53                     54
                      A                      A                      A
 Frequencies --   1458.4679              1488.6669              1496.2589
 Red. masses --      1.2759                 1.7811                 1.0886
 Frc consts  --      1.5990                 2.3256                 1.4359
 IR Inten    --     25.1231               116.4720                 1.4556

                     55                     56                     57
                      A                      A                      A
 Frequencies --   1521.2621              1524.1588              1531.1530
 Red. masses --      1.0448                 1.0463                 1.1014
 Frc consts  --      1.4246                 1.4321                 1.5214
 IR Inten    --      9.2517                 5.9210                 0.2034

                     58                     59                     60
                      A                      A                      A
 Frequencies --   1532.7388              1536.8158              1548.0538
 Red. masses --      1.0911                 1.2765                 1.1902
 Frc consts  --      1.5103                 1.7763                 1.6805
 IR Inten    --     13.2285                 1.3006                17.4741

                     61                     62                     63
                      A                      A                      A
 Frequencies --   1583.0052              1825.9989              2901.3901
 Red. masses --      1.1037                11.1587                 1.0747
 Frc consts  --      1.6296                21.9212                 5.3305
 IR Inten    --      3.0948               401.9810                92.8373

                     64                     65                     66
                      A                      A                      A
 Frequencies --   2998.1092              3015.9217              3029.0145
 Red. masses --      1.0694                 1.0844                 1.0625
 Frc consts  --      5.6635                 5.8113                 5.7437
 IR Inten    --     35.6126                25.0360                29.8593

                     67                     68                     69
                      A                      A                      A
 Frequencies --   3034.4573              3055.6515              3081.6433
 Red. masses --      1.0593                 1.0380                 1.1037
 Frc consts  --      5.7467                 5.7100                 6.1753
 IR Inten    --     76.2615                29.0403                36.0795

                     70                     71                     72
                      A                      A                      A
 Frequencies --   3088.3273              3120.7412              3140.0321
 Red. masses --      1.0916                 1.0994                 1.0677
 Frc consts  --      6.1343                 6.3087                 6.2026
 IR Inten    --     22.9185                26.6635                 9.9228

                     73                     74                     75
                      A                      A                      A
 Frequencies --   3141.3605              3143.9676              3148.5441
 Red. masses --      1.0857                 1.0612                 1.0858
 Frc consts  --      6.3121                 6.1805                 6.3421
 IR Inten    --     34.3295                23.0746                 8.8835

                     76                     77                     78
                      A                      A                      A
 Frequencies --   3164.1413              3215.1745              3229.3190
 Red. masses --      1.0981                 1.1187                 1.1156
 Frc consts  --      6.4774                 6.8134                 6.8546
 IR Inten    --      1.6415                 0.3904                24.2464

 - Thermochemistry -
 -------------------
 Temperature   298.150 Kelvin.  Pressure   1.00000 Atm.
 Atom     1 has atomic number  6 and mass  12.00000

 Molecular mass:   168.12626 amu.
 Principal axes and moments of inertia in atomic units:
                           1         2         3
     Eigenvalues --  1043.083593237.965293750.73852
           X            0.99978  -0.01842  -0.00999
           Y            0.01842   0.99983   0.00027
           Z            0.00998  -0.00045   0.99995
 This molecule is an asymmetric top.
 Rotational symmetry number  1.
 Warning -- assumption of classical behavior for rotation
           may cause significant error
 Rotational temperatures (Kelvin)      0.08304     0.02675     0.02309
 Rotational constants (GHZ):           1.73020     0.55737     0.48117
 Zero-point vibrational energy     649481.7 (Joules/Mol)
                                  155.22986 (Kcal/Mol)
 Warning -- explicit consideration of  17 degrees of freedom as
           vibrations may cause significant error
 Vibrational temperatures:     79.66    93.29   142.75   191.06   227.28
          (Kelvin)            248.34   260.66   293.61   359.45   372.47
                              422.28   456.89   483.63   611.82   677.46
                              764.36   850.76   917.45   965.44  1109.56
                             1160.16  1191.60  1204.39  1283.18  1351.78
                             1366.47  1434.11  1484.18  1495.07  1514.61
                             1538.86  1565.66  1591.48  1618.65  1646.61
                             1652.81  1678.83  1705.76  1729.22  1744.19
                             1748.91  1774.97  1783.79  1786.35  1895.64
                             1919.70  1927.65  1993.45  2018.56  2060.28
                             2077.37  2098.41  2141.86  2152.78  2188.76
                             2192.92  2202.99  2205.27  2211.14  2227.30
                             2277.59  2627.21  4174.45  4313.61  4339.24
                             4358.08  4365.91  4396.40  4433.80  4443.41
                             4490.05  4517.81  4519.72  4523.47  4530.05
                             4552.49  4625.92  4646.27

 Zero-point correction=                           0.247375 (Hartree/Particle)
 Thermal correction to Energy=                    0.259910
 Thermal correction to Enthalpy=                  0.260854
 Thermal correction to Gibbs Free Energy=         0.208541
 Sum of electronic and zero-point Energies=           -537.086770
 Sum of electronic and thermal Energies=              -537.074234
 Sum of electronic and thermal Enthalpies=            -537.073290
 Sum of electronic and thermal Free Energies=         -537.125603

                     E (Thermal)             CV                S
                      KCal/Mol        Cal/Mol-Kelvin    Cal/Mol-Kelvin
 Total                  163.096             46.527            110.102
 Electronic               0.000              0.000              0.000
 Translational            0.889              2.981             41.267
 Rotational               0.889              2.981             30.916
 Vibrational            161.318             40.565             37.919
 Vibration     1          0.596              1.975              4.616
 Vibration     2          0.597              1.971              4.304
 Vibration     3          0.604              1.950              3.470
 Vibration     4          0.613              1.921              2.905
 Vibration     5          0.621              1.894              2.574
 Vibration     6          0.626              1.876              2.407
 Vibration     7          0.630              1.865              2.316
 Vibration     8          0.640              1.834              2.096
 Vibration     9          0.663              1.763              1.732
 Vibration    10          0.668              1.748              1.669
 Vibration    11          0.688              1.686              1.454
 Vibration    12          0.704              1.640              1.323
 Vibration    13          0.717              1.603              1.230
 Vibration    14          0.787              1.415              0.874
 Vibration    15          0.828              1.315              0.735
 Vibration    16          0.886              1.181              0.584
 Vibration    17          0.949              1.050              0.465

 Optimization completed.
    -- Stationary point found.
 Normal termination of Gaussian 16 at Wed Dec  9 17:32:52 2020.

 ----------------------------------------------------------------------
 # B3LYP/6-311++G(d,p) empiricaldispersion=gd3bj scf=xqc pop=npa geom=c
 heck
 ----------------------------------------------------------------------

 ---------------------------------------
 CID_130928178_JID_2490_Energie_neutraal
 ---------------------------------------
 Structure from the checkpoint file:  "JID_2490.chk"
 Charge =  0 Multiplicity = 1

 SCF Done:  E(RB3LYP) =  -537.485815054     A.U. after   14 cycles
 Normal termination of Gaussian 16 at Wed Dec  9 17:35:15 2020.

 ----------------------------------------------------------------------
 # B3LYP/6-311++G(d,p) empiricaldispersion=gd3bj scf=xqc pop=npa geom=c
 heck
 ----------------------------------------------------------------------

 -------------------------------------
 CID_130928178_JID_2490_Energie_kation
 -------------------------------------
 Structure from the checkpoint file:  "JID_2490.chk"
 Charge =  1 Multiplicity = 2

 SCF Done:  E(UB3LYP) =  -537.187559022     A.U. after   25 cycles
 Normal termination of Gaussian 16 at Wed Dec  9 17:41:31 2020.
 Gaussian 16:  ES64L-G16RevA.03 25-Dec-2016

 ----------------------------------------------------------------------
 # B3LYP/6-311++G(d,p) empiricaldispersion=gd3bj scf=xqc pop=npa geom=c
 heck
 ----------------------------------------------------------------------

 ------------------------------------
 CID_130928178_JID_2490_Energie_anion
 ------------------------------------
 Structure from the checkpoint file:  "JID_2490.chk"
 Charge = -1 Multiplicity = 2

                         Standard orientation:
 ---------------------------------------------------------------------
 Center     Atomic      Atomic             Coordinates (Angstroms)
 Number     Number       Type             X           Y           Z
 ---------------------------------------------------------------------
      1          6           0        1.814502    1.988138   -0.684247
      2          6           0        1.433037    0.506083   -0.604719
      3          6           0        2.077578   -0.162215    0.605178
      4          6           0        2.517702   -1.605842    0.548877
      5          6           0        3.546204   -0.504259    0.560447
      6          7           0       -0.022194    0.363397   -0.687878
      7          6           0       -0.559830   -0.990369   -0.764747
      8          6           0       -2.008060   -0.831347   -0.317458
      9          8           0       -2.914108   -1.640675   -0.427984
     10          7           0       -2.083895    0.397886    0.277961
     11          6           0       -0.816574    1.094942    0.296002
     12          6           0       -3.267171    0.898256    0.932942
     13          1           0        1.509697    2.528873    0.219545
     14          1           0        1.336694    2.461960   -1.547438
     15          1           0        2.899148    2.093584   -0.776625
     16          1           0        1.830217    0.008312   -1.501611
     17          1           0        1.705118    0.187383    1.566856
     18          1           0        2.402532   -2.219398    1.438009
     19          1           0        2.370312   -2.145228   -0.383511
     20          1           0        4.082139   -0.303304   -0.364550
     21          1           0        4.141209   -0.356691    1.456877
     22          1           0       -0.503448   -1.394786   -1.781142
     23          1           0       -0.074128   -1.709642   -0.084888
     24          1           0       -0.389869    1.086036    1.320161
     25          1           0       -0.943605    2.145698    0.001369
     26          1           0       -4.058721    0.162271    0.779390
     27          1           0       -3.100394    1.030059    2.010510
     28          1           0       -3.575746    1.860966    0.506686
 ---------------------------------------------------------------------

 SCF Done:  E(UB3LYP) =  -537.472755923     A.U. after   32 cycles

 The electronic state is 2-A.
 Alpha  occ. eigenvalues --  -18.99134 -14.24545 -14.21344 -10.17156 -10.13310
 Alpha  occ. eigenvalues --  -10.11163 -10.10549 -10.10118 -10.08039 -10.07933
 Alpha  occ. eigenvalues --  -10.07704 -10.06117  -0.94523  -0.87890  -0.80753
 Alpha  occ. eigenvalues --   -0.76331  -0.67643  -0.63192  -0.61484  -0.55468
 Alpha  occ. eigenvalues --   -0.52370  -0.50946  -0.48019  -0.44381  -0.42305
 Alpha  occ. eigenvalues --   -0.40476  -0.39156  -0.37990  -0.36251  -0.34588
 Alpha  occ. eigenvalues --   -0.33621  -0.33326  -0.31712  -0.30657  -0.30267
 Alpha  occ. eigenvalues --   -0.29077  -0.27982  -0.27570  -0.27220  -0.26276
 Alpha  occ. eigenvalues --   -0.24631  -0.20841  -0.19523  -0.16282  -0.14998
 Alpha  occ. eigenvalues --   -0.12185   0.04422
 Alpha virt. eigenvalues --    0.06517   0.07201   0.07668   0.08680   0.09177
 Alpha virt. eigenvalues --    0.10020   0.10256   0.10706   0.11461   0.11732
 Alpha virt. eigenvalues --    0.12166   0.12494   0.13453   0.14005   0.14661

  Beta  occ. eigenvalues --  -18.99131 -14.24546 -14.21338 -10.17154 -10.13270
  Beta  occ. eigenvalues --  -10.11156 -10.10546 -10.10072 -10.08023 -10.07922
  Beta  occ. eigenvalues --  -10.07679 -10.06087  -0.94519  -0.87877  -0.80736
  Beta  occ. eigenvalues --   -0.76306  -0.67619  -0.63150  -0.61430  -0.55413
  Beta  occ. eigenvalues --   -0.52331  -0.50892  -0.47972  -0.44328  -0.42259
  Beta  occ. eigenvalues --   -0.40448  -0.39101  -0.37951  -0.36213  -0.34567
  Beta  occ. eigenvalues --   -0.33584  -0.33301  -0.31672  -0.30620  -0.30242
  Beta  occ. eigenvalues --   -0.29032  -0.27952  -0.27541  -0.27198  -0.26250
  Beta  occ. eigenvalues --   -0.24598  -0.20813  -0.19497  -0.16276  -0.14980
  Beta  occ. eigenvalues --   -0.12153
  Beta virt. eigenvalues --    0.06746   0.07495   0.07910   0.08106   0.09173
  Beta virt. eigenvalues --    0.09971   0.10401   0.10831   0.11032   0.11756
  Beta virt. eigenvalues --    0.11996   0.12562   0.12888   0.13743   0.14229

 Mulliken charges and spin densities:
               1          2
     1  C    1.171224  -1.904940
     2  C   -1.113597   0.756264
     3  C   -0.695360   1.053058
     4  C    0.273120  -0.661728
     5  C    0.820313  -1.355055
     6  N    0.046251   0.092490
     7  C   -0.042227  -0.186771
     8  C   -0.191664   0.266995
     9  O   -0.386131  -0.003411
    10  N   -0.245292   0.191973
    11  C    0.519670  -0.877720
    12  C    1.252088  -1.493720
    13  H   -0.349365   0.517648
    14  H    0.001568   0.158952
    15  H   -0.259213   0.408366
    16  H   -0.180215   0.370260
    17  H   -0.442735   0.665809
    18  H   -0.104654   0.256995
    19  H    0.142181  -0.007891
    20  H   -0.051041   0.171893
    21  H   -0.294439   0.455725
    22  H    0.069387   0.108010
    23  H    0.192082   0.015792
    24  H   -0.036363   0.218710
    25  H   -0.281781   0.473783
    26  H    0.069643   0.106099
    27  H   -0.466057   0.630163
    28  H   -0.417395   0.572252
 Sum of Mulliken charges =  -1.00000   1.00000

 Dipole moment (field-independent basis, Debye):
    X=              0.9116    Y=             -3.5929    Z=             -3.5470  Tot=              5.1304
 Quadrupole moment (field-independent basis, Debye-Ang):
   XX=           -144.5510   YY=           -120.0950   ZZ=           -112.7391
   XY=             -3.3195   XZ=             -3.3530   YZ=             -3.5909

 Summary of Natural Population Analysis:

                                       Natural Population
                Natural  -----------------------------------------------
    Atom  No    Charge         Core      Valence    Rydberg      Total
 -----------------------------------------------------------------------
      C    1   -0.28772      0.99964     2.28208    0.00600     3.28772
      C    2   -0.00174      0.99957     1.98799    0.01418     3.00174
      C    3   -0.12656      0.99956     2.11511    0.01190     3.12656
      C    4   -0.20028      0.99962     2.19225    0.00841     3.20028
      C    5   -0.19654      0.99961     2.18726    0.00967     3.19654
      N    6   -0.28175      0.99971     2.76918    0.01286     3.78175
      C    7   -0.11925      0.99958     2.11091    0.00875     3.11925
      C    8    0.34619      0.99964     1.63148    0.02269     2.65381
      O    9   -0.32741      0.99987     3.32197    0.00556     4.32741
      N   10   -0.25100      0.99964     2.74081    0.01055     3.75100
      C   11    0.02642      0.99961     1.96123    0.01273     2.97358
      C   12   -0.17849      0.99964     2.17044    0.00841     3.17849
      H   13    0.10158      0.00000     0.39687    0.00155     0.39842
      H   14    0.10290      0.00000     0.39593    0.00117     0.39710
      H   15    0.10328      0.00000     0.39567    0.00104     0.39672
      H   16    0.09260      0.00000     0.40534    0.00207     0.40740
      H   17    0.10874      0.00000     0.38900    0.00226     0.39126
      H   18    0.10378      0.00000     0.39534    0.00089     0.39622
      H   19    0.09836      0.00000     0.40057    0.00106     0.40164
      H   20    0.09980      0.00000     0.39916    0.00104     0.40020
      H   21    0.10576      0.00000     0.39285    0.00140     0.39424
      H   22    0.10117      0.00000     0.39744    0.00139     0.39883
      H   23    0.09813      0.00000     0.40016    0.00171     0.40187
      H   24    0.08177      0.00000     0.41541    0.00283     0.41823
      H   25    0.09470      0.00000     0.40285    0.00245     0.40530
      H   26    0.11096      0.00000     0.38783    0.00121     0.38904
      H   27    0.09778      0.00000     0.40032    0.00190     0.40222
      H   28    0.09685      0.00000     0.40155    0.00160     0.40315
 =======================================================================
   * Total *    0.00000     11.99570    33.84700    0.15730    46.00000

 Normal termination of Gaussian 16 at Wed Dec  9 17:50:03 2020.
