 Gaussian 16, Revision A.03,

 -----------------------------------------------------------
 # opt freq B3LYP/6-31G(d) empiricaldispersion=gd3bj scf=xqc
 -----------------------------------------------------------

 ------------------------------
 CID_129911048_JID_670_neutraal
 ------------------------------
 Symbolic Z-matrix:
 Charge =  0 Multiplicity = 1

 SCF Done:  E(RB3LYP) =  -511.845352770     A.U. after   14 cycles
 SCF Done:  E(RB3LYP) =  -511.851946928     A.U. after   12 cycles
 SCF Done:  E(RB3LYP) =  -511.852682381     A.U. after   12 cycles
 SCF Done:  E(RB3LYP) =  -511.852865533     A.U. after   11 cycles
 SCF Done:  E(RB3LYP) =  -511.852932259     A.U. after   11 cycles
 SCF Done:  E(RB3LYP) =  -511.852981109     A.U. after   10 cycles
 SCF Done:  E(RB3LYP) =  -511.853024985     A.U. after   10 cycles
 SCF Done:  E(RB3LYP) =  -511.853037888     A.U. after    9 cycles
 SCF Done:  E(RB3LYP) =  -511.853043675     A.U. after    8 cycles
 SCF Done:  E(RB3LYP) =  -511.853044883     A.U. after    8 cycles
 SCF Done:  E(RB3LYP) =  -511.853045107     A.U. after    7 cycles
 Optimization completed.
    -- Stationary point found.
 Normal termination of Gaussian 16 at Tue Dec  8 12:24:59 2020.

 --------------------------------------------------------------------
 #N Geom=AllCheck Guess=TCheck SCRF=Check GenChk RB3LYP/6-31G(d) Freq
 --------------------------------------------------------------------

 Structure from the checkpoint file:  "JID_670.chk"
 ------------------------------
 CID_129911048_JID_670_neutraal
 ------------------------------
 Charge =  0 Multiplicity = 1

 SCF Done:  E(RB3LYP) =  -511.853045107     A.U. after    1 cycles

  Exact polarizability:  87.071   1.344  81.194   1.536  -2.822  60.775
 Approx polarizability: 116.619  -1.363 118.564   4.411  -7.505  88.536

                      1                      2                      3
                      A                      A                      A
 Frequencies --     94.0905               111.5531               126.4539
 Red. masses --      4.6251                 5.1893                 4.1269
 Frc consts  --      0.0241                 0.0380                 0.0389
 IR Inten    --      0.2528                 0.0555                 0.4421

                      4                      5                      6
                      A                      A                      A
 Frequencies --    183.1455               204.7540               230.6839
 Red. masses --      2.7219                 3.0906                 1.4053
 Frc consts  --      0.0538                 0.0763                 0.0441
 IR Inten    --      0.0768                 6.2236                 1.6377

                      7                      8                      9
                      A                      A                      A
 Frequencies --    302.1546               331.7626               353.1175
 Red. masses --      1.6640                 1.5986                 2.7968
 Frc consts  --      0.0895                 0.1037                 0.2055
 IR Inten    --     30.7565                64.9359                 9.2948

                     10                     11                     12
                      A                      A                      A
 Frequencies --    384.8300               477.1890               515.4876
 Red. masses --      3.5844                 4.9358                 1.6598
 Frc consts  --      0.3128                 0.6622                 0.2599
 IR Inten    --      0.4908                14.1190                60.0813

                     13                     14                     15
                      A                      A                      A
 Frequencies --    529.6931               552.3773               637.9185
 Red. masses --      3.2595                 2.2178                 2.8423
 Frc consts  --      0.5388                 0.3987                 0.6815
 IR Inten    --     15.0884                28.1549                19.6558

                     16                     17                     18
                      A                      A                      A
 Frequencies --    651.4789               760.8008               788.8935
 Red. masses --      1.3483                 9.4468                 3.3926
 Frc consts  --      0.3372                 3.2216                 1.2440
 IR Inten    --    123.1675                52.9371                22.5313

                     19                     20                     21
                      A                      A                      A
 Frequencies --    823.9986               895.3341               925.0519
 Red. masses --      2.5453                 2.5158                 3.2094
 Frc consts  --      1.0182                 1.1882                 1.6181
 IR Inten    --      1.8034                43.3932                20.0220

                     22                     23                     24
                      A                      A                      A
 Frequencies --    936.2897               993.5756              1040.0657
 Red. masses --      2.9406                 1.7921                 2.0025
 Frc consts  --      1.5188                 1.0423                 1.2763
 IR Inten    --     11.4944                 3.0843                63.6823

                     25                     26                     27
                      A                      A                      A
 Frequencies --   1052.4585              1074.1187              1124.0073
 Red. masses --      1.8389                 1.8610                 2.3614
 Frc consts  --      1.2001                 1.2651                 1.7578
 IR Inten    --      7.2516                 1.9225                 2.9816

                     28                     29                     30
                      A                      A                      A
 Frequencies --   1155.6537              1194.9730              1212.3663
 Red. masses --      1.7564                 2.0404                 1.8554
 Frc consts  --      1.3820                 1.7167                 1.6067
 IR Inten    --     39.0908                19.1051                26.2561

                     31                     32                     33
                      A                      A                      A
 Frequencies --   1271.2757              1307.8252              1328.2940
 Red. masses --      1.4050                 1.6439                 1.4300
 Frc consts  --      1.3378                 1.6566                 1.4865
 IR Inten    --     10.5636                69.7754                49.6008

                     34                     35                     36
                      A                      A                      A
 Frequencies --   1346.1186              1369.4949              1400.7570
 Red. masses --      1.2518                 1.7561                 1.3142
 Frc consts  --      1.3364                 1.9406                 1.5193
 IR Inten    --     23.8848                52.9397                38.3113

                     37                     38                     39
                      A                      A                      A
 Frequencies --   1413.6611              1438.1281              1445.7979
 Red. masses --      1.2947                 1.4085                 1.3727
 Frc consts  --      1.5244                 1.7163                 1.6906
 IR Inten    --     65.3148                17.1143                 6.0105

                     40                     41                     42
                      A                      A                      A
 Frequencies --   1468.1839              1495.5979              1524.4956
 Red. masses --      1.6790                 1.9962                 1.1184
 Frc consts  --      2.1324                 2.6308                 1.5314
 IR Inten    --     20.7674               110.1352                 0.9459

                     43                     44                     45
                      A                      A                      A
 Frequencies --   1531.8927              1544.6146              1553.6409
 Red. masses --      1.0795                 1.0801                 1.1200
 Frc consts  --      1.4925                 1.5184                 1.5928
 IR Inten    --     16.2482                22.9208                26.0606

                     46                     47                     48
                      A                      A                      A
 Frequencies --   1817.7214              2989.1974              3023.3294
 Red. masses --      7.2488                 1.0730                 1.0841
 Frc consts  --     14.1115                 5.6490                 5.8384
 IR Inten    --    516.0559                55.1665                58.7251

                     49                     50                     51
                      A                      A                      A
 Frequencies --   3062.2883              3079.2224              3088.3640
 Red. masses --      1.0371                 1.0860                 1.0905
 Frc consts  --      5.7300                 6.0669                 6.1282
 IR Inten    --     17.2927                24.7434                34.3490

                     52                     53                     54
                      A                      A                      A
 Frequencies --   3122.3503              3148.8503              3465.6277
 Red. masses --      1.1018                 1.1017                 1.0742
 Frc consts  --      6.3290                 6.4362                 7.6013
 IR Inten    --     28.7639                18.4756                 0.7117

                     55                     56                     57
                      A                      A                      A
 Frequencies --   3614.2306              3625.7376              3751.2046
 Red. masses --      1.0757                 1.0768                 1.0684
 Frc consts  --      8.2792                 8.3400                 8.8579
 IR Inten    --     47.9020                25.4541                42.6419

 - Thermochemistry -
 -------------------
 Temperature   298.150 Kelvin.  Pressure   1.00000 Atm.
 Atom     1 has atomic number  6 and mass  12.00000

 Molecular mass:   145.08513 amu.
 Principal axes and moments of inertia in atomic units:
                           1         2         3
     Eigenvalues --  1006.395931568.198012227.94968
           X            0.99883   0.04783  -0.00763
           Y           -0.04767   0.99865   0.02049
           Z            0.00860  -0.02011   0.99976
 This molecule is an asymmetric top.
 Rotational symmetry number  1.
 Warning -- assumption of classical behavior for rotation
           may cause significant error
 Rotational temperatures (Kelvin)      0.08606     0.05523     0.03888
 Rotational constants (GHZ):           1.79327     1.15084     0.81005
 Zero-point vibrational energy     471880.0 (Joules/Mol)
                                  112.78203 (Kcal/Mol)
 Warning -- explicit consideration of  14 degrees of freedom as
           vibrations may cause significant error
 Vibrational temperatures:    135.38   160.50   181.94   263.51   294.60
          (Kelvin)            331.90   434.73   477.33   508.06   553.68
                              686.57   741.67   762.11   794.75   917.82
                              937.33  1094.62  1135.04  1185.55  1288.19
                             1330.94  1347.11  1429.53  1496.42  1514.25
                             1545.42  1617.20  1662.73  1719.30  1744.32
                             1829.08  1881.67  1911.12  1936.76  1970.40
                             2015.38  2033.94  2069.15  2080.18  2112.39
                             2151.83  2193.41  2204.05  2222.36  2235.34
                             2615.30  4300.79  4349.90  4405.95  4430.31
                             4443.47  4492.37  4530.49  4986.27  5200.07
                             5216.63  5397.15

 Zero-point correction=                           0.179730 (Hartree/Particle)
 Thermal correction to Energy=                    0.189667
 Thermal correction to Enthalpy=                  0.190611
 Thermal correction to Gibbs Free Energy=         0.144809
 Sum of electronic and zero-point Energies=           -511.673315
 Sum of electronic and thermal Energies=              -511.663378
 Sum of electronic and thermal Enthalpies=            -511.662434
 Sum of electronic and thermal Free Energies=         -511.708236

                     E (Thermal)             CV                S
                      KCal/Mol        Cal/Mol-Kelvin    Cal/Mol-Kelvin
 Total                  119.018             37.530             96.398
 Electronic               0.000              0.000              0.000
 Translational            0.889              2.981             40.827
 Rotational               0.889              2.981             29.643
 Vibrational            117.240             31.569             25.928
 Vibration     1          0.603              1.953              3.573
 Vibration     2          0.607              1.940              3.242
 Vibration     3          0.611              1.927              2.999
 Vibration     4          0.631              1.863              2.296
 Vibration     5          0.640              1.833              2.090
 Vibration     6          0.652              1.794              1.874
 Vibration     7          0.694              1.670              1.405
 Vibration     8          0.714              1.612              1.251
 Vibration     9          0.729              1.569              1.152
 Vibration    10          0.754              1.503              1.020
 Vibration    11          0.834              1.301              0.718
 Vibration    12          0.871              1.216              0.621
 Vibration    13          0.885              1.184              0.588
 Vibration    14          0.908              1.134              0.539

                           ! Non-Optimized Parameters !
 Normal termination of Gaussian 16 at Tue Dec  8 12:30:01 2020.

 ----------------------------------------------------------------------
 # B3LYP/6-311++G(d,p) empiricaldispersion=gd3bj scf=xqc pop=npa geom=c
 heck
 ----------------------------------------------------------------------

 --------------------------------------
 CID_129911048_JID_670_Energie_neutraal
 --------------------------------------
 Structure from the checkpoint file:  "JID_670.chk"
 Charge =  0 Multiplicity = 1

 SCF Done:  E(RB3LYP) =  -512.023168930     A.U. after   13 cycles
 Normal termination of Gaussian 16 at Tue Dec  8 12:39:58 2020.

 ----------------------------------------------------------------------
 # B3LYP/6-311++G(d,p) empiricaldispersion=gd3bj scf=xqc pop=npa geom=c
 heck
 ----------------------------------------------------------------------

 ------------------------------------
 CID_129911048_JID_670_Energie_kation
 ------------------------------------
 Structure from the checkpoint file:  "JID_670.chk"
 Charge =  1 Multiplicity = 2

 SCF Done:  E(UB3LYP) =  -511.696000229     A.U. after   24 cycles
 Normal termination of Gaussian 16 at Tue Dec  8 12:49:37 2020.
 Gaussian 16:  ES64L-G16RevA.03 25-Dec-2016

 ----------------------------------------------------------------------
 # B3LYP/6-311++G(d,p) empiricaldispersion=gd3bj scf=xqc pop=npa geom=c
 heck
 ----------------------------------------------------------------------

 -----------------------------------
 CID_129911048_JID_670_Energie_anion
 -----------------------------------
 Structure from the checkpoint file:  "JID_670.chk"
 Charge = -1 Multiplicity = 2

                         Standard orientation:
 ---------------------------------------------------------------------
 Center     Atomic      Atomic             Coordinates (Angstroms)
 Number     Number       Type             X           Y           Z
 ---------------------------------------------------------------------
      1          6           0       -0.093224    1.933297    1.129957
      2          6           0       -0.094083    1.423656   -0.317079
      3          6           0        1.329849    1.236405   -0.855264
      4          7           0        1.981472    0.143232   -0.146687
      5          6           0        1.340375   -1.050166    0.134809
      6          8           0        1.949427   -2.070561    0.429819
      7          7           0       -0.042197   -0.981889    0.134612
      8          6           0       -0.823971    0.081649   -0.488348
      9          7           0       -2.169210    0.150915    0.069660
     10          8           0       -2.773720   -1.151188   -0.135356
     11          1           0        0.346443    1.198850    1.809922
     12          1           0       -1.107888    2.166094    1.468793
     13          1           0        0.494716    2.854488    1.202821
     14          1           0       -0.607257    2.152286   -0.954217
     15          1           0        1.293620    1.055020   -1.941969
     16          1           0        1.910851    2.150725   -0.695350
     17          1           0        2.978231    0.022934   -0.262132
     18          1           0       -0.486350   -1.890829    0.166590
     19          1           0       -0.964506   -0.114731   -1.560784
     20          1           0       -2.076698    0.184563    1.086270
     21          1           0       -3.530961   -0.940263   -0.703195
 ---------------------------------------------------------------------

 SCF Done:  E(UB3LYP) =  -512.013392566     A.U. after   29 cycles

 The electronic state is 2-A.
 Alpha  occ. eigenvalues --  -19.05171 -18.97361 -14.25653 -14.22367 -14.22214
 Alpha  occ. eigenvalues --  -10.18746 -10.13585 -10.10357 -10.08401 -10.06107
 Alpha  occ. eigenvalues --   -0.96615  -0.94042  -0.84150  -0.80036  -0.73795
 Alpha  occ. eigenvalues --   -0.68189  -0.59469  -0.56595  -0.52522  -0.45699
 Alpha  occ. eigenvalues --   -0.43597  -0.42485  -0.39178  -0.38175  -0.36812
 Alpha  occ. eigenvalues --   -0.35251  -0.33409  -0.32630  -0.31622  -0.30294
 Alpha  occ. eigenvalues --   -0.29034  -0.25256  -0.24990  -0.24653  -0.20032
 Alpha  occ. eigenvalues --   -0.17713  -0.16323  -0.15196  -0.14295   0.04402
 Alpha virt. eigenvalues --    0.06669   0.08043   0.08673   0.09558   0.10621
 Alpha virt. eigenvalues --    0.11384   0.11726   0.12422   0.13137   0.14008
 Alpha virt. eigenvalues --    0.14940   0.16388   0.17104   0.17711   0.17922

  Beta  occ. eigenvalues --  -19.05125 -18.97350 -14.25632 -14.22356 -14.22206
  Beta  occ. eigenvalues --  -10.18742 -10.13567 -10.10312 -10.08387 -10.06081
  Beta  occ. eigenvalues --   -0.96534  -0.94021  -0.84118  -0.79997  -0.73735
  Beta  occ. eigenvalues --   -0.68127  -0.59406  -0.56525  -0.52484  -0.45652
  Beta  occ. eigenvalues --   -0.43545  -0.42411  -0.39088  -0.38132  -0.36768
  Beta  occ. eigenvalues --   -0.35197  -0.33368  -0.32576  -0.31588  -0.30257
  Beta  occ. eigenvalues --   -0.28988  -0.25206  -0.24934  -0.24610  -0.19976
  Beta  occ. eigenvalues --   -0.17673  -0.16298  -0.15152  -0.14276
  Beta virt. eigenvalues --    0.07161   0.08128   0.08713   0.09511   0.10499
  Beta virt. eigenvalues --    0.11131   0.11837   0.12264   0.12580   0.13618
  Beta virt. eigenvalues --    0.14531   0.15261   0.16455   0.17256   0.17993

 Mulliken charges and spin densities:
               1          2
     1  C    0.672037  -1.336708
     2  C   -1.598483   1.940641
     3  C    2.269742  -2.722696
     4  N   -0.499256   0.218919
     5  C    0.258532  -0.013491
     6  O   -0.409410   0.006638
     7  N   -0.358215   0.105036
     8  C    1.117732  -1.716701
     9  N   -0.319006   0.058035
    10  O   -0.180332   0.001806
    11  H    0.069856   0.120307
    12  H   -0.126121   0.248252
    13  H   -0.166462   0.325394
    14  H   -0.628622   0.880235
    15  H   -0.268654   0.435570
    16  H   -0.831417   1.012217
    17  H    0.128704   0.194501
    18  H    0.329479  -0.011800
    19  H   -0.461846   0.702092
    20  H    0.151750   0.118849
    21  H   -0.150008   0.432903
 Sum of Mulliken charges =  -1.00000   1.00000

 Dipole moment (field-independent basis, Debye):
    X=             -0.0627    Y=             -2.0451    Z=              2.9714  Tot=              3.6077
 Quadrupole moment (field-independent basis, Debye-Ang):
   XX=           -109.8009   YY=           -109.2998   ZZ=            -90.6613
   XY=             -1.5411   XZ=             -4.3829   YZ=              6.4255

 Summary of Natural Population Analysis:

                                       Natural Population
                Natural  -----------------------------------------------
    Atom  No    Charge         Core      Valence    Rydberg      Total
 -----------------------------------------------------------------------
      C    1   -0.29299      0.99964     2.28590    0.00745     3.29299
      C    2   -0.12173      0.99957     2.10855    0.01360     3.12173
      C    3   -0.08325      0.99960     2.07127    0.01238     3.08325
      N    4   -0.33487      0.99968     2.82508    0.01011     3.83487
      C    5    0.40812      0.99969     1.56960    0.02258     2.59188
      O    6   -0.34235      0.99988     3.33717    0.00531     4.34235
      N    7   -0.34591      0.99966     2.83720    0.00905     3.84591
      C    8    0.08109      0.99958     1.90283    0.01651     2.91891
      N    9   -0.17775      0.99971     2.66329    0.01475     3.67775
      O   10   -0.30689      0.99991     3.29994    0.00704     4.30689
      H   11    0.10325      0.00000     0.39534    0.00141     0.39675
      H   12    0.09998      0.00000     0.39901    0.00102     0.40002
      H   13    0.10513      0.00000     0.39377    0.00110     0.39487
      H   14    0.11284      0.00000     0.38333    0.00383     0.38716
      H   15    0.09269      0.00000     0.40446    0.00285     0.40731
      H   16    0.10367      0.00000     0.39280    0.00353     0.39633
      H   17    0.19613      0.00000     0.30182    0.00205     0.30387
      H   18    0.20278      0.00000     0.29496    0.00226     0.29722
      H   19    0.09495      0.00000     0.40248    0.00257     0.40505
      H   20    0.16659      0.00000     0.33028    0.00313     0.33341
      H   21    0.23852      0.00000     0.25243    0.00905     0.26148
 =======================================================================
   * Total *    0.00000      9.99692    28.85150    0.15158    39.00000

 Normal termination of Gaussian 16 at Tue Dec  8 13:04:41 2020.
