 Gaussian 16, Revision A.03,

 -----------------------------------------------------------
 # opt freq B3LYP/6-31G(d) empiricaldispersion=gd3bj scf=xqc
 -----------------------------------------------------------

 -------------------------------
 CID_123727624_JID_2521_neutraal
 -------------------------------
 Symbolic Z-matrix:
 Charge =  0 Multiplicity = 1

 SCF Done:  E(RB3LYP) =  -590.584842803     A.U. after   15 cycles
 SCF Done:  E(RB3LYP) =  -590.606973052     A.U. after   13 cycles
 SCF Done:  E(RB3LYP) =  -590.607521128     A.U. after   14 cycles
 SCF Done:  E(RB3LYP) =  -590.604312921     A.U. after   14 cycles
 SCF Done:  E(RB3LYP) =  -590.609532622     A.U. after   12 cycles
 SCF Done:  E(RB3LYP) =  -590.603537188     A.U. after   15 cycles
 SCF Done:  E(RB3LYP) =  -590.610229790     A.U. after   13 cycles
 SCF Done:  E(RB3LYP) =  -590.610221622     A.U. after   14 cycles
 SCF Done:  E(RB3LYP) =  -590.611005117     A.U. after   12 cycles
 SCF Done:  E(RB3LYP) =  -590.611133302     A.U. after   12 cycles
 SCF Done:  E(RB3LYP) =  -590.611708309     A.U. after   10 cycles
 SCF Done:  E(RB3LYP) =  -590.611714030     A.U. after    9 cycles
 SCF Done:  E(RB3LYP) =  -590.611716740     A.U. after   10 cycles
 SCF Done:  E(RB3LYP) =  -590.611718260     A.U. after    9 cycles
 SCF Done:  E(RB3LYP) =  -590.611719088     A.U. after    9 cycles
 SCF Done:  E(RB3LYP) =  -590.611719219     A.U. after    8 cycles
 Optimization completed.
    -- Stationary point found.
 Normal termination of Gaussian 16 at Wed Dec  9 17:33:35 2020.

 --------------------------------------------------------------------
 #N Geom=AllCheck Guess=TCheck SCRF=Check GenChk RB3LYP/6-31G(d) Freq
 --------------------------------------------------------------------

 Structure from the checkpoint file:  "JID_2521.chk"
 -------------------------------
 CID_123727624_JID_2521_neutraal
 -------------------------------
 Charge =  0 Multiplicity = 1

 SCF Done:  E(RB3LYP) =  -590.611719219     A.U. after    1 cycles

  Exact polarizability: 112.817  -2.831 111.493  -0.526  -0.964  54.874
 Approx polarizability: 152.662  -0.623 183.468   0.129  -0.997  82.574

                      1                      2                      3
                      A                      A                      A
 Frequencies --     32.5345                56.7490                95.1635
 Red. masses --      5.1582                 6.4114                 5.2927
 Frc consts  --      0.0032                 0.0122                 0.0282
 IR Inten    --      0.1319                 0.1592                 0.0144

                      4                      5                      6
                      A                      A                      A
 Frequencies --    121.1171               166.9635               192.7586
 Red. masses --      4.9573                 5.5813                 4.4609
 Frc consts  --      0.0428                 0.0917                 0.0977
 IR Inten    --      0.1116                 0.2696                 1.5868

                      7                      8                      9
                      A                      A                      A
 Frequencies --    213.5513               292.9978               306.3738
 Red. masses --      3.0806                 4.5707                 3.3470
 Frc consts  --      0.0828                 0.2312                 0.1851
 IR Inten    --      8.3324                 6.2946                15.0017

                     10                     11                     12
                      A                      A                      A
 Frequencies --    351.8356               372.4672               418.9257
 Red. masses --      1.2808                 1.3227                 1.8645
 Frc consts  --      0.0934                 0.1081                 0.1928
 IR Inten    --    109.9533                74.3992                72.3613

                     13                     14                     15
                      A                      A                      A
 Frequencies --    450.9717               486.3523               518.9736
 Red. masses --      2.8274                 5.3089                 4.3416
 Frc consts  --      0.3388                 0.7399                 0.6889
 IR Inten    --     52.7109                15.3959                19.3506

                     16                     17                     18
                      A                      A                      A
 Frequencies --    566.9188               580.2355               589.5659
 Red. masses --      3.7900                 3.2559                 3.0077
 Frc consts  --      0.7177                 0.6458                 0.6160
 IR Inten    --     30.3771                34.0105                44.9465

                     19                     20                     21
                      A                      A                      A
 Frequencies --    618.7859               644.7754               652.5447
 Red. masses --      1.2565                 3.3870                 1.4387
 Frc consts  --      0.2835                 0.8296                 0.3609
 IR Inten    --     49.9773                 9.3915                19.2424

                     22                     23                     24
                      A                      A                      A
 Frequencies --    657.7163               771.8503               779.6616
 Red. masses --      1.5450                 2.4039                 2.6321
 Frc consts  --      0.3938                 0.8438                 0.9427
 IR Inten    --     37.3673                57.5471                39.5980

                     25                     26                     27
                      A                      A                      A
 Frequencies --    813.9291               863.0981               936.0504
 Red. masses --      1.6098                 1.3573                 5.4596
 Frc consts  --      0.6284                 0.5957                 2.8184
 IR Inten    --     25.7693                 0.1085                47.6879

                     28                     29                     30
                      A                      A                      A
 Frequencies --    990.2037              1020.5878              1050.8542
 Red. masses --      4.5895                 3.0765                 1.9238
 Frc consts  --      2.6513                 1.8880                 1.2517
 IR Inten    --     48.5620                 7.5592               123.4850

                     31                     32                     33
                      A                      A                      A
 Frequencies --   1069.3721              1076.5305              1096.2224
 Red. masses --      6.3246                 2.4667                 5.0787
 Frc consts  --      4.2613                 1.6843                 3.5959
 IR Inten    --     93.7048                29.1860               117.5013

                     34                     35                     36
                      A                      A                      A
 Frequencies --   1189.9499              1236.0676              1266.8288
 Red. masses --      1.4833                 1.2195                 1.2313
 Frc consts  --      1.2374                 1.0978                 1.1643
 IR Inten    --    149.9203                22.6682                25.9069

                     37                     38                     39
                      A                      A                      A
 Frequencies --   1271.4102              1298.1596              1315.1595
 Red. masses --      1.2589                 1.7052                 1.6008
 Frc consts  --      1.1990                 1.6931                 1.6313
 IR Inten    --     51.4863                 9.7271                 8.1962

                     40                     41                     42
                      A                      A                      A
 Frequencies --   1334.7969              1425.6584              1434.6622
 Red. masses --      2.0018                 1.3290                 1.2050
 Frc consts  --      2.1013                 1.5915                 1.4613
 IR Inten    --     65.1958                42.4029                51.7499

                     43                     44                     45
                      A                      A                      A
 Frequencies --   1449.5803              1477.3793              1485.8158
 Red. masses --      2.8793                 1.7297                 4.4352
 Frc consts  --      3.5647                 2.2244                 5.7689
 IR Inten    --     45.5380               118.8565                 3.8221

                     46                     47                     48
                      A                      A                      A
 Frequencies --   1544.2933              1629.1500              2232.8402
 Red. masses --      6.1197                 4.5461                 5.9332
 Frc consts  --      8.5989                 7.1090                17.4282
 IR Inten    --     25.6611                 1.1722                 2.1424

                     49                     50                     51
                      A                      A                      A
 Frequencies --   3032.6313              3042.1775              3261.3000
 Red. masses --      1.0844                 1.0827                 1.0917
 Frc consts  --      5.8757                 5.9037                 6.8414
 IR Inten    --     67.0910                19.6491                 3.3360

                     52                     53                     54
                      A                      A                      A
 Frequencies --   3275.2382              3492.7620              3644.7983
 Red. masses --      1.1001                 1.1607                 1.0796
 Frc consts  --      6.9532                 8.3430                 8.4504
 IR Inten    --      2.4247                55.8146                82.2644

                     55                     56                     57
                      A                      A                      A
 Frequencies --   3704.5384              3719.1526              3744.4116
 Red. masses --      1.0651                 1.0659                 1.0659
 Frc consts  --      8.6119                 8.6864                 8.8047
 IR Inten    --     14.1931                15.8073                22.2928

 - Thermochemistry -
 -------------------
 Temperature   298.150 Kelvin.  Pressure   1.00000 Atm.
 Atom     1 has atomic number  6 and mass  12.00000

 Molecular mass:   167.05824 amu.
 Principal axes and moments of inertia in atomic units:
                           1         2         3
     Eigenvalues --  1054.713633180.183854077.90823
           X            1.00000  -0.00073  -0.00073
           Y            0.00073   0.99999  -0.00381
           Z            0.00073   0.00381   0.99999
 This molecule is an asymmetric top.
 Rotational symmetry number  1.
 Warning -- assumption of classical behavior for rotation
           may cause significant error
 Rotational temperatures (Kelvin)      0.08212     0.02724     0.02124
 Rotational constants (GHZ):           1.71112     0.56750     0.44257
 Zero-point vibrational energy     426859.9 (Joules/Mol)
                                  102.02196 (Kcal/Mol)
 Warning -- explicit consideration of  19 degrees of freedom as
           vibrations may cause significant error
 Vibrational temperatures:     46.81    81.65   136.92   174.26   240.22
          (Kelvin)            277.34   307.25   421.56   440.80   506.21
                              535.90   602.74   648.85   699.75   746.69
                              815.67   834.83   848.25   890.29   927.69
                              938.87   946.31  1110.52  1121.76  1171.06
                             1241.81  1346.77  1424.68  1468.40  1511.94
                             1538.59  1548.89  1577.22  1712.07  1778.43
                             1822.68  1829.28  1867.76  1892.22  1920.47
                             2051.20  2064.16  2085.62  2125.62  2137.76
                             2221.89  2343.98  3212.56  4363.28  4377.01
                             4692.28  4712.34  5025.31  5244.05  5330.00
                             5351.03  5387.37

 Zero-point correction=                           0.162582 (Hartree/Particle)
 Thermal correction to Energy=                    0.174541
 Thermal correction to Enthalpy=                  0.175485
 Thermal correction to Gibbs Free Energy=         0.123912
 Sum of electronic and zero-point Energies=           -590.449137
 Sum of electronic and thermal Energies=              -590.437178
 Sum of electronic and thermal Enthalpies=            -590.436234
 Sum of electronic and thermal Free Energies=         -590.487807

                     E (Thermal)             CV                S
                      KCal/Mol        Cal/Mol-Kelvin    Cal/Mol-Kelvin
 Total                  109.526             44.754            108.545
 Electronic               0.000              0.000              0.000
 Translational            0.889              2.981             41.248
 Rotational               0.889              2.981             30.993
 Vibrational            107.749             38.792             36.304
 Vibration     1          0.594              1.983              5.669
 Vibration     2          0.596              1.975              4.567
 Vibration     3          0.603              1.953              3.551
 Vibration     4          0.609              1.932              3.082
 Vibration     5          0.624              1.883              2.469
 Vibration     6          0.635              1.850              2.201
 Vibration     7          0.644              1.820              2.013
 Vibration     8          0.688              1.687              1.457
 Vibration     9          0.697              1.662              1.382
 Vibration    10          0.728              1.571              1.158
 Vibration    11          0.744              1.529              1.070
 Vibration    12          0.782              1.429              0.896
 Vibration    13          0.810              1.359              0.793
 Vibration    14          0.842              1.280              0.693
 Vibration    15          0.874              1.208              0.612
 Vibration    16          0.923              1.103              0.510
 Vibration    17          0.937              1.074              0.485
 Vibration    18          0.947              1.054              0.468
 Vibration    19          0.979              0.992              0.418

 Optimization completed.
    -- Stationary point found.
 Normal termination of Gaussian 16 at Wed Dec  9 17:38:12 2020.

 ----------------------------------------------------------------------
 # B3LYP/6-311++G(d,p) empiricaldispersion=gd3bj scf=xqc pop=npa geom=c
 heck
 ----------------------------------------------------------------------

 ---------------------------------------
 CID_123727624_JID_2521_Energie_neutraal
 ---------------------------------------
 Structure from the checkpoint file:  "JID_2521.chk"
 Charge =  0 Multiplicity = 1

 SCF Done:  E(RB3LYP) =  -590.813393528     A.U. after   16 cycles
 Normal termination of Gaussian 16 at Wed Dec  9 17:40:05 2020.

 ----------------------------------------------------------------------
 # B3LYP/6-311++G(d,p) empiricaldispersion=gd3bj scf=xqc pop=npa geom=c
 heck
 ----------------------------------------------------------------------

 -------------------------------------
 CID_123727624_JID_2521_Energie_kation
 -------------------------------------
 Structure from the checkpoint file:  "JID_2521.chk"
 Charge =  1 Multiplicity = 2

 SCF Done:  E(UB3LYP) =  -590.515938576     A.U. after   21 cycles
 Normal termination of Gaussian 16 at Wed Dec  9 17:44:19 2020.
 Gaussian 16:  ES64L-G16RevA.03 25-Dec-2016

 ----------------------------------------------------------------------
 # B3LYP/6-311++G(d,p) empiricaldispersion=gd3bj scf=xqc pop=npa geom=c
 heck
 ----------------------------------------------------------------------

 ------------------------------------
 CID_123727624_JID_2521_Energie_anion
 ------------------------------------
 Structure from the checkpoint file:  "JID_2521.chk"
 Charge = -1 Multiplicity = 2

                         Standard orientation:
 ---------------------------------------------------------------------
 Center     Atomic      Atomic             Coordinates (Angstroms)
 Number     Number       Type             X           Y           Z
 ---------------------------------------------------------------------
      1          6           0       -2.681561    2.365929    0.146060
      2          6           0       -2.569324    1.182828   -0.068360
      3          6           0       -2.389773   -0.259579   -0.324280
      4          6           0       -0.933492   -0.644497   -0.249058
      5          6           0       -0.358704   -1.896417   -0.110118
      6          6           0        1.051959   -1.716947   -0.092992
      7          6           0        1.296682   -0.361015   -0.221455
      8          7           0        0.084414    0.272686   -0.326514
      9          6           0        2.583037    0.399354   -0.286245
     10          8           0        2.289779    1.720911    0.144417
     11          8           0        3.592122   -0.209908    0.480797
     12          8           0       -3.181929   -1.066972    0.545330
     13          1           0       -2.815011    3.405688    0.342949
     14          1           0       -2.790167   -0.481747   -1.322284
     15          1           0       -0.903172   -2.826774   -0.031835
     16          1           0        1.809429   -2.483488   -0.007056
     17          1           0       -0.032251    1.276581   -0.328866
     18          1           0        3.001413    0.422685   -1.302222
     19          1           0        3.105584    2.236215    0.041159
     20          1           0        3.198171   -0.402378    1.349368
     21          1           0       -2.757604   -1.025769    1.418725
 ---------------------------------------------------------------------

 SCF Done:  E(UB3LYP) =  -590.802752700     A.U. after   32 cycles

 The electronic state is 2-A.
 Alpha  occ. eigenvalues --  -19.03338 -19.03022 -19.02487 -14.25147 -10.17452
 Alpha  occ. eigenvalues --  -10.16161 -10.09971 -10.09370 -10.08385 -10.07734
 Alpha  occ. eigenvalues --  -10.05836 -10.05786  -0.96597  -0.93894  -0.89931
 Alpha  occ. eigenvalues --   -0.87770  -0.69458  -0.67506  -0.65015  -0.60672
 Alpha  occ. eigenvalues --   -0.55068  -0.48739  -0.48557  -0.46145  -0.45391
 Alpha  occ. eigenvalues --   -0.42081  -0.40873  -0.37874  -0.37105  -0.36586
 Alpha  occ. eigenvalues --   -0.33273  -0.31641  -0.29853  -0.29444  -0.29048
 Alpha  occ. eigenvalues --   -0.26773  -0.23806  -0.21511  -0.21152  -0.19104
 Alpha  occ. eigenvalues --   -0.18998  -0.18690  -0.15065  -0.11435   0.04479
 Alpha virt. eigenvalues --    0.07013   0.07249   0.08427   0.08818   0.09505
 Alpha virt. eigenvalues --    0.09998   0.10670   0.11598   0.11976   0.12229
 Alpha virt. eigenvalues --    0.13003   0.14677   0.15264   0.16328   0.16548

  Beta  occ. eigenvalues --  -19.03291 -19.02991 -19.02430 -14.25096 -10.17428
  Beta  occ. eigenvalues --  -10.16147 -10.09951 -10.09359 -10.08379 -10.07694
  Beta  occ. eigenvalues --  -10.05826 -10.05776  -0.96512  -0.93784  -0.89831
  Beta  occ. eigenvalues --   -0.87696  -0.69383  -0.67450  -0.64949  -0.60579
  Beta  occ. eigenvalues --   -0.54996  -0.48686  -0.48503  -0.46070  -0.45314
  Beta  occ. eigenvalues --   -0.41987  -0.40809  -0.37774  -0.37018  -0.36518
  Beta  occ. eigenvalues --   -0.33244  -0.31588  -0.29726  -0.29412  -0.29011
  Beta  occ. eigenvalues --   -0.26713  -0.23754  -0.21436  -0.21079  -0.19036
  Beta  occ. eigenvalues --   -0.18927  -0.18609  -0.14938  -0.11298
  Beta virt. eigenvalues --    0.06842   0.07865   0.08252   0.08775   0.09184
  Beta virt. eigenvalues --    0.09847   0.10602   0.10912   0.11714   0.12249
  Beta virt. eigenvalues --    0.12541   0.13291   0.14752   0.15342   0.16498

 Mulliken charges and spin densities:
               1          2
     1  C   -2.137968   1.109867
     2  C    2.657153  -1.856937
     3  C   -0.037767  -0.573616
     4  C   -0.618673   0.578563
     5  C    0.631689  -0.658219
     6  C   -1.695559   1.658616
     7  C   -1.034095   1.192497
     8  N    0.003069   0.100882
     9  C    3.650099  -4.271395
    10  O   -0.341423   0.077732
    11  O   -0.288916   0.054461
    12  O   -0.156939  -0.016155
    13  H   -0.882638   1.049030
    14  H   -0.116500   0.336113
    15  H   -0.134958   0.293772
    16  H   -0.087078   0.251159
    17  H    0.292347   0.011520
    18  H   -0.357562   0.575711
    19  H   -0.393388   0.662064
    20  H    0.018960   0.220110
    21  H    0.030146   0.204225
 Sum of Mulliken charges =  -1.00000   1.00000

 Dipole moment (field-independent basis, Debye):
    X=             -1.6266    Y=             -4.2107    Z=              0.4278  Tot=              4.5342
 Quadrupole moment (field-independent basis, Debye-Ang):
   XX=           -139.2490   YY=           -112.2481   ZZ=            -90.7575
   XY=             -7.3720   XZ=              2.5195   YZ=             -0.0961

 Summary of Natural Population Analysis:

                                       Natural Population
                Natural  -----------------------------------------------
    Atom  No    Charge         Core      Valence    Rydberg      Total
 -----------------------------------------------------------------------
      C    1   -0.10418      0.99927     2.10059    0.00432     3.10418
      C    2   -0.01778      0.99936     2.00878    0.00965     3.01778
      C    3    0.01747      0.99946     1.96754    0.01554     2.98253
      C    4    0.05924      0.99952     1.92815    0.01309     2.94076
      C    5   -0.14178      0.99951     2.13310    0.00917     3.14178
      C    6   -0.14023      0.99952     2.13161    0.00910     3.14023
      C    7    0.04707      0.99952     1.93880    0.01461     2.95293
      N    8   -0.25321      0.99962     2.74489    0.00870     3.75321
      C    9    0.20248      0.99958     1.77789    0.02005     2.79752
      O   10   -0.37601      0.99989     3.36929    0.00683     4.37601
      O   11   -0.36556      0.99990     3.35930    0.00636     4.36556
      O   12   -0.35695      0.99990     3.35021    0.00684     4.35695
      H   13    0.11335      0.00000     0.38483    0.00182     0.38665
      H   14    0.10720      0.00000     0.39082    0.00198     0.39280
      H   15    0.10672      0.00000     0.39235    0.00092     0.39328
      H   16    0.10630      0.00000     0.39285    0.00085     0.39370
      H   17    0.21710      0.00000     0.27964    0.00326     0.28290
      H   18    0.07787      0.00000     0.41954    0.00259     0.42213
      H   19    0.23958      0.00000     0.24032    0.02010     0.26042
      H   20    0.23026      0.00000     0.26594    0.00380     0.26974
      H   21    0.23105      0.00000     0.26500    0.00395     0.26895
 =======================================================================
   * Total *   -0.00000     11.99505    31.84142    0.16353    44.00000

 Normal termination of Gaussian 16 at Wed Dec  9 17:49:42 2020.
