 Gaussian 16, Revision A.03,

 -----------------------------------------------------------
 # opt freq B3LYP/6-31G(d) empiricaldispersion=gd3bj scf=xqc
 -----------------------------------------------------------

 -------------------------------
 CID_143628110_JID_4430_neutraal
 -------------------------------
 Symbolic Z-matrix:
 Charge =  0 Multiplicity = 1

 SCF Done:  E(RB3LYP) =  -670.531938547     A.U. after   13 cycles
 SCF Done:  E(RB3LYP) =  -670.535861291     A.U. after   11 cycles
 SCF Done:  E(RB3LYP) =  -670.536341582     A.U. after   11 cycles
 SCF Done:  E(RB3LYP) =  -670.536401752     A.U. after   11 cycles
 SCF Done:  E(RB3LYP) =  -670.536561665     A.U. after   10 cycles
 SCF Done:  E(RB3LYP) =  -670.536587858     A.U. after   10 cycles
 SCF Done:  E(RB3LYP) =  -670.536594090     A.U. after    9 cycles
 SCF Done:  E(RB3LYP) =  -670.536596444     A.U. after    9 cycles
 SCF Done:  E(RB3LYP) =  -670.536605939     A.U. after   11 cycles
 SCF Done:  E(RB3LYP) =  -670.536614934     A.U. after   11 cycles
 SCF Done:  E(RB3LYP) =  -670.536663701     A.U. after   10 cycles
 SCF Done:  E(RB3LYP) =  -670.536668773     A.U. after    9 cycles
 SCF Done:  E(RB3LYP) =  -670.536670171     A.U. after    9 cycles
 SCF Done:  E(RB3LYP) =  -670.536670898     A.U. after    9 cycles
 SCF Done:  E(RB3LYP) =  -670.536671144     A.U. after    8 cycles
 SCF Done:  E(RB3LYP) =  -670.536671170     A.U. after    6 cycles
 Optimization completed.
    -- Stationary point found.
 Normal termination of Gaussian 16 at Thu Dec 10 10:00:15 2020.

 --------------------------------------------------------------------
 #N Geom=AllCheck Guess=TCheck SCRF=Check GenChk RB3LYP/6-31G(d) Freq
 --------------------------------------------------------------------

 Structure from the checkpoint file:  "JID_4430.chk"
 -------------------------------
 CID_143628110_JID_4430_neutraal
 -------------------------------
 Charge =  0 Multiplicity = 1

 SCF Done:  E(RB3LYP) =  -670.536671170     A.U. after    1 cycles

  Exact polarizability: 151.414   1.564 133.023 -11.662   1.225  73.715
 Approx polarizability: 206.281  -3.176 208.875 -22.211   4.293 116.169

                      1                      2                      3
                      A                      A                      A
 Frequencies --     18.3567                56.6317                77.7497
 Red. masses --      3.7010                 5.2360                 4.3694
 Frc consts  --      0.0007                 0.0099                 0.0156
 IR Inten    --      1.9128                 0.8521                 0.8723

                      4                      5                      6
                      A                      A                      A
 Frequencies --     89.3485               123.5108               157.2630
 Red. masses --      3.7009                 1.0388                 4.1343
 Frc consts  --      0.0174                 0.0093                 0.0602
 IR Inten    --      6.4599                 0.3744                 1.5259

                      7                      8                      9
                      A                      A                      A
 Frequencies --    190.1688               204.1390               238.5303
 Red. masses --      2.6718                 3.2742                 3.6187
 Frc consts  --      0.0569                 0.0804                 0.1213
 IR Inten    --      0.9295                 3.3655                 1.6415

                     10                     11                     12
                      A                      A                      A
 Frequencies --    276.5364               281.9018               296.3475
 Red. masses --      3.5464                 1.1562                 3.0640
 Frc consts  --      0.1598                 0.0541                 0.1585
 IR Inten    --      9.5115                20.5604                 2.9178

                     13                     14                     15
                      A                      A                      A
 Frequencies --    309.3291               339.5427               352.5505
 Red. masses --      3.3293                 2.0087                 2.0374
 Frc consts  --      0.1877                 0.1364                 0.1492
 IR Inten    --     16.1505                49.1823                42.2742

                     16                     17                     18
                      A                      A                      A
 Frequencies --    412.4479               436.8424               511.0918
 Red. masses --      3.4318                 3.0684                 4.0303
 Frc consts  --      0.3440                 0.3450                 0.6203
 IR Inten    --      0.9243                 8.1703                 5.8456

                     19                     20                     21
                      A                      A                      A
 Frequencies --    535.0185               555.2014               568.0863
 Red. masses --      5.4976                 3.9029                 5.4219
 Frc consts  --      0.9272                 0.7088                 1.0309
 IR Inten    --      0.7935                 0.1811                 4.7669

                     22                     23                     24
                      A                      A                      A
 Frequencies --    584.2089               619.9028               658.3691
 Red. masses --      4.1733                 1.1656                 2.1889
 Frc consts  --      0.8392                 0.2639                 0.5590
 IR Inten    --      2.1917               111.7443                34.3657

                     25                     26                     27
                      A                      A                      A
 Frequencies --    708.9791               746.6894               768.8059
 Red. masses --      5.4656                 3.3468                 1.5793
 Frc consts  --      1.6186                 1.0994                 0.5500
 IR Inten    --      1.7817                14.4123                35.9500

                     28                     29                     30
                      A                      A                      A
 Frequencies --    823.4836               849.4684               857.3112
 Red. masses --      2.6394                 3.3102                 1.3358
 Frc consts  --      1.0545                 1.4073                 0.5784
 IR Inten    --      3.5872                23.1568                 0.7383

                     31                     32                     33
                      A                      A                      A
 Frequencies --    872.1591               943.4403               963.3838
 Red. masses --      1.6111                 1.2445                 1.7620
 Frc consts  --      0.7221                 0.6526                 0.9635
 IR Inten    --     75.8674                 0.2340                54.3372

                     34                     35                     36
                      A                      A                      A
 Frequencies --    972.2581              1011.3334              1042.9957
 Red. masses --      2.4760                 1.7741                 4.3756
 Frc consts  --      1.3790                 1.0691                 2.8045
 IR Inten    --     41.3101                 1.0380                84.1638

                     37                     38                     39
                      A                      A                      A
 Frequencies --   1058.9316              1071.6929              1077.2952
 Red. masses --      2.5252                 1.5657                 1.8424
 Frc consts  --      1.6684                 1.0595                 1.2598
 IR Inten    --     46.3082                 6.8267                13.6497

                     40                     41                     42
                      A                      A                      A
 Frequencies --   1086.4402              1122.6615              1139.8320
 Red. masses --      2.0612                 1.7323                 2.4709
 Frc consts  --      1.4334                 1.2864                 1.8914
 IR Inten    --     52.1439                28.3187                29.9651

                     43                     44                     45
                      A                      A                      A
 Frequencies --   1196.5621              1210.5188              1212.0924
 Red. masses --      1.1673                 1.7279                 1.3511
 Frc consts  --      0.9847                 1.4918                 1.1695
 IR Inten    --      8.0705                35.8803                 5.4631

                     46                     47                     48
                      A                      A                      A
 Frequencies --   1260.8251              1275.0116              1284.3582
 Red. masses --      1.2516                 3.0296                 1.3857
 Frc consts  --      1.1722                 2.9018                 1.3467
 IR Inten    --      2.4585               206.0206                24.8055

                     49                     50                     51
                      A                      A                      A
 Frequencies --   1303.5151              1339.9214              1359.6090
 Red. masses --      1.8161                 3.4558                 1.2602
 Frc consts  --      1.8181                 3.6556                 1.3725
 IR Inten    --     31.8115               137.7878                12.1177

                     52                     53                     54
                      A                      A                      A
 Frequencies --   1373.5268              1382.9093              1418.6635
 Red. masses --      2.8825                 1.4518                 1.4082
 Frc consts  --      3.2041                 1.6359                 1.6698
 IR Inten    --     58.8541                 8.1158                 7.7880

                     55                     56                     57
                      A                      A                      A
 Frequencies --   1438.1991              1442.6833              1472.5535
 Red. masses --      1.4155                 1.2626                 1.2983
 Frc consts  --      1.7251                 1.5483                 1.6587
 IR Inten    --      0.1427                 0.4922               103.5983

                     58                     59                     60
                      A                      A                      A
 Frequencies --   1504.8646              1509.8485              1522.7309
 Red. masses --      1.3163                 1.0538                 1.3273
 Frc consts  --      1.7563                 1.4154                 1.8133
 IR Inten    --      8.2321                 6.1321                10.6386

                     61                     62                     63
                      A                      A                      A
 Frequencies --   1526.0634              1549.9906              1555.8326
 Red. masses --      1.6676                 1.5211                 1.4914
 Frc consts  --      2.2881                 2.1531                 2.1271
 IR Inten    --     43.4857                69.5418                20.4254

                     64                     65                     66
                      A                      A                      A
 Frequencies --   1649.7077              1668.6749              1695.6444
 Red. masses --      6.0552                 6.4447                 1.0879
 Frc consts  --      9.7094                10.5730                 1.8430
 IR Inten    --     22.6062                 5.7926                31.0279

                     67                     68                     69
                      A                      A                      A
 Frequencies --   3025.1148              3049.4182              3051.3841
 Red. masses --      1.0691                 1.0588                 1.0410
 Frc consts  --      5.7644                 5.8007                 5.7105
 IR Inten    --     30.1529                22.6773                36.5761

                     70                     71                     72
                      A                      A                      A
 Frequencies --   3076.6056              3101.8884              3106.8371
 Red. masses --      1.0854                 1.0988                 1.1023
 Frc consts  --      6.0532                 6.2288                 6.2690
 IR Inten    --     49.0744                24.8491                39.3630

                     73                     74                     75
                      A                      A                      A
 Frequencies --   3127.8906              3132.8624              3166.3895
 Red. masses --      1.0957                 1.1023                 1.0886
 Frc consts  --      6.3161                 6.3743                 6.4307
 IR Inten    --     25.7124                18.8292                15.3638

                     76                     77                     78
                      A                      A                      A
 Frequencies --   3188.3954              3208.1929              3492.8185
 Red. masses --      1.0883                 1.0958                 1.0503
 Frc consts  --      6.5184                 6.6453                 7.5495
 IR Inten    --     13.1865                23.7474                 0.4480

                     79                     80                     81
                      A                      A                      A
 Frequencies --   3578.0586              3590.6992              3754.1742
 Red. masses --      1.0927                 1.0646                 1.0660
 Frc consts  --      8.2424                 8.0874                 8.8520
 IR Inten    --      0.6909                74.7467                44.2183

 - Thermochemistry -
 -------------------
 Temperature   298.150 Kelvin.  Pressure   1.00000 Atm.
 Atom     1 has atomic number  6 and mass  12.00000

 Molecular mass:   197.10519 amu.
 Principal axes and moments of inertia in atomic units:
                           1         2         3
     Eigenvalues --  1491.833874305.588335451.69885
           X            0.99992   0.01160  -0.00466
           Y           -0.01162   0.99992  -0.00496
           Z            0.00460   0.00501   0.99998
 This molecule is an asymmetric top.
 Rotational symmetry number  1.
 Warning -- assumption of classical behavior for rotation
           may cause significant error
 Rotational temperatures (Kelvin)      0.05806     0.02012     0.01589
 Rotational constants (GHZ):           1.20975     0.41916     0.33104
 Zero-point vibrational energy     644878.5 (Joules/Mol)
                                  154.12967 (Kcal/Mol)
 Warning -- explicit consideration of  23 degrees of freedom as
           vibrations may cause significant error
 Vibrational temperatures:     26.41    81.48   111.86   128.55   177.70
          (Kelvin)            226.27   273.61   293.71   343.19   397.87
                              405.59   426.38   445.06   488.53   507.24
                              593.42   628.52   735.35   769.77   798.81
                              817.35   840.55   891.90   947.25  1020.06
                             1074.32  1106.14  1184.81  1222.20  1233.48
                             1254.84  1357.40  1386.09  1398.86  1455.08
                             1500.64  1523.57  1541.93  1549.99  1563.15
                             1615.26  1639.96  1721.59  1741.67  1743.93
                             1814.05  1834.46  1847.91  1875.47  1927.85
                             1956.17  1976.20  1989.70  2041.14  2069.25
                             2075.70  2118.68  2165.16  2172.34  2190.87
                             2195.66  2230.09  2238.50  2373.56  2400.85
                             2439.65  4352.47  4387.43  4390.26  4426.55
                             4462.93  4470.05  4500.34  4507.49  4555.73
                             4587.39  4615.87  5025.39  5148.03  5166.22
                             5401.42

 Zero-point correction=                           0.245621 (Hartree/Particle)
 Thermal correction to Energy=                    0.260020
 Thermal correction to Enthalpy=                  0.260964
 Thermal correction to Gibbs Free Energy=         0.203592
 Sum of electronic and zero-point Energies=           -670.291050
 Sum of electronic and thermal Energies=              -670.276651
 Sum of electronic and thermal Enthalpies=            -670.275707
 Sum of electronic and thermal Free Energies=         -670.333079

                     E (Thermal)             CV                S
                      KCal/Mol        Cal/Mol-Kelvin    Cal/Mol-Kelvin
 Total                  163.165             54.334            120.749
 Electronic               0.000              0.000              0.000
 Translational            0.889              2.981             41.741
 Rotational               0.889              2.981             31.927
 Vibrational            161.387             48.372             47.081
 Vibration     1          0.593              1.986              6.804
 Vibration     2          0.596              1.975              4.571
 Vibration     3          0.599              1.964              3.947
 Vibration     4          0.602              1.957              3.674
 Vibration     5          0.610              1.929              3.045
 Vibration     6          0.621              1.895              2.582
 Vibration     7          0.633              1.853              2.226
 Vibration     8          0.640              1.834              2.095
 Vibration     9          0.657              1.782              1.814
 Vibration    10          0.678              1.717              1.555
 Vibration    11          0.681              1.707              1.522
 Vibration    12          0.690              1.681              1.437
 Vibration    13          0.699              1.656              1.366
 Vibration    14          0.719              1.596              1.214
 Vibration    15          0.729              1.570              1.155
 Vibration    16          0.776              1.443              0.918
 Vibration    17          0.797              1.390              0.837
 Vibration    18          0.866              1.225              0.631
 Vibration    19          0.890              1.173              0.576
 Vibration    20          0.911              1.128              0.533
 Vibration    21          0.924              1.100              0.508
 Vibration    22          0.941              1.066              0.478
 Vibration    23          0.980              0.990              0.417

 Optimization completed.
    -- Stationary point found.
 Normal termination of Gaussian 16 at Thu Dec 10 10:07:53 2020.

 ----------------------------------------------------------------------
 # B3LYP/6-311++G(d,p) empiricaldispersion=gd3bj scf=xqc pop=npa geom=c
 heck
 ----------------------------------------------------------------------

 ---------------------------------------
 CID_143628110_JID_4430_Energie_neutraal
 ---------------------------------------
 Structure from the checkpoint file:  "JID_4430.chk"
 Charge =  0 Multiplicity = 1

 SCF Done:  E(RB3LYP) =  -670.750536275     A.U. after   15 cycles
 Normal termination of Gaussian 16 at Thu Dec 10 10:12:48 2020.

 ----------------------------------------------------------------------
 # B3LYP/6-311++G(d,p) empiricaldispersion=gd3bj scf=xqc pop=npa geom=c
 heck
 ----------------------------------------------------------------------

 -------------------------------------
 CID_143628110_JID_4430_Energie_kation
 -------------------------------------
 Structure from the checkpoint file:  "JID_4430.chk"
 Charge =  1 Multiplicity = 2

 SCF Done:  E(UB3LYP) =  -670.453431952     A.U. after   26 cycles
 Normal termination of Gaussian 16 at Thu Dec 10 10:22:01 2020.
 Gaussian 16:  ES64L-G16RevA.03 25-Dec-2016

 ----------------------------------------------------------------------
 # B3LYP/6-311++G(d,p) empiricaldispersion=gd3bj scf=xqc pop=npa geom=c
 heck
 ----------------------------------------------------------------------

 ------------------------------------
 CID_143628110_JID_4430_Energie_anion
 ------------------------------------
 Structure from the checkpoint file:  "JID_4430.chk"
 Charge = -1 Multiplicity = 2

                         Standard orientation:
 ---------------------------------------------------------------------
 Center     Atomic      Atomic             Coordinates (Angstroms)
 Number     Number       Type             X           Y           Z
 ---------------------------------------------------------------------
      1          6           0       -0.569591    2.421339   -0.369829
      2          6           0       -1.497582    1.259621   -0.121982
      3          6           0       -1.024562   -0.047363   -0.293886
      4          6           0       -1.878742   -1.143987   -0.089240
      5          6           0       -3.200346   -0.930809    0.306288
      6          6           0       -3.673105    0.368972    0.480945
      7          6           0       -2.829495    1.455451    0.262444
      8          8           0       -1.360823   -2.393653   -0.300344
      9          8           0        0.270099   -0.227720   -0.718118
     10          6           0        1.157295   -0.852843    0.223650
     11          6           0        2.581280   -0.755756   -0.325843
     12          6           0        3.026710    0.692885   -0.564933
     13          7           0        3.210805    1.343808    0.744905
     14          8           0        3.465567   -1.384048    0.586350
     15          1           0        0.320237    2.371244    0.269083
     16          1           0       -0.209440    2.428674   -1.404585
     17          1           0       -1.074204    3.371680   -0.173341
     18          1           0       -3.855783   -1.784893    0.466815
     19          1           0       -4.703373    0.529085    0.784460
     20          1           0       -3.199549    2.468185    0.395079
     21          1           0       -2.052425   -3.048100   -0.117677
     22          1           0        1.088685   -0.341501    1.194761
     23          1           0        0.888666   -1.901922    0.370340
     24          1           0        2.625821   -1.305781   -1.272854
     25          1           0        4.002054    0.670730   -1.061479
     26          1           0        2.314312    1.203107   -1.225670
     27          1           0        3.812700    2.158318    0.659425
     28          1           0        2.318642    1.677183    1.104339
     29          1           0        3.698087   -0.664353    1.208192
 ---------------------------------------------------------------------

 SCF Done:  E(UB3LYP) =  -670.741618578     A.U. after   31 cycles

 The electronic state is 2-A.
 Alpha  occ. eigenvalues --  -19.05641 -19.04290 -19.01844 -14.20793 -10.13983
 Alpha  occ. eigenvalues --  -10.12750 -10.12287 -10.11714 -10.09869 -10.08846
 Alpha  occ. eigenvalues --  -10.08086 -10.07728 -10.07398 -10.07219  -0.97398
 Alpha  occ. eigenvalues --   -0.95237  -0.92647  -0.79172  -0.76031  -0.68158
 Alpha  occ. eigenvalues --   -0.66603  -0.63212  -0.59506  -0.57945  -0.52398
 Alpha  occ. eigenvalues --   -0.50836  -0.48959  -0.43706  -0.42712  -0.42594
 Alpha  occ. eigenvalues --   -0.39678  -0.38100  -0.37673  -0.37027  -0.35708
 Alpha  occ. eigenvalues --   -0.34324  -0.33051  -0.32504  -0.31412  -0.30998
 Alpha  occ. eigenvalues --   -0.30022  -0.28631  -0.28073  -0.26909  -0.26414
 Alpha  occ. eigenvalues --   -0.25122  -0.23532  -0.23144  -0.18873  -0.18465
 Alpha  occ. eigenvalues --   -0.16203  -0.14490  -0.12843   0.03970
 Alpha virt. eigenvalues --    0.05394   0.06910   0.07967   0.08072   0.08598
 Alpha virt. eigenvalues --    0.09290   0.09480   0.10173   0.10856   0.11343
 Alpha virt. eigenvalues --    0.11540   0.12073   0.13202   0.13400   0.14559

  Beta  occ. eigenvalues --  -19.05590 -19.04289 -19.01837 -14.20733 -10.13983
  Beta  occ. eigenvalues --  -10.12742 -10.12287 -10.11702 -10.09854 -10.08844
  Beta  occ. eigenvalues --  -10.08080 -10.07697 -10.07391 -10.07185  -0.97336
  Beta  occ. eigenvalues --   -0.95197  -0.92632  -0.79077  -0.76006  -0.68125
  Beta  occ. eigenvalues --   -0.66570  -0.63171  -0.59450  -0.57887  -0.52322
  Beta  occ. eigenvalues --   -0.50812  -0.48927  -0.43632  -0.42667  -0.42551
  Beta  occ. eigenvalues --   -0.39646  -0.38053  -0.37632  -0.37009  -0.35664
  Beta  occ. eigenvalues --   -0.34295  -0.32988  -0.32472  -0.31370  -0.30961
  Beta  occ. eigenvalues --   -0.29990  -0.28595  -0.28045  -0.26879  -0.26385
  Beta  occ. eigenvalues --   -0.25093  -0.23505  -0.23127  -0.18861  -0.18446
  Beta  occ. eigenvalues --   -0.16159  -0.14466  -0.12823
  Beta virt. eigenvalues --    0.06419   0.06995   0.07686   0.08155   0.08455
  Beta virt. eigenvalues --    0.08789   0.09309   0.09757   0.10544   0.11294
  Beta virt. eigenvalues --    0.11468   0.11668   0.12301   0.13475   0.13790

 Mulliken charges and spin densities:
               1          2
     1  C    2.145335  -2.619074
     2  C   -1.283141   2.484406
     3  C   -0.832579   0.373341
     4  C    0.843947  -1.056456
     5  C    0.939124  -0.830925
     6  C    0.169795  -0.484292
     7  C   -0.739104   0.024146
     8  O   -0.291454   0.054962
     9  O   -0.092996   0.014110
    10  C    0.008199  -0.339847
    11  C   -0.562147   0.181710
    12  C    0.537517  -0.821946
    13  N   -0.376048  -0.067923
    14  O   -0.221339   0.015185
    15  H   -0.040885   0.150895
    16  H    0.051334   0.115179
    17  H   -0.412036   0.573447
    18  H   -0.906503   1.058516
    19  H   -0.026974   0.188414
    20  H   -0.024467   0.146392
    21  H   -0.277923   0.563834
    22  H    0.037176   0.123969
    23  H    0.179754   0.016941
    24  H    0.185024   0.011191
    25  H   -0.078134   0.277059
    26  H    0.105198   0.034206
    27  H   -0.320370   0.590747
    28  H    0.019967   0.206790
    29  H    0.263729   0.015023
 Sum of Mulliken charges =  -1.00000   1.00000

 Dipole moment (field-independent basis, Debye):
    X=             -0.1164    Y=              1.0601    Z=             -1.3435  Tot=              1.7153
 Quadrupole moment (field-independent basis, Debye-Ang):
   XX=           -156.9012   YY=           -144.3561   ZZ=           -107.3254
   XY=            -20.2001   XZ=             -4.4044   YZ=             -1.0080

 Summary of Natural Population Analysis:

                                       Natural Population
                Natural  -----------------------------------------------
    Atom  No    Charge         Core      Valence    Rydberg      Total
 -----------------------------------------------------------------------
      C    1   -0.29000      0.99963     2.28369    0.00667     3.29000
      C    2   -0.02505      0.99949     2.01565    0.00991     3.02505
      C    3    0.13091      0.99929     1.85526    0.01454     2.86909
      C    4    0.14445      0.99935     1.84279    0.01341     2.85555
      C    5   -0.13658      0.99953     2.12674    0.01031     3.13658
      C    6   -0.09778      0.99957     2.08873    0.00948     3.09778
      C    7   -0.11435      0.99952     2.10593    0.00890     3.11435
      O    8   -0.33954      0.99988     3.33190    0.00776     4.33954
      O    9   -0.29277      0.99986     3.28410    0.00882     4.29277
      C   10   -0.01958      0.99953     2.00890    0.01115     3.01958
      C   11    0.05249      0.99957     1.93444    0.01350     2.94751
      C   12   -0.10569      0.99962     2.09368    0.01239     3.10569
      N   13   -0.43951      0.99977     2.92799    0.01175     3.93951
      O   14   -0.37890      0.99990     3.37204    0.00696     4.37890
      H   15    0.10279      0.00000     0.39531    0.00190     0.39721
      H   16    0.10658      0.00000     0.39233    0.00109     0.39342
      H   17    0.10108      0.00000     0.39787    0.00105     0.39892
      H   18    0.10447      0.00000     0.39252    0.00301     0.39553
      H   19    0.09947      0.00000     0.39971    0.00082     0.40053
      H   20    0.09881      0.00000     0.40025    0.00094     0.40119
      H   21    0.24102      0.00000     0.24818    0.01080     0.25898
      H   22    0.08035      0.00000     0.41820    0.00145     0.41965
      H   23    0.09828      0.00000     0.39996    0.00176     0.40172
      H   24    0.08738      0.00000     0.41126    0.00135     0.41262
      H   25    0.09326      0.00000     0.40571    0.00103     0.40674
      H   26    0.09447      0.00000     0.40381    0.00172     0.40553
      H   27    0.18597      0.00000     0.30905    0.00498     0.31403
      H   28    0.17908      0.00000     0.31826    0.00266     0.32092
      H   29    0.23889      0.00000     0.25779    0.00332     0.26111
 =======================================================================
   * Total *    0.00000     13.99450    38.82206    0.18344    53.00000

 Normal termination of Gaussian 16 at Thu Dec 10 10:31:22 2020.
