 Gaussian 16, Revision A.03,

 -----------------------------------------------------------
 # opt freq B3LYP/6-31G(d) empiricaldispersion=gd3bj scf=xqc
 -----------------------------------------------------------

 ------------------------------
 CID_62138964_JID_3132_neutraal
 ------------------------------
 Symbolic Z-matrix:
 Charge =  0 Multiplicity = 1

 SCF Done:  E(RB3LYP) =  -555.564844211     A.U. after   14 cycles
 SCF Done:  E(RB3LYP) =  -555.572482168     A.U. after   12 cycles
 SCF Done:  E(RB3LYP) =  -555.573676793     A.U. after   11 cycles
 SCF Done:  E(RB3LYP) =  -555.574353887     A.U. after   12 cycles
 SCF Done:  E(RB3LYP) =  -555.574554056     A.U. after   11 cycles
 SCF Done:  E(RB3LYP) =  -555.574647710     A.U. after   11 cycles
 SCF Done:  E(RB3LYP) =  -555.574683559     A.U. after   10 cycles
 SCF Done:  E(RB3LYP) =  -555.574714873     A.U. after   11 cycles
 SCF Done:  E(RB3LYP) =  -555.574745545     A.U. after   11 cycles
 SCF Done:  E(RB3LYP) =  -555.574759231     A.U. after   11 cycles
 SCF Done:  E(RB3LYP) =  -555.574763843     A.U. after    9 cycles
 SCF Done:  E(RB3LYP) =  -555.574764945     A.U. after    9 cycles
 SCF Done:  E(RB3LYP) =  -555.574765978     A.U. after    8 cycles
 SCF Done:  E(RB3LYP) =  -555.574766301     A.U. after    8 cycles
 SCF Done:  E(RB3LYP) =  -555.574766325     A.U. after    6 cycles
 Optimization completed.
    -- Stationary point found.
 Normal termination of Gaussian 16 at Wed Dec  9 22:28:09 2020.

 --------------------------------------------------------------------
 #N Geom=AllCheck Guess=TCheck SCRF=Check GenChk RB3LYP/6-31G(d) Freq
 --------------------------------------------------------------------

 Structure from the checkpoint file:  "JID_3132.chk"
 ------------------------------
 CID_62138964_JID_3132_neutraal
 ------------------------------
 Charge =  0 Multiplicity = 1

 SCF Done:  E(RB3LYP) =  -555.574766325     A.U. after    1 cycles

  Exact polarizability: 143.536  -2.003 120.033   9.969   8.377  93.117
 Approx polarizability: 184.951  -7.549 178.896  18.447  19.695 140.752

                      1                      2                      3
                      A                      A                      A
 Frequencies --     22.5438                45.8985                69.9581
 Red. masses --      3.6580                 2.9132                 3.0968
 Frc consts  --      0.0011                 0.0036                 0.0089
 IR Inten    --      1.2657                 0.3058                 0.8837

                      4                      5                      6
                      A                      A                      A
 Frequencies --     77.5991               118.6173               138.5318
 Red. masses --      2.6403                 4.2428                 2.1668
 Frc consts  --      0.0094                 0.0352                 0.0245
 IR Inten    --      0.2924                 1.0488                 0.8781

                      7                      8                      9
                      A                      A                      A
 Frequencies --    175.1485               193.8864               251.3193
 Red. masses --      3.7564                 1.5152                 1.6249
 Frc consts  --      0.0679                 0.0336                 0.0605
 IR Inten    --      3.0318                 0.2339                 0.6237

                     10                     11                     12
                      A                      A                      A
 Frequencies --    282.0121               287.5972               397.3892
 Red. masses --      2.7433                 2.6804                 2.1552
 Frc consts  --      0.1285                 0.1306                 0.2005
 IR Inten    --      0.7955                 9.0766                 1.8213

                     13                     14                     15
                      A                      A                      A
 Frequencies --    401.0855               424.9002               554.0310
 Red. masses --      3.0897                 2.2017                 3.3890
 Frc consts  --      0.2928                 0.2342                 0.6129
 IR Inten    --      1.8383                 3.7267                21.7644

                     16                     17                     18
                      A                      A                      A
 Frequencies --    594.1279               621.9731               641.4450
 Red. masses --      2.2338                 4.5643                 2.5273
 Frc consts  --      0.4646                 1.0403                 0.6127
 IR Inten    --     49.5899                 3.7631                 4.4312

                     19                     20                     21
                      A                      A                      A
 Frequencies --    662.6592               674.2258               733.6014
 Red. masses --      1.7717                 1.4452                 6.0434
 Frc consts  --      0.4584                 0.3871                 1.9162
 IR Inten    --     10.1940                56.4585                 8.8812

                     22                     23                     24
                      A                      A                      A
 Frequencies --    765.1597               791.5438               805.7371
 Red. masses --      2.0084                 1.6195                 1.3065
 Frc consts  --      0.6928                 0.5978                 0.4997
 IR Inten    --      1.5926                19.5501                 6.5418

                     25                     26                     27
                      A                      A                      A
 Frequencies --    808.2936               825.8707               898.1602
 Red. masses --      1.1648                 1.2619                 2.0962
 Frc consts  --      0.4484                 0.5071                 0.9963
 IR Inten    --      2.7996                 7.7882                 2.3205

                     28                     29                     30
                      A                      A                      A
 Frequencies --    925.5434               941.5008               946.6188
 Red. masses --      2.3735                 2.5400                 2.7649
 Frc consts  --      1.1980                 1.3265                 1.4597
 IR Inten    --      1.1932                 0.9936                 2.4359

                     31                     32                     33
                      A                      A                      A
 Frequencies --    972.3054               983.4703               986.5819
 Red. masses --      2.1588                 1.7795                 1.6488
 Frc consts  --      1.2025                 1.0141                 0.9455
 IR Inten    --      3.9353                 1.3209                 8.1024

                     34                     35                     36
                      A                      A                      A
 Frequencies --   1056.5917              1078.6109              1109.7038
 Red. masses --      2.6705                 2.0298                 1.7092
 Frc consts  --      1.7566                 1.3914                 1.2401
 IR Inten    --      2.6333                 4.9941                12.4149

                     37                     38                     39
                      A                      A                      A
 Frequencies --   1115.5507              1118.8005              1124.2746
 Red. masses --      2.1162                 1.6431                 2.5945
 Frc consts  --      1.5516                 1.2118                 1.9322
 IR Inten    --     12.5376                12.5881                10.5024

                     40                     41                     42
                      A                      A                      A
 Frequencies --   1164.5499              1197.8467              1213.4835
 Red. masses --      1.9137                 2.4406                 1.3469
 Frc consts  --      1.5291                 2.0632                 1.1686
 IR Inten    --     16.5898                13.8385                 1.7999

                     43                     44                     45
                      A                      A                      A
 Frequencies --   1236.7678              1246.2515              1270.3094
 Red. masses --      2.8919                 1.3631                 1.2979
 Frc consts  --      2.6062                 1.2474                 1.2340
 IR Inten    --     11.2171                 3.1392                 0.2625

                     46                     47                     48
                      A                      A                      A
 Frequencies --   1282.7185              1285.1108              1295.7266
 Red. masses --      1.2410                 1.4351                 1.6196
 Frc consts  --      1.2030                 1.3964                 1.6021
 IR Inten    --      0.8541                 0.5907                 0.9118

                     49                     50                     51
                      A                      A                      A
 Frequencies --   1305.4866              1319.0561              1329.1643
 Red. masses --      1.5691                 1.7788                 1.3554
 Frc consts  --      1.5756                 1.8235                 1.4108
 IR Inten    --     19.8530                27.7638                 7.1672

                     52                     53                     54
                      A                      A                      A
 Frequencies --   1370.5438              1404.2794              1409.8852
 Red. masses --      1.3766                 1.6918                 1.8021
 Frc consts  --      1.5235                 1.9657                 2.1106
 IR Inten    --      5.2414                55.1573                 9.8004

                     55                     56                     57
                      A                      A                      A
 Frequencies --   1415.9260              1441.4392              1456.2591
 Red. masses --      1.4420                 1.2546                 1.7366
 Frc consts  --      1.7033                 1.5359                 2.1699
 IR Inten    --     17.8332                11.2297                15.8331

                     58                     59                     60
                      A                      A                      A
 Frequencies --   1500.3561              1509.4658              1515.1842
 Red. masses --      1.1056                 1.0931                 1.0839
 Frc consts  --      1.4664                 1.4675                 1.4661
 IR Inten    --      2.5417                 0.7398                 2.5039

                     61                     62                     63
                      A                      A                      A
 Frequencies --   1517.8014              1522.4147              1533.5129
 Red. masses --      1.0521                 1.0835                 1.1046
 Frc consts  --      1.4280                 1.4795                 1.5305
 IR Inten    --      3.6390                 4.6953                 4.3131

                     64                     65                     66
                      A                      A                      A
 Frequencies --   1541.7923              1554.6937              1563.3744
 Red. masses --      1.1389                 2.0663                 3.9983
 Frc consts  --      1.5951                 2.9426                 5.7577
 IR Inten    --      0.7763               137.9064                16.6123

                     67                     68                     69
                      A                      A                      A
 Frequencies --   1604.5725              3038.2022              3046.0112
 Red. masses --      7.0571                 1.0629                 1.0675
 Frc consts  --     10.7052                 5.7808                 5.8358
 IR Inten    --    200.5125                40.3217                27.3605

                     70                     71                     72
                      A                      A                      A
 Frequencies --   3052.8757              3054.6688              3069.0438
 Red. masses --      1.0361                 1.0641                 1.0606
 Frc consts  --      5.6894                 5.8500                 5.8860
 IR Inten    --     16.6064                51.0926                30.6123

                     73                     74                     75
                      A                      A                      A
 Frequencies --   3071.1910              3093.1646              3105.9659
 Red. masses --      1.0603                 1.0940                 1.1031
 Frc consts  --      5.8927                 6.1667                 6.2700
 IR Inten    --     48.9677                 8.9065                 5.5093

                     76                     77                     78
                      A                      A                      A
 Frequencies --   3106.2798              3112.5435              3125.0440
 Red. masses --      1.0954                 1.1021                 1.1019
 Frc consts  --      6.2272                 6.2907                 6.3403
 IR Inten    --     26.4278                16.1276                24.7911

                     79                     80                     81
                      A                      A                      A
 Frequencies --   3125.1474              3129.6203              3136.3958
 Red. masses --      1.1025                 1.1022                 1.1041
 Frc consts  --      6.3442                 6.3608                 6.3990
 IR Inten    --     39.9594                64.1971                26.7816

                     82                     83                     84
                      A                      A                      A
 Frequencies --   3257.6946              3287.1636              3529.9564
 Red. masses --      1.0911                 1.1040                 1.0740
 Frc consts  --      6.8224                 7.0282                 7.8851
 IR Inten    --      9.5884                 6.4184                 0.6986

 - Thermochemistry -
 -------------------
 Temperature   298.150 Kelvin.  Pressure   1.00000 Atm.
 Atom     1 has atomic number  6 and mass  12.00000

 Molecular mass:   179.14225 amu.
 Principal axes and moments of inertia in atomic units:
                           1         2         3
     Eigenvalues --  1296.840844022.893674653.53671
           X            0.99987  -0.01603   0.00155
           Y            0.01604   0.99985  -0.00679
           Z           -0.00144   0.00681   0.99998
 This molecule is an asymmetric top.
 Rotational symmetry number  1.
 Warning -- assumption of classical behavior for rotation
           may cause significant error
 Rotational temperatures (Kelvin)      0.06679     0.02153     0.01861
 Rotational constants (GHZ):           1.39164     0.44862     0.38782
 Zero-point vibrational energy     699646.8 (Joules/Mol)
                                  167.21960 (Kcal/Mol)
 Warning -- explicit consideration of  16 degrees of freedom as
           vibrations may cause significant error
 Vibrational temperatures:     32.44    66.04   100.65   111.65   170.66
          (Kelvin)            199.32   252.00   278.96   361.59   405.75
                              413.79   571.75   577.07   611.34   797.13
                              854.82   894.88   922.90   953.42   970.06
                             1055.49  1100.89  1138.86  1159.28  1162.95
                             1188.24  1292.25  1331.65  1354.61  1361.97
                             1398.93  1414.99  1419.47  1520.20  1551.88
                             1596.62  1605.03  1609.70  1617.58  1675.53
                             1723.43  1745.93  1779.43  1793.08  1827.69
                             1845.55  1848.99  1864.26  1878.30  1897.83
                             1912.37  1971.91  2020.44  2028.51  2037.20
                             2073.91  2095.23  2158.68  2171.78  2180.01
                             2183.78  2190.42  2206.38  2218.30  2236.86
                             2249.35  2308.62  4371.30  4382.53  4392.41
                             4394.99  4415.67  4418.76  4450.37  4468.79
                             4469.24  4478.26  4496.24  4496.39  4502.83
                             4512.57  4687.10  4729.50  5078.82

 Zero-point correction=                           0.266481 (Hartree/Particle)
 Thermal correction to Energy=                    0.279518
 Thermal correction to Enthalpy=                  0.280462
 Thermal correction to Gibbs Free Energy=         0.225285
 Sum of electronic and zero-point Energies=           -555.308285
 Sum of electronic and thermal Energies=              -555.295248
 Sum of electronic and thermal Enthalpies=            -555.294304
 Sum of electronic and thermal Free Energies=         -555.349481

                     E (Thermal)             CV                S
                      KCal/Mol        Cal/Mol-Kelvin    Cal/Mol-Kelvin
 Total                  175.400             48.902            116.130
 Electronic               0.000              0.000              0.000
 Translational            0.889              2.981             41.456
 Rotational               0.889              2.981             31.563
 Vibrational            173.623             42.940             43.112
 Vibration     1          0.593              1.985              6.396
 Vibration     2          0.595              1.979              4.987
 Vibration     3          0.598              1.968              4.155
 Vibration     4          0.599              1.964              3.951
 Vibration     5          0.609              1.934              3.123
 Vibration     6          0.614              1.915              2.824
 Vibration     7          0.627              1.873              2.380
 Vibration     8          0.635              1.848              2.190
 Vibration     9          0.663              1.761              1.721
 Vibration    10          0.681              1.707              1.521
 Vibration    11          0.685              1.697              1.488
 Vibration    12          0.764              1.476              0.972
 Vibration    13          0.767              1.468              0.959
 Vibration    14          0.787              1.416              0.875
 Vibration    15          0.909              1.131              0.536
 Vibration    16          0.952              1.044              0.460

 Optimization completed.
    -- Stationary point found.
 Normal termination of Gaussian 16 at Wed Dec  9 22:35:39 2020.

 ----------------------------------------------------------------------
 # B3LYP/6-311++G(d,p) empiricaldispersion=gd3bj scf=xqc pop=npa geom=c
 heck
 ----------------------------------------------------------------------

 --------------------------------------
 CID_62138964_JID_3132_Energie_neutraal
 --------------------------------------
 Structure from the checkpoint file:  "JID_3132.chk"
 Charge =  0 Multiplicity = 1

 SCF Done:  E(RB3LYP) =  -555.727399904     A.U. after   14 cycles
 Normal termination of Gaussian 16 at Wed Dec  9 22:39:06 2020.

 ----------------------------------------------------------------------
 # B3LYP/6-311++G(d,p) empiricaldispersion=gd3bj scf=xqc pop=npa geom=c
 heck
 ----------------------------------------------------------------------

 ------------------------------------
 CID_62138964_JID_3132_Energie_kation
 ------------------------------------
 Structure from the checkpoint file:  "JID_3132.chk"
 Charge =  1 Multiplicity = 2

 SCF Done:  E(UB3LYP) =  -555.460105028     A.U. after   19 cycles
 Normal termination of Gaussian 16 at Wed Dec  9 22:46:12 2020.
 Gaussian 16:  ES64L-G16RevA.03 25-Dec-2016

 ----------------------------------------------------------------------
 # B3LYP/6-311++G(d,p) empiricaldispersion=gd3bj scf=xqc pop=npa geom=c
 heck
 ----------------------------------------------------------------------

 -----------------------------------
 CID_62138964_JID_3132_Energie_anion
 -----------------------------------
 Structure from the checkpoint file:  "JID_3132.chk"
 Charge = -1 Multiplicity = 2

                         Standard orientation:
 ---------------------------------------------------------------------
 Center     Atomic      Atomic             Coordinates (Angstroms)
 Number     Number       Type             X           Y           Z
 ---------------------------------------------------------------------
      1          6           0       -2.433377    2.338088   -0.527084
      2          6           0       -2.759309    1.238083    0.486522
      3          7           0       -2.221844   -0.056467    0.105273
      4          6           0       -2.869388   -1.059605   -0.615981
      5          6           0       -1.962911   -2.076162   -0.723259
      6          7           0       -0.765573   -1.737204   -0.115742
      7          6           0       -0.957382   -0.522935    0.364786
      8          7           0       -0.058727    0.213651    1.131114
      9          6           0        1.288597   -0.346685    1.278564
     10          6           0        2.128242   -0.279628    0.010097
     11          6           0        2.483731    1.122298   -0.560842
     12          6           0        3.901947    0.582828   -0.885868
     13          6           0        3.648442   -0.577434    0.112206
     14          1           0       -1.350516    2.462040   -0.643429
     15          1           0       -2.853203    3.297045   -0.204212
     16          1           0       -2.846321    2.089849   -1.509944
     17          1           0       -2.356212    1.486000    1.474606
     18          1           0       -3.842566    1.129717    0.597457
     19          1           0       -3.884640   -0.935406   -0.961311
     20          1           0       -2.089719   -3.035786   -1.205382
     21          1           0       -0.026815    1.193209    0.864287
     22          1           0        1.782445    0.211979    2.084054
     23          1           0        1.175932   -1.383490    1.606801
     24          1           0        1.659796   -0.901811   -0.757845
     25          1           0        1.881202    1.507463   -1.390152
     26          1           0        2.516346    1.882168    0.231603
     27          1           0        4.752936    1.243795   -0.694499
     28          1           0        3.967029    0.220647   -1.916909
     29          1           0        4.035261   -0.341605    1.111414
     30          1           0        3.990507   -1.578761   -0.165911
 ---------------------------------------------------------------------

 SCF Done:  E(UB3LYP) =  -555.714886192     A.U. after   29 cycles

 The electronic state is 2-A.
 Alpha  occ. eigenvalues --  -14.25743 -14.22480 -14.18071 -10.14946 -10.11080
 Alpha  occ. eigenvalues --  -10.09838 -10.08796 -10.07854 -10.07580 -10.07515
 Alpha  occ. eigenvalues --  -10.07192 -10.06773 -10.06079  -0.91973  -0.82275
 Alpha  occ. eigenvalues --   -0.78129  -0.75007  -0.66048  -0.63998  -0.60071
 Alpha  occ. eigenvalues --   -0.56517  -0.54693  -0.52814  -0.49749  -0.46941
 Alpha  occ. eigenvalues --   -0.44997  -0.42876  -0.39485  -0.38803  -0.37207
 Alpha  occ. eigenvalues --   -0.35913  -0.34763  -0.33855  -0.32543  -0.31206
 Alpha  occ. eigenvalues --   -0.30522  -0.29419  -0.28780  -0.27702  -0.27249
 Alpha  occ. eigenvalues --   -0.25677  -0.25436  -0.23438  -0.21763  -0.20983
 Alpha  occ. eigenvalues --   -0.18349  -0.17109  -0.16402  -0.09809   0.04479
 Alpha virt. eigenvalues --    0.06436   0.07432   0.07990   0.08598   0.08680
 Alpha virt. eigenvalues --    0.09316   0.10002   0.10855   0.11124   0.11374
 Alpha virt. eigenvalues --    0.12027   0.12273   0.12924   0.13241   0.13874

  Beta  occ. eigenvalues --  -14.25746 -14.22457 -14.18068 -10.14939 -10.11046
  Beta  occ. eigenvalues --  -10.09828 -10.08778 -10.07853 -10.07569 -10.07510
  Beta  occ. eigenvalues --  -10.07191 -10.06740 -10.06016  -0.91961  -0.82242
  Beta  occ. eigenvalues --   -0.78114  -0.74989  -0.65994  -0.63970  -0.60037
  Beta  occ. eigenvalues --   -0.56472  -0.54590  -0.52781  -0.49720  -0.46900
  Beta  occ. eigenvalues --   -0.44948  -0.42821  -0.39453  -0.38763  -0.37170
  Beta  occ. eigenvalues --   -0.35871  -0.34718  -0.33827  -0.32509  -0.31180
  Beta  occ. eigenvalues --   -0.30498  -0.29388  -0.28716  -0.27642  -0.27201
  Beta  occ. eigenvalues --   -0.25645  -0.25399  -0.23406  -0.21738  -0.20960
  Beta  occ. eigenvalues --   -0.18323  -0.17101  -0.16385  -0.09779
  Beta virt. eigenvalues --    0.06695   0.07439   0.07966   0.08219   0.08944
  Beta virt. eigenvalues --    0.09216   0.09729   0.10485   0.11177   0.11461
  Beta virt. eigenvalues --    0.11717   0.12361   0.12547   0.13153   0.13597

 Mulliken charges and spin densities:
               1          2
     1  C    2.202746  -2.557963
     2  C   -0.940646   0.640669
     3  N    0.030757   0.069748
     4  C   -0.245956   0.105450
     5  C    0.614928  -0.685593
     6  N   -0.148991   0.021796
     7  C   -0.093426  -0.456909
     8  N   -0.006205   0.035827
     9  C    0.456062  -1.037326
    10  C   -0.684543   1.217866
    11  C    0.810870  -1.272593
    12  C   -0.358928   0.073709
    13  C   -0.223811  -0.292451
    14  H   -0.384363   0.519957
    15  H   -0.751378   0.903645
    16  H   -0.232454   0.381733
    17  H   -0.206123   0.384527
    18  H   -0.550261   0.722364
    19  H   -0.454924   0.616610
    20  H    0.113828   0.019264
    21  H    0.109586   0.150372
    22  H   -0.160680   0.343726
    23  H    0.189187  -0.008542
    24  H    0.155349   0.059874
    25  H    0.054536   0.078289
    26  H   -0.429741   0.586561
    27  H   -0.097696   0.250166
    28  H    0.088407   0.029882
    29  H    0.046193   0.069385
    30  H    0.097677   0.029958
 Sum of Mulliken charges =  -1.00000   1.00000

 Dipole moment (field-independent basis, Debye):
    X=              4.9323    Y=             -6.8187    Z=             -0.7489  Tot=              8.4489
 Quadrupole moment (field-independent basis, Debye-Ang):
   XX=           -152.3649   YY=           -135.8494   ZZ=           -108.9776
   XY=              8.9443   XZ=             -2.5118   YZ=             -1.6392

 Summary of Natural Population Analysis:

                                       Natural Population
                Natural  -----------------------------------------------
    Atom  No    Charge         Core      Valence    Rydberg      Total
 -----------------------------------------------------------------------
      C    1   -0.28743      0.99966     2.28255    0.00522     3.28743
      C    2   -0.08613      0.99963     2.07525    0.01126     3.08613
      N    3   -0.21918      0.99962     2.70862    0.01094     3.71918
      C    4   -0.04344      0.99955     2.03161    0.01228     3.04344
      C    5   -0.03659      0.99958     2.02405    0.01296     3.03659
      N    6   -0.29039      0.99969     2.78210    0.00860     3.79039
      C    7    0.28850      0.99959     1.69466    0.01725     2.71150
      N    8   -0.32494      0.99969     2.81516    0.01010     3.82494
      C    9   -0.08498      0.99959     2.07258    0.01281     3.08498
      C   10   -0.12132      0.99959     2.11180    0.00993     3.12132
      C   11   -0.19133      0.99963     2.18206    0.00964     3.19133
      C   12   -0.18954      0.99965     2.18142    0.00847     3.18954
      C   13   -0.18705      0.99963     2.17966    0.00776     3.18705
      H   14    0.09718      0.00000     0.40074    0.00208     0.40282
      H   15    0.10686      0.00000     0.38921    0.00393     0.39314
      H   16    0.10043      0.00000     0.39790    0.00167     0.39957
      H   17    0.10308      0.00000     0.39500    0.00191     0.39692
      H   18    0.10171      0.00000     0.39591    0.00238     0.39829
      H   19    0.10362      0.00000     0.39532    0.00106     0.39638
      H   20    0.09299      0.00000     0.40620    0.00082     0.40701
      H   21    0.19016      0.00000     0.30621    0.00363     0.30984
      H   22    0.09296      0.00000     0.40592    0.00112     0.40704
      H   23    0.10389      0.00000     0.39477    0.00134     0.39611
      H   24    0.10891      0.00000     0.38948    0.00161     0.39109
      H   25    0.09893      0.00000     0.39993    0.00114     0.40107
      H   26    0.09729      0.00000     0.40040    0.00231     0.40271
      H   27    0.09467      0.00000     0.40428    0.00104     0.40533
      H   28    0.09321      0.00000     0.40578    0.00101     0.40679
      H   29    0.09386      0.00000     0.40499    0.00115     0.40614
      H   30    0.09410      0.00000     0.40513    0.00077     0.40590
 =======================================================================
   * Total *   -0.00000     12.99511    35.83870    0.16619    49.00000

 Normal termination of Gaussian 16 at Wed Dec  9 22:57:07 2020.
