 Gaussian 16, Revision A.03,

 -----------------------------------------------------------
 # opt freq B3LYP/6-31G(d) empiricaldispersion=gd3bj scf=xqc
 -----------------------------------------------------------

 ------------------------------
 CID_14905943_JID_8892_neutraal
 ------------------------------
 Symbolic Z-matrix:
 Charge =  0 Multiplicity = 1

 SCF Done:  E(RB3LYP) =  -2129.94369157     A.U. after   16 cycles
 SCF Done:  E(RB3LYP) =  -2129.95463236     A.U. after   13 cycles
 SCF Done:  E(RB3LYP) =  -2129.95564130     A.U. after   12 cycles
 SCF Done:  E(RB3LYP) =  -2129.95571429     A.U. after   10 cycles
 SCF Done:  E(RB3LYP) =  -2129.95572474     A.U. after    9 cycles
 Optimization completed.
    -- Stationary point found.

 1\1\GINC-NODE302\FOpt\RB3LYP\6-31G(d)\C14H6S4\VSC10255\11-Dec-2020\0\\
 # opt freq B3LYP/6-31G(d) empiricaldispersion=gd3bj scf=xqc\\CID_14905
 943_JID_8892_neutraal\\0,1\C,-3.5663356946,-0.712818124,-0.0008965822\
 C,-3.5759452185,0.7073255936,-0.0009368843\C,-2.3968304399,1.407123308
 ,-0.0007754064\C,-1.1389972725,0.7391222063,-0.0005664408\C,-1.1291803
 205,-0.7116309958,-0.0005281736\C,-2.3778578566,-1.3965938112,-0.00069
 88014\C,0.1090972111,-1.3872862742,-0.0003249951\C,1.3123366849,-0.680
 6518004,-0.0001607822\C,2.5589308422,-1.3669005263,0.00004267\C,3.7441

 Normal termination of Gaussian 16 at Fri Dec 11 21:08:33 2020.

 --------------------------------------------------------------------
 #N Geom=AllCheck Guess=TCheck SCRF=Check GenChk RB3LYP/6-31G(d) Freq
 --------------------------------------------------------------------

 Structure from the checkpoint file:  "JID_8892.chk"
 ------------------------------
 CID_14905943_JID_8892_neutraal
 ------------------------------
 Charge =  0 Multiplicity = 1

 SCF Done:  E(RB3LYP) =  -2129.95572474     A.U. after    1 cycles

  Exact polarizability: 301.676  -0.000 315.623  -0.006   0.037  72.702
 Approx polarizability: 607.227  -0.000 599.485  -0.012   0.072 122.537

                      1                      2                      3
                      A                      A                      A
 Frequencies --     58.2140                60.1891                81.9823
 Red. masses --     13.8077                28.3210                 6.8670
 Frc consts  --      0.0276                 0.0604                 0.0272
 IR Inten    --      0.3821                 0.0000                 0.5689

                      4                      5                      6
                      A                      A                      A
 Frequencies --    113.9413               114.3180               194.1834
 Red. masses --      3.8892                 9.6450                 7.0356
 Frc consts  --      0.0297                 0.0743                 0.1563
 IR Inten    --      0.0000                 0.4405                 1.0026

                      7                      8                      9
                      A                      A                      A
 Frequencies --    238.4598               256.0280               288.1595
 Red. masses --      5.2550                14.8906                 7.4177
 Frc consts  --      0.1761                 0.5751                 0.3629
 IR Inten    --      0.0980                 0.9335                 0.0000

                     10                     11                     12
                      A                      A                      A
 Frequencies --    330.0601               331.2829               357.3585
 Red. masses --      7.0674                23.6586                13.5424
 Frc consts  --      0.4536                 1.5298                 1.0189
 IR Inten    --      0.0000                 0.0791                 0.2007

                     13                     14                     15
                      A                      A                      A
 Frequencies --    386.0838               413.5410               426.5199
 Red. masses --     14.6317                 3.7398                 8.2790
 Frc consts  --      1.2850                 0.3768                 0.8874
 IR Inten    --      1.3882                 0.5599                17.0491

                     16                     17                     18
                      A                      A                      A
 Frequencies --    463.7421               470.8978               491.8892
 Red. masses --     11.1673                 7.5738                22.8530
 Frc consts  --      1.4150                 0.9895                 3.2578
 IR Inten    --      4.1882                 0.0288                 0.2093

                     19                     20                     21
                      A                      A                      A
 Frequencies --    493.0664               496.7596               522.4531
 Red. masses --      3.9733                14.0839                 4.1952
 Frc consts  --      0.5691                 2.0477                 0.6747
 IR Inten    --      0.0000                 0.1652                 7.8689

                     22                     23                     24
                      A                      A                      A
 Frequencies --    581.8985               586.9734               628.6188
 Red. masses --      4.3583                10.1560                 7.4019
 Frc consts  --      0.8695                 2.0616                 1.7233
 IR Inten    --      0.0000                26.2443                 0.0777

                     25                     26                     27
                      A                      A                      A
 Frequencies --    647.4801               669.6473               730.2091
 Red. masses --      6.7810                 8.5846                 8.6342
 Frc consts  --      1.6749                 2.2681                 2.7125
 IR Inten    --      2.5097                 7.9978                10.7197

                     28                     29                     30
                      A                      A                      A
 Frequencies --    734.3053               763.4502               773.7126
 Red. masses --      6.3328                 1.4150                 4.0070
 Frc consts  --      2.0119                 0.4859                 1.4133
 IR Inten    --      0.0000                49.1692                 0.0000

                     31                     32                     33
                      A                      A                      A
 Frequencies --    780.3110               805.0203               860.1549
 Red. masses --      8.7458                 1.2787                 1.6873
 Frc consts  --      3.1375                 0.4882                 0.7355
 IR Inten    --      2.6430                27.5320                 0.0000

                     34                     35                     36
                      A                      A                      A
 Frequencies --    905.8766               923.8212               945.6441
 Red. masses --      1.3355                 8.0367                 1.3212
 Frc consts  --      0.6457                 4.0411                 0.6961
 IR Inten    --      0.0000                 3.8829                 0.0333

                     37                     38                     39
                      A                      A                      A
 Frequencies --    951.4549               984.2299               995.0022
 Red. masses --      6.9059                 1.2921                 8.3734
 Frc consts  --      3.6834                 0.7374                 4.8843
 IR Inten    --     21.9430                 0.0000                 9.1842

                     40                     41                     42
                      A                      A                      A
 Frequencies --   1003.3914              1060.5112              1124.2433
 Red. masses --      7.6110                 2.3216                 1.9274
 Frc consts  --      4.5147                 1.5384                 1.4353
 IR Inten    --      0.0844                 4.6908                18.0817

                     43                     44                     45
                      A                      A                      A
 Frequencies --   1159.9711              1198.4053              1214.3728
 Red. masses --      2.1860                 1.1628                 1.7352
 Frc consts  --      1.7330                 0.9839                 1.5077
 IR Inten    --     18.5312                 2.4330                47.5551

                     46                     47                     48
                      A                      A                      A
 Frequencies --   1286.9552              1292.8339              1318.9789
 Red. masses --      3.1282                 1.6858                 3.8386
 Frc consts  --      3.0526                 1.6602                 3.9345
 IR Inten    --     10.3215                37.7546                26.5928

                     49                     50                     51
                      A                      A                      A
 Frequencies --   1349.3869              1378.8492              1412.4951
 Red. masses --      4.9038                 5.3086                 1.8864
 Frc consts  --      5.2608                 5.9466                 2.2175
 IR Inten    --    145.6538                34.7751                 9.8585

                     52                     53                     54
                      A                      A                      A
 Frequencies --   1426.0439              1454.3772              1490.1145
 Red. masses --      5.1940                 7.1092                 2.7271
 Frc consts  --      6.2233                 8.8599                 3.5677
 IR Inten    --      6.2752                 4.4014                 1.0477

                     55                     56                     57
                      A                      A                      A
 Frequencies --   1523.0498              1566.3022              1595.4245
 Red. masses --      2.8104                 5.0797                 7.1137
 Frc consts  --      3.8410                 7.3425                10.6683
 IR Inten    --      0.9969                 0.9458                31.1696

                     58                     59                     60
                      A                      A                      A
 Frequencies --   1601.7198              1628.5755              1677.4988
 Red. masses --      7.7872                 7.7310                 5.4415
 Frc consts  --     11.7707                12.0809                 9.0218
 IR Inten    --      4.7822                26.7487                32.8516

                     61                     62                     63
                      A                      A                      A
 Frequencies --   3183.4566              3186.5019              3203.7831
 Red. masses --      1.0866                 1.0885                 1.0926
 Frc consts  --      6.4880                 6.5117                 6.6078
 IR Inten    --      1.2499                 1.8265                17.1059

                     64                     65                     66
                      A                      A                      A
 Frequencies --   3205.3969              3217.1683              3218.9118
 Red. masses --      1.0881                 1.0970                 1.0938
 Frc consts  --      6.5866                 6.6897                 6.6771
 IR Inten    --      9.2364                24.0446                 7.4247

 - Thermochemistry -
 -------------------
 Temperature   298.150 Kelvin.  Pressure   1.00000 Atm.
 Atom     1 has atomic number  6 and mass  12.00000

 Molecular mass:   301.93524 amu.
 Principal axes and moments of inertia in atomic units:
                           1         2         3
     Eigenvalues --  4881.744685368.78150**********
           X            1.00000  -0.00000   0.00002
           Y            0.00000   1.00000  -0.00015
           Z           -0.00002   0.00015   1.00000
 This molecule is an asymmetric top.
 Rotational symmetry number  1.
 Warning -- assumption of classical behavior for rotation
           may cause significant error
 Rotational temperatures (Kelvin)      0.01774     0.01613     0.00845
 Rotational constants (GHZ):           0.36969     0.33615     0.17606
 Zero-point vibrational energy     411728.7 (Joules/Mol)
                                   98.40552 (Kcal/Mol)
 Warning -- explicit consideration of  23 degrees of freedom as
           vibrations may cause significant error
 Vibrational temperatures:     83.76    86.60   117.95   163.94   164.48
          (Kelvin)            279.39   343.09   368.37   414.60   474.88
                              476.64   514.16   555.49   594.99   613.67
                              667.22   677.52   707.72   709.41   714.73
                              751.69   837.22   844.52   904.44   931.58
                              963.47  1050.61  1056.50  1098.43  1113.20
                             1122.69  1158.24  1237.57  1303.35  1329.17
                             1360.57  1368.93  1416.09  1431.59  1443.66
                             1525.84  1617.54  1668.94  1724.24  1747.21
                             1851.64  1860.10  1897.72  1941.47  1983.86
                             2032.27  2051.76  2092.52  2143.94  2191.33
                             2253.56  2295.46  2304.52  2343.16  2413.55
                             4580.28  4584.67  4609.53  4611.85  4628.79
                             4631.30

 Zero-point correction=                           0.156819 (Hartree/Particle)
 Thermal correction to Energy=                    0.170720
 Thermal correction to Enthalpy=                  0.171664
 Thermal correction to Gibbs Free Energy=         0.115193
 Sum of electronic and zero-point Energies=          -2129.798906
 Sum of electronic and thermal Energies=             -2129.785005
 Sum of electronic and thermal Enthalpies=           -2129.784060
 Sum of electronic and thermal Free Energies=        -2129.840531

                     E (Thermal)             CV                S
                      KCal/Mol        Cal/Mol-Kelvin    Cal/Mol-Kelvin
 Total                  107.128             54.918            118.853
 Electronic               0.000              0.000              0.000
 Translational            0.889              2.981             43.012
 Rotational               0.889              2.981             33.951
 Vibrational            105.351             48.957             41.890
 Vibration     1          0.596              1.974              4.517
 Vibration     2          0.597              1.973              4.451
 Vibration     3          0.600              1.961              3.843
 Vibration     4          0.607              1.938              3.201
 Vibration     5          0.607              1.938              3.194
 Vibration     6          0.635              1.848              2.188
 Vibration     7          0.656              1.782              1.814
 Vibration     8          0.666              1.753              1.689
 Vibration     9          0.685              1.696              1.485
 Vibration    10          0.713              1.615              1.260
 Vibration    11          0.714              1.613              1.254
 Vibration    12          0.733              1.560              1.134
 Vibration    13          0.755              1.500              1.015
 Vibration    14          0.777              1.441              0.914
 Vibration    15          0.788              1.413              0.870
 Vibration    16          0.821              1.330              0.755
 Vibration    17          0.828              1.315              0.735
 Vibration    18          0.848              1.268              0.679
 Vibration    19          0.849              1.265              0.676
 Vibration    20          0.852              1.257              0.666
 Vibration    21          0.877              1.200              0.604
 Vibration    22          0.939              1.070              0.482
 Vibration    23          0.944              1.060              0.473

 Optimization completed.
    -- Stationary point found.

 1\1\GINC-NODE302\Freq\RB3LYP\6-31G(d)\C14H6S4\VSC10255\11-Dec-2020\0\\
 #N Geom=AllCheck Guess=TCheck SCRF=Check GenChk RB3LYP/6-31G(d) Freq\\
 CID_14905943_JID_8892_neutraal\\0,1\C,-3.5663356946,-0.712818124,-0.00
 08965822\C,-3.5759452185,0.7073255936,-0.0009368843\C,-2.3968304399,1.
 407123308,-0.0007754064\C,-1.1389972725,0.7391222063,-0.0005664408\C,-
 1.1291803205,-0.7116309958,-0.0005281736\C,-2.3778578566,-1.3965938112
 ,-0.0006988014\C,0.1090972111,-1.3872862742,-0.0003249951\C,1.31233668
 49,-0.6806518004,-0.0001607822\C,2.5589308422,-1.3669005263,0.00004267

 Normal termination of Gaussian 16 at Fri Dec 11 21:18:57 2020.

 ----------------------------------------------------------------------
 # B3LYP/6-311++G(d,p) empiricaldispersion=gd3bj scf=xqc pop=npa geom=c
 heck
 ----------------------------------------------------------------------

 --------------------------------------
 CID_14905943_JID_8892_Energie_neutraal
 --------------------------------------
 Structure from the checkpoint file:  "JID_8892.chk"
 Charge =  0 Multiplicity = 1

 SCF Done:  E(RB3LYP) =  -2130.18175220     A.U. after   16 cycles
 Normal termination of Gaussian 16 at Fri Dec 11 21:23:12 2020.

 ----------------------------------------------------------------------
 # B3LYP/6-311++G(d,p) empiricaldispersion=gd3bj scf=xqc pop=npa geom=c
 heck
 ----------------------------------------------------------------------

 ------------------------------------
 CID_14905943_JID_8892_Energie_kation
 ------------------------------------
 Structure from the checkpoint file:  "JID_8892.chk"
 Charge =  1 Multiplicity = 2

 SCF Done:  E(UB3LYP) =  -2129.94997969     A.U. after   19 cycles
 Normal termination of Gaussian 16 at Fri Dec 11 21:30:00 2020.
 Gaussian 16:  ES64L-G16RevA.03 25-Dec-2016

 -----------------------------------
 CID_14905943_JID_8892_Energie_anion
 -----------------------------------
 Structure from the checkpoint file:  "JID_8892.chk"
 Charge = -1 Multiplicity = 2

                         Standard orientation:
 ---------------------------------------------------------------------
 Center     Atomic      Atomic             Coordinates (Angstroms)
 Number     Number       Type             X           Y           Z
 ---------------------------------------------------------------------
      1          6           0        0.710086    4.138720    0.000606
      2          6           0       -0.710090    4.138719    0.000646
      3          6           0       -1.401892    2.954895    0.000485
      4          6           0       -0.725394    1.701611    0.000276
      5          6           0        0.725392    1.701612    0.000238
      6          6           0        1.401889    2.954896    0.000408
      7          6           0        1.409411    0.467935    0.000034
      8          6           0        0.710936   -0.740059   -0.000130
      9          6           0        1.405605   -1.981980   -0.000333
     10          6           0        0.712059   -3.171916   -0.000495
     11          6           0       -0.712055   -3.171917   -0.000461
     12          6           0       -1.405603   -1.981982   -0.000265
     13          6           0       -0.710935   -0.740059   -0.000095
     14          6           0       -1.409412    0.467934    0.000106
     15         16           0       -3.182061    0.314814    0.000131
     16         16           0       -3.178341   -1.823444   -0.000204
     17         16           0        3.178343   -1.823441   -0.000349
     18         16           0        3.182060    0.314817   -0.000036
     19          1           0        1.247762    5.081906    0.000733
     20          1           0       -1.247768    5.081904    0.000805
     21          1           0       -2.488575    2.962671    0.000516
     22          1           0        2.488571    2.962671    0.000379
     23          1           0        1.236347   -4.121773   -0.000650
     24          1           0       -1.236342   -4.121775   -0.000591
 ---------------------------------------------------------------------

 SCF Done:  E(UB3LYP) =  -2130.21713705     A.U. after   21 cycles

 The electronic state is 2-A.
 Alpha  occ. eigenvalues --  -88.76316 -88.76316 -88.76043 -88.76043 -10.08818
 Alpha  occ. eigenvalues --  -10.08817 -10.07401 -10.07401 -10.07218 -10.07173
 Alpha  occ. eigenvalues --  -10.06768 -10.06731 -10.06128 -10.06084 -10.04812
 Alpha  occ. eigenvalues --  -10.04767 -10.04455 -10.04454  -7.84822  -7.84821
 Alpha  occ. eigenvalues --   -7.84524  -7.84523  -5.81304  -5.81304  -5.81034
 Alpha  occ. eigenvalues --   -5.81034  -5.80848  -5.80848  -5.80529  -5.80529
 Alpha  occ. eigenvalues --   -5.80125  -5.80125  -5.79822  -5.79822  -0.78859
 Alpha  occ. eigenvalues --   -0.74372  -0.73948  -0.69571  -0.67576  -0.66048
 Alpha  occ. eigenvalues --   -0.62556  -0.61893  -0.59614  -0.58271  -0.51608
 Alpha  occ. eigenvalues --   -0.51438  -0.50635  -0.45714  -0.45457  -0.42041
 Alpha  occ. eigenvalues --   -0.40842  -0.35948  -0.35170  -0.34365  -0.33974
 Alpha  occ. eigenvalues --   -0.33120  -0.30779  -0.30566  -0.29773  -0.27340
 Alpha  occ. eigenvalues --   -0.26445  -0.25723  -0.25525  -0.24869  -0.24667
 Alpha  occ. eigenvalues --   -0.23611  -0.22592  -0.22360  -0.20744  -0.20742
 Alpha  occ. eigenvalues --   -0.19010  -0.18320  -0.14545  -0.13253  -0.11928
 Alpha  occ. eigenvalues --   -0.11511  -0.04896   0.01501
 Alpha virt. eigenvalues --    0.05060   0.05189   0.08345   0.08685   0.09239
 Alpha virt. eigenvalues --    0.09708   0.10193   0.10293   0.10370   0.11167
 Alpha virt. eigenvalues --    0.11907   0.13062   0.13261   0.13595   0.14304

  Beta  occ. eigenvalues --  -88.76305 -88.76305 -88.76029 -88.76029 -10.08653
  Beta  occ. eigenvalues --  -10.08652 -10.07275 -10.07231 -10.07045 -10.07044
  Beta  occ. eigenvalues --  -10.06831 -10.06795 -10.06099 -10.06056 -10.04741
  Beta  occ. eigenvalues --  -10.04697 -10.04262 -10.04261  -7.84811  -7.84811
  Beta  occ. eigenvalues --   -7.84512  -7.84511  -5.81299  -5.81299  -5.81029
  Beta  occ. eigenvalues --   -5.81029  -5.80846  -5.80846  -5.80532  -5.80532
  Beta  occ. eigenvalues --   -5.80083  -5.80083  -5.79767  -5.79767  -0.78605
  Beta  occ. eigenvalues --   -0.74124  -0.73702  -0.69282  -0.67482  -0.65675
  Beta  occ. eigenvalues --   -0.62427  -0.61615  -0.59309  -0.58086  -0.51379
  Beta  occ. eigenvalues --   -0.51198  -0.50522  -0.45452  -0.45212  -0.41674
  Beta  occ. eigenvalues --   -0.40725  -0.35846  -0.34979  -0.34284  -0.33835
  Beta  occ. eigenvalues --   -0.33002  -0.30429  -0.30116  -0.29631  -0.27230
  Beta  occ. eigenvalues --   -0.26315  -0.25046  -0.24888  -0.24765  -0.24488
  Beta  occ. eigenvalues --   -0.23544  -0.22428  -0.22289  -0.20660  -0.19923
  Beta  occ. eigenvalues --   -0.18649  -0.17373  -0.13879  -0.12798  -0.11164
  Beta  occ. eigenvalues --   -0.10874  -0.03755
  Beta virt. eigenvalues --    0.05096   0.05222   0.06225   0.08316   0.08657
  Beta virt. eigenvalues --    0.09226   0.09718   0.10335   0.10391   0.11162
  Beta virt. eigenvalues --    0.11370   0.11931   0.13072   0.13260   0.14336

 Mulliken charges and spin densities:
               1          2
     1  C   -0.531929   0.052612
     2  C   -0.531927   0.052612
     3  C   -0.237298   0.125298
     4  C    1.160028  -0.014827
     5  C    1.160029  -0.014827
     6  C   -0.237298   0.125298
     7  C    0.083501   0.214278
     8  C   -0.052707  -0.032176
     9  C    0.002687   0.079111
    10  C    0.372508   0.047062
    11  C    0.372508   0.047062
    12  C    0.002688   0.079111
    13  C   -0.052707  -0.032176
    14  C    0.083501   0.214277
    15  S   -0.930744   0.031838
    16  S   -0.675030   0.018917
    17  S   -0.675029   0.018917
    18  S   -0.930744   0.031838
    19  H    0.124590  -0.004077
    20  H    0.124590  -0.004077
    21  H    0.052080  -0.015163
    22  H    0.052079  -0.015163
    23  H    0.132313  -0.002872
    24  H    0.132313  -0.002872
 Sum of Mulliken charges =  -1.00000   1.00000

 Dipole moment (field-independent basis, Debye):
    X=              0.0000    Y=             -1.3323    Z=             -0.0002  Tot=              1.3323
 Quadrupole moment (field-independent basis, Debye-Ang):
   XX=           -164.5591   YY=           -158.6961   ZZ=           -146.7825
   XY=             -0.0000   XZ=              0.0004   YZ=             -0.0018

 Summary of Natural Population Analysis:

                                       Natural Population
                Natural  -----------------------------------------------
    Atom  No    Charge         Core      Valence    Rydberg      Total
 -----------------------------------------------------------------------
      C    1   -0.09526      0.99957     2.08608    0.00960     3.09526
      C    2   -0.09920      0.99960     2.08940    0.01020     3.09920
      C    3   -0.05481      0.99944     2.04610    0.00927     3.05481
      C    4   -0.05028      0.99947     2.04069    0.01012     3.05028
      C    5   -0.06094      0.99950     2.04729    0.01415     3.06094
      C    6   -0.06354      0.99953     2.05348    0.01052     3.06354
      C    7    0.03109      0.99926     1.96115    0.00851     2.96891
      C    8   -0.05752      0.99936     2.04626    0.01190     3.05752
      C    9   -0.05662      0.99938     2.04562    0.01162     3.05662
      C   10   -0.12253      0.99952     2.11172    0.01129     3.12253
      C   11   -0.11290      0.99940     2.10255    0.01095     3.11290
      C   12   -0.05028      0.99928     2.04026    0.01075     3.05028
      C   13   -0.04831      0.99933     2.03928    0.00971     3.04831
      C   14   -0.00753      0.99927     1.99830    0.00996     3.00753
      S   15    0.07546      4.99956     2.90387    0.02111     7.92454
      S   16    0.07093      4.99954     2.91017    0.01936     7.92907
      S   17    0.06715      4.99955     2.91063    0.02268     7.93285
      S   18    0.07302      4.99957     2.90512    0.02229     7.92698
      H   19    0.09108      0.00000     0.40786    0.00106     0.40892
      H   20    0.09110      0.00000     0.40782    0.00108     0.40890
      H   21    0.09355      0.00000     0.40457    0.00188     0.40645
      H   22    0.09371      0.00000     0.40436    0.00193     0.40629
      H   23    0.09681      0.00000     0.40194    0.00124     0.40319
      H   24    0.09611      0.00000     0.40220    0.00169     0.40389
 =======================================================================
   * Total *    0.00030     33.99011    42.76671    0.24288    76.99970

 Normal termination of Gaussian 16 at Fri Dec 11 21:37:37 2020.
