 Gaussian 16, Revision A.03,

 -----------------------------------------------------------
 # opt freq B3LYP/6-31G(d) empiricaldispersion=gd3bj scf=xqc
 -----------------------------------------------------------

 -------------------------------
 CID_104788666_JID_5590_neutraal
 -------------------------------
 Symbolic Z-matrix:
 Charge =  0 Multiplicity = 1

 SCF Done:  E(RB3LYP) =  -654.046224566     A.U. after   15 cycles
 SCF Done:  E(RB3LYP) =  -654.057422410     A.U. after   14 cycles
 SCF Done:  E(RB3LYP) =  -654.056704860     A.U. after   13 cycles
 SCF Done:  E(RB3LYP) =  -654.061426899     A.U. after   14 cycles
 SCF Done:  E(RB3LYP) =  -654.064457474     A.U. after   15 cycles
 SCF Done:  E(RB3LYP) =  -654.067304327     A.U. after   13 cycles
 SCF Done:  E(RB3LYP) =  -654.071241614     A.U. after   15 cycles
 SCF Done:  E(RB3LYP) =  -654.073402106     A.U. after   14 cycles
 SCF Done:  E(RB3LYP) =  -654.075083569     A.U. after   13 cycles
 SCF Done:  E(RB3LYP) =  -654.076727962     A.U. after   12 cycles
 SCF Done:  E(RB3LYP) =  -654.083646499     A.U. after   10 cycles
 SCF Done:  E(RB3LYP) =  -654.083661131     A.U. after   10 cycles
 SCF Done:  E(RB3LYP) =  -654.083669071     A.U. after    9 cycles
 SCF Done:  E(RB3LYP) =  -654.083680541     A.U. after   10 cycles
 SCF Done:  E(RB3LYP) =  -654.083686560     A.U. after    9 cycles
 SCF Done:  E(RB3LYP) =  -654.083687679     A.U. after    8 cycles
 Optimization completed.
    -- Stationary point found.
 Normal termination of Gaussian 16 at Thu Dec 10 16:53:29 2020.

 --------------------------------------------------------------------
 #N Geom=AllCheck Guess=TCheck SCRF=Check GenChk RB3LYP/6-31G(d) Freq
 --------------------------------------------------------------------

 Structure from the checkpoint file:  "JID_5590.chk"
 -------------------------------
 CID_104788666_JID_5590_neutraal
 -------------------------------
 Charge =  0 Multiplicity = 1

 SCF Done:  E(RB3LYP) =  -654.083687679     A.U. after    1 cycles

  Exact polarizability: 191.520   3.494 125.098   4.734   3.086 112.418
 Approx polarizability: 266.962   7.494 184.433  11.414   5.812 162.703

                      1                      2                      3
                      A                      A                      A
 Frequencies --     29.7107                53.3037                64.0016
 Red. masses --      5.0604                 3.2139                 3.5845
 Frc consts  --      0.0026                 0.0054                 0.0087
 IR Inten    --      1.5948                 0.9268                 0.7411

                      4                      5                      6
                      A                      A                      A
 Frequencies --    117.9091               133.8687               147.9961
 Red. masses --      1.8284                 2.8653                 2.9211
 Frc consts  --      0.0150                 0.0303                 0.0377
 IR Inten    --      1.8500                 0.1298                 1.1582

                      7                      8                      9
                      A                      A                      A
 Frequencies --    148.5435               198.4407               230.2959
 Red. masses --      3.7607                 1.0771                 2.5042
 Frc consts  --      0.0489                 0.0250                 0.0783
 IR Inten    --      1.2779                 0.0529                 3.2357

                     10                     11                     12
                      A                      A                      A
 Frequencies --    245.0161               276.7473               308.8145
 Red. masses --      4.2450                 1.3714                 2.2599
 Frc consts  --      0.1501                 0.0619                 0.1270
 IR Inten    --      1.8131                 1.6280                 1.2288

                     13                     14                     15
                      A                      A                      A
 Frequencies --    324.2929               351.6771               419.4838
 Red. masses --      2.8322                 2.2575                 1.8972
 Frc consts  --      0.1755                 0.1645                 0.1967
 IR Inten    --      1.9897                 0.7727                 3.0022

                     16                     17                     18
                      A                      A                      A
 Frequencies --    441.0670               446.4105               507.5389
 Red. masses --      2.8851                 3.8070                 1.6807
 Frc consts  --      0.3307                 0.4470                 0.2551
 IR Inten    --      6.7629                12.5497                36.2775

                     19                     20                     21
                      A                      A                      A
 Frequencies --    516.6776               533.1671               541.0064
 Red. masses --      3.0883                 1.8204                 2.8084
 Frc consts  --      0.4857                 0.3049                 0.4843
 IR Inten    --      4.3346                36.7561                 9.2215

                     22                     23                     24
                      A                      A                      A
 Frequencies --    557.6532               576.8205               631.8012
 Red. masses --      2.7715                 2.7874                 5.7456
 Frc consts  --      0.5078                 0.5464                 1.3513
 IR Inten    --      1.8508                45.6047                10.8253

                     25                     26                     27
                      A                      A                      A
 Frequencies --    662.7740               704.6117               756.7533
 Red. masses --      3.0291                 2.1585                 4.0526
 Frc consts  --      0.7840                 0.6314                 1.3674
 IR Inten    --      2.2699                 4.5831                32.0943

                     28                     29                     30
                      A                      A                      A
 Frequencies --    826.7357               827.7692               843.8678
 Red. masses --      1.6961                 1.5250                 2.5363
 Frc consts  --      0.6830                 0.6157                 1.0641
 IR Inten    --     20.2128                 7.0796                 5.2063

                     31                     32                     33
                      A                      A                      A
 Frequencies --    846.9566               850.8007               875.6534
 Red. masses --      3.4088                 1.9554                 1.4531
 Frc consts  --      1.4407                 0.8340                 0.6565
 IR Inten    --     14.1625                14.7392                 1.8855

                     34                     35                     36
                      A                      A                      A
 Frequencies --    887.5813               918.0514               955.9145
 Red. masses --      2.4682                 2.3953                 1.8331
 Frc consts  --      1.1457                 1.1895                 0.9869
 IR Inten    --      0.6232                 0.2006                 0.3154

                     37                     38                     39
                      A                      A                      A
 Frequencies --    969.2950               995.6945              1018.3872
 Red. masses --      1.7143                 1.6394                 2.2300
 Frc consts  --      0.9490                 0.9576                 1.3627
 IR Inten    --     10.0405                 5.1602                 2.3409

                     40                     41                     42
                      A                      A                      A
 Frequencies --   1026.0911              1027.9663              1060.8302
 Red. masses --      1.6188                 2.1043                 1.5884
 Frc consts  --      1.0042                 1.3101                 1.0532
 IR Inten    --      0.4478                 2.4553                 2.3467

                     43                     44                     45
                      A                      A                      A
 Frequencies --   1086.6821              1103.9392              1148.4998
 Red. masses --      1.9111                 1.3164                 2.0880
 Frc consts  --      1.3297                 0.9452                 1.6227
 IR Inten    --      7.0362                 5.4181                 8.1339

                     46                     47                     48
                      A                      A                      A
 Frequencies --   1166.9075              1174.1190              1178.4039
 Red. masses --      2.4246                 1.2380                 2.4504
 Frc consts  --      1.9452                 1.0056                 2.0048
 IR Inten    --     35.9582                 0.5696                17.5064

                     49                     50                     51
                      A                      A                      A
 Frequencies --   1187.2531              1202.0032              1226.1606
 Red. masses --      2.5211                 2.0545                 1.3908
 Frc consts  --      2.0937                 1.7489                 1.2320
 IR Inten    --     15.7454               108.3590                 1.7960

                     52                     53                     54
                      A                      A                      A
 Frequencies --   1245.7065              1263.3583              1298.2542
 Red. masses --      1.1208                 1.8786                 1.9193
 Frc consts  --      1.0247                 1.7666                 1.9059
 IR Inten    --      1.2472                 8.1485                15.4137

                     55                     56                     57
                      A                      A                      A
 Frequencies --   1303.5718              1321.8907              1324.6575
 Red. masses --      2.0112                 1.2127                 1.9805
 Frc consts  --      2.0136                 1.2485                 2.0475
 IR Inten    --     14.7167                 1.5971                60.0104

                     58                     59                     60
                      A                      A                      A
 Frequencies --   1355.9938              1367.5693              1388.8225
 Red. masses --      1.3447                 1.7687                 1.4612
 Frc consts  --      1.4568                 1.9489                 1.6606
 IR Inten    --      3.1970                 4.8316                 0.3013

                     61                     62                     63
                      A                      A                      A
 Frequencies --   1400.9672              1404.0723              1411.4840
 Red. masses --      1.2684                 1.3935                 1.3162
 Frc consts  --      1.4668                 1.6185                 1.5449
 IR Inten    --      1.1220                 1.4878                 1.1275

                     64                     65                     66
                      A                      A                      A
 Frequencies --   1424.5595              1431.2994              1434.9399
 Red. masses --      2.9210                 1.7150                 1.2561
 Frc consts  --      3.4925                 2.0700                 1.5238
 IR Inten    --    117.7876                 9.7581                10.5950

                     67                     68                     69
                      A                      A                      A
 Frequencies --   1440.4920              1486.1167              1493.7977
 Red. masses --      1.2653                 1.1605                 1.2604
 Frc consts  --      1.5469                 1.5101                 1.6570
 IR Inten    --     19.1609                36.4400                18.8227

                     70                     71                     72
                      A                      A                      A
 Frequencies --   1505.7581              1513.0572              1515.4404
 Red. masses --      1.0892                 1.0961                 1.1031
 Frc consts  --      1.4550                 1.4785                 1.4927
 IR Inten    --      1.7400                 2.4989                12.6056

                     73                     74                     75
                      A                      A                      A
 Frequencies --   1516.8249              1526.4934              1529.7695
 Red. masses --      1.0630                 1.0539                 1.0869
 Frc consts  --      1.4410                 1.4469                 1.4986
 IR Inten    --      5.6189                 3.4359                 6.1711

                     76                     77                     78
                      A                      A                      A
 Frequencies --   1539.9215              1542.6685              1677.2049
 Red. masses --      1.0690                 1.0633                 5.0438
 Frc consts  --      1.4935                 1.4910                 8.3594
 IR Inten    --      1.2574                 0.8892               635.1847

                     79                     80                     81
                      A                      A                      A
 Frequencies --   1798.2941              3039.5566              3045.5314
 Red. masses --     11.9397                 1.0776                 1.0674
 Frc consts  --     22.7492                 5.8657                 5.8331
 IR Inten    --    381.9424                 9.2049                11.7943

                     82                     83                     84
                      A                      A                      A
 Frequencies --   3050.4587              3052.2104              3057.0611
 Red. masses --      1.0617                 1.0639                 1.0447
 Frc consts  --      5.8208                 5.8396                 5.7523
 IR Inten    --     13.6221                35.2869                15.9452

                     85                     86                     87
                      A                      A                      A
 Frequencies --   3058.8826              3063.4698              3066.7022
 Red. masses --      1.0570                 1.0614                 1.0600
 Frc consts  --      5.8268                 5.8686                 5.8733
 IR Inten    --     45.7193                10.9736                38.2209

                     88                     89                     90
                      A                      A                      A
 Frequencies --   3080.5675              3086.3234              3090.3629
 Red. masses --      1.0615                 1.0963                 1.1038
 Frc consts  --      5.9349                 6.1528                 6.2110
 IR Inten    --     15.2457                43.1801                22.9341

                     91                     92                     93
                      A                      A                      A
 Frequencies --   3094.4958              3098.0566              3113.7455
 Red. masses --      1.1041                 1.1051                 1.1010
 Frc consts  --      6.2295                 6.2493                 6.2890
 IR Inten    --      5.4445                61.3422                32.4169

                     94                     95                     96
                      A                      A                      A
 Frequencies --   3117.8104              3121.0316              3137.2671
 Red. masses --      1.1014                 1.1039                 1.1015
 Frc consts  --      6.3080                 6.3355                 6.3877
 IR Inten    --     39.5933                18.7187                36.0294

                     97                     98                     99
                      A                      A                      A
 Frequencies --   3152.5329              3230.3181              3495.2330
 Red. masses --      1.0978                 1.0945                 1.0747
 Frc consts  --      6.4285                 6.7290                 7.7356
 IR Inten    --     35.3636                 6.5727                32.6531

 - Thermochemistry -
 -------------------
 Temperature   298.150 Kelvin.  Pressure   1.00000 Atm.
 Atom     1 has atomic number  6 and mass  12.00000

 Molecular mass:   208.15756 amu.
 Principal axes and moments of inertia in atomic units:
                           1         2         3
     Eigenvalues --  1409.688486010.936516064.18042
           X            0.99996  -0.00869  -0.00350
           Y            0.00899   0.99507   0.09876
           Z            0.00262  -0.09878   0.99511
 This molecule is an asymmetric top.
 Rotational symmetry number  1.
 Warning -- assumption of classical behavior for rotation
           may cause significant error
 Rotational temperatures (Kelvin)      0.06144     0.01441     0.01428
 Rotational constants (GHZ):           1.28024     0.30024     0.29761
 Zero-point vibrational energy     819720.4 (Joules/Mol)
                                  195.91788 (Kcal/Mol)
 Warning -- explicit consideration of  23 degrees of freedom as
           vibrations may cause significant error
 Vibrational temperatures:     42.75    76.69    92.08   169.64   192.61
          (Kelvin)            212.93   213.72   285.51   331.34   352.52
                              398.18   444.32   466.59   505.98   603.54
                              634.60   642.29   730.24   743.38   767.11
                              778.39   802.34   829.92   909.02   953.58
                             1013.78  1088.80  1189.49  1190.98  1214.14
                             1218.58  1224.11  1259.87  1277.03  1320.87
                             1375.35  1394.60  1432.58  1465.23  1476.32
                             1479.01  1526.30  1563.49  1588.32  1652.44
                             1678.92  1689.30  1695.46  1708.19  1729.41
                             1764.17  1792.29  1817.69  1867.90  1875.55
                             1901.91  1905.89  1950.97  1967.63  1998.21
                             2015.68  2020.15  2030.81  2049.62  2059.32
                             2064.56  2072.55  2138.19  2149.24  2166.45
                             2176.95  2180.38  2182.37  2196.28  2201.00
                             2215.60  2219.56  2413.12  2587.34  4373.24
                             4381.84  4388.93  4391.45  4398.43  4401.05
                             4407.65  4412.30  4432.25  4440.53  4446.34
                             4452.29  4457.41  4479.99  4485.83  4490.47
                             4513.83  4535.79  4647.71  5028.86

 Zero-point correction=                           0.312215 (Hartree/Particle)
 Thermal correction to Energy=                    0.327021
 Thermal correction to Enthalpy=                  0.327965
 Thermal correction to Gibbs Free Energy=         0.270114
 Sum of electronic and zero-point Energies=           -653.771473
 Sum of electronic and thermal Energies=              -653.756667
 Sum of electronic and thermal Enthalpies=            -653.755722
 Sum of electronic and thermal Free Energies=         -653.813573

                     E (Thermal)             CV                S
                      KCal/Mol        Cal/Mol-Kelvin    Cal/Mol-Kelvin
 Total                  205.209             57.986            121.758
 Electronic               0.000              0.000              0.000
 Translational            0.889              2.981             41.903
 Rotational               0.889              2.981             32.308
 Vibrational            203.431             52.025             47.547
 Vibration     1          0.593              1.984              5.849
 Vibration     2          0.596              1.976              4.691
 Vibration     3          0.597              1.971              4.330
 Vibration     4          0.608              1.934              3.134
 Vibration     5          0.613              1.920              2.890
 Vibration     6          0.617              1.905              2.698
 Vibration     7          0.618              1.904              2.691
 Vibration     8          0.637              1.842              2.148
 Vibration     9          0.652              1.795              1.877
 Vibration    10          0.660              1.771              1.766
 Vibration    11          0.678              1.716              1.554
 Vibration    12          0.698              1.657              1.369
 Vibration    13          0.709              1.627              1.288
 Vibration    14          0.728              1.572              1.159
 Vibration    15          0.782              1.428              0.894
 Vibration    16          0.801              1.381              0.823
 Vibration    17          0.806              1.369              0.807
 Vibration    18          0.863              1.233              0.640
 Vibration    19          0.872              1.213              0.618
 Vibration    20          0.888              1.177              0.580
 Vibration    21          0.896              1.159              0.563
 Vibration    22          0.913              1.123              0.529
 Vibration    23          0.933              1.081              0.491

                           ! Non-Optimized Parameters !
 Normal termination of Gaussian 16 at Thu Dec 10 17:07:43 2020.

 ----------------------------------------------------------------------
 # B3LYP/6-311++G(d,p) empiricaldispersion=gd3bj scf=xqc pop=npa geom=c
 heck
 ----------------------------------------------------------------------

 ---------------------------------------
 CID_104788666_JID_5590_Energie_neutraal
 ---------------------------------------
 Structure from the checkpoint file:  "JID_5590.chk"
 Charge =  0 Multiplicity = 1

 SCF Done:  E(RB3LYP) =  -654.266788744     A.U. after   15 cycles
 Normal termination of Gaussian 16 at Thu Dec 10 17:14:32 2020.

 ----------------------------------------------------------------------
 # B3LYP/6-311++G(d,p) empiricaldispersion=gd3bj scf=xqc pop=npa geom=c
 heck
 ----------------------------------------------------------------------

 -------------------------------------
 CID_104788666_JID_5590_Energie_kation
 -------------------------------------
 Structure from the checkpoint file:  "JID_5590.chk"
 Charge =  1 Multiplicity = 2

 SCF Done:  E(UB3LYP) =  -653.976014856     A.U. after   30 cycles
 Normal termination of Gaussian 16 at Thu Dec 10 17:30:32 2020.
 Gaussian 16:  ES64L-G16RevA.03 25-Dec-2016

 ----------------------------------------------------------------------
 # B3LYP/6-311++G(d,p) empiricaldispersion=gd3bj scf=xqc pop=npa geom=c
 heck
 ----------------------------------------------------------------------

 ------------------------------------
 CID_104788666_JID_5590_Energie_anion
 ------------------------------------
 Structure from the checkpoint file:  "JID_5590.chk"
 Charge = -1 Multiplicity = 2

                         Standard orientation:
 ---------------------------------------------------------------------
 Center     Atomic      Atomic             Coordinates (Angstroms)
 Number     Number       Type             X           Y           Z
 ---------------------------------------------------------------------
      1          6           0        2.331586   -1.707034    1.297045
      2          6           0        1.715294   -0.297377    1.251944
      3          6           0        2.777707    0.812322    1.288318
      4          6           0        3.468457    0.997805   -0.066911
      5          6           0        2.421262    1.285485   -1.148050
      6          6           0        1.355845    0.181192   -1.227831
      7          7           0        0.801744   -0.031304    0.125116
      8          7           0       -0.318524   -0.861686    0.141989
      9          6           0       -1.568888   -0.320585    0.098235
     10          6           0       -2.734987   -0.976065   -0.153952
     11          6           0       -3.864778   -0.064718   -0.045413
     12          8           0       -5.050002   -0.309244   -0.214684
     13          6           0       -3.304111    1.323141    0.331676
     14          6           0       -1.776256    1.146845    0.400499
     15          6           0        1.867940   -1.075827   -1.954313
     16          1           0        2.806689   -1.867140    2.271337
     17          1           0        3.092154   -1.862715    0.527595
     18          1           0        1.563526   -2.479240    1.180557
     19          1           0        1.084431   -0.197078    2.142575
     20          1           0        2.284974    1.752953    1.564257
     21          1           0        3.508582    0.584943    2.073054
     22          1           0        4.048120    0.102791   -0.325692
     23          1           0        4.186598    1.823895   -0.011873
     24          1           0        2.892784    1.403390   -2.130671
     25          1           0        1.919957    2.232155   -0.910971
     26          1           0        0.510963    0.565587   -1.812834
     27          1           0       -0.209820   -1.814508   -0.196409
     28          1           0       -2.842597   -2.025661   -0.402674
     29          1           0       -3.735484    1.636604    1.287990
     30          1           0       -3.617377    2.058656   -0.415996
     31          1           0       -1.239874    1.765667   -0.327068
     32          1           0       -1.352146    1.395010    1.379813
     33          1           0        1.136698   -1.891316   -1.919541
     34          1           0        2.036057   -0.842107   -3.011355
     35          1           0        2.808819   -1.448103   -1.541840
 ---------------------------------------------------------------------

 SCF Done:  E(UB3LYP) =  -654.260622241     A.U. after   31 cycles

 The electronic state is 2-A.
 Alpha  occ. eigenvalues --  -18.99115 -14.27278 -14.24697 -10.14661 -10.14095
 Alpha  occ. eigenvalues --  -10.11251 -10.11024 -10.09168 -10.08186 -10.07285
 Alpha  occ. eigenvalues --  -10.07210 -10.07185 -10.06593 -10.06405 -10.06252
 Alpha  occ. eigenvalues --   -0.92439  -0.92125  -0.79064  -0.73790  -0.69581
 Alpha  occ. eigenvalues --   -0.68539  -0.63445  -0.61802  -0.58643  -0.58570
 Alpha  occ. eigenvalues --   -0.53460  -0.52239  -0.48292  -0.47329  -0.42975
 Alpha  occ. eigenvalues --   -0.42470  -0.41363  -0.38637  -0.38297  -0.36675
 Alpha  occ. eigenvalues --   -0.34327  -0.34074  -0.32880  -0.32609  -0.31848
 Alpha  occ. eigenvalues --   -0.30559  -0.30250  -0.30083  -0.29993  -0.28904
 Alpha  occ. eigenvalues --   -0.28882  -0.28147  -0.26758  -0.25810  -0.24747
 Alpha  occ. eigenvalues --   -0.23411  -0.23324  -0.22466  -0.21815  -0.14362
 Alpha  occ. eigenvalues --   -0.14146  -0.13028   0.03754
 Alpha virt. eigenvalues --    0.06291   0.06560   0.06807   0.06968   0.08497
 Alpha virt. eigenvalues --    0.08798   0.08899   0.09386   0.09493   0.10891
 Alpha virt. eigenvalues --    0.11307   0.11573   0.11781   0.12039   0.12562

  Beta  occ. eigenvalues --  -18.99114 -14.27254 -14.24699 -10.14660 -10.14095
  Beta  occ. eigenvalues --  -10.11242 -10.11015 -10.09149 -10.08181 -10.07263
  Beta  occ. eigenvalues --  -10.07187 -10.07163 -10.06547 -10.06363 -10.06244
  Beta  occ. eigenvalues --   -0.92430  -0.92107  -0.79040  -0.73767  -0.69543
  Beta  occ. eigenvalues --   -0.68505  -0.63406  -0.61761  -0.58601  -0.58502
  Beta  occ. eigenvalues --   -0.53401  -0.52185  -0.48241  -0.47274  -0.42942
  Beta  occ. eigenvalues --   -0.42420  -0.41336  -0.38615  -0.38257  -0.36642
  Beta  occ. eigenvalues --   -0.34279  -0.34042  -0.32833  -0.32576  -0.31810
  Beta  occ. eigenvalues --   -0.30522  -0.30231  -0.30056  -0.29948  -0.28884
  Beta  occ. eigenvalues --   -0.28850  -0.28123  -0.26738  -0.25770  -0.24708
  Beta  occ. eigenvalues --   -0.23373  -0.23290  -0.22419  -0.21785  -0.14354
  Beta  occ. eigenvalues --   -0.14135  -0.13011
  Beta virt. eigenvalues --    0.05995   0.06892   0.07097   0.07367   0.07425
  Beta virt. eigenvalues --    0.08853   0.09088   0.09263   0.09806   0.09990
  Beta virt. eigenvalues --    0.11170   0.11607   0.11741   0.12105   0.12541

 Mulliken charges and spin densities:
               1          2
     1  C    1.354635  -2.003707
     2  C   -1.058505   1.148484
     3  C    0.127767  -0.507313
     4  C   -0.041055  -0.250850
     5  C   -0.096048  -0.279740
     6  C   -0.986552   0.967325
     7  N    0.430634   0.034122
     8  N   -0.148766  -0.028896
     9  C    0.835986  -0.487900
    10  C   -0.743275   0.015093
    11  C   -0.038355  -0.094826
    12  O   -0.367183   0.007723
    13  C   -0.347103  -0.325782
    14  C    0.545969  -0.286724
    15  C    1.319524  -1.956035
    16  H   -0.255847   0.408583
    17  H   -0.002049   0.139517
    18  H   -0.306748   0.459911
    19  H   -0.023121   0.218016
    20  H   -0.115481   0.266220
    21  H   -0.177234   0.337364
    22  H    0.024972   0.100363
    23  H   -0.387122   0.580938
    24  H   -0.188567   0.351829
    25  H   -0.138776   0.279784
    26  H    0.071494   0.112178
    27  H    0.187784   0.070573
    28  H   -0.116806   0.275529
    29  H    0.117645   0.052462
    30  H    0.115241   0.052215
    31  H    0.037621   0.124177
    32  H   -0.001060   0.162527
    33  H   -0.316843   0.449274
    34  H   -0.305370   0.457979
    35  H   -0.007407   0.149586
 Sum of Mulliken charges =  -1.00000   1.00000

 Dipole moment (field-independent basis, Debye):
    X=             -0.5409    Y=              1.8925    Z=              0.8960  Tot=              2.1626
 Quadrupole moment (field-independent basis, Debye-Ang):
   XX=           -189.8626   YY=           -135.0336   ZZ=           -132.8114
   XY=             -7.6637   XZ=             -3.1079   YZ=             -0.2175

 Summary of Natural Population Analysis:

                                       Natural Population
                Natural  -----------------------------------------------
    Atom  No    Charge         Core      Valence    Rydberg      Total
 -----------------------------------------------------------------------
      C    1   -0.29663      0.99964     2.29143    0.00556     3.29663
      C    2   -0.00177      0.99958     1.98858    0.01362     3.00177
      C    3   -0.19103      0.99960     2.18223    0.00920     3.19103
      C    4   -0.19216      0.99962     2.18422    0.00832     3.19216
      C    5   -0.19089      0.99960     2.18196    0.00933     3.19089
      C    6   -0.00459      0.99958     1.99206    0.01295     3.00459
      N    7   -0.19448      0.99969     2.67882    0.01597     3.69448
      N    8   -0.20824      0.99962     2.69555    0.01307     3.70824
      C    9    0.14773      0.99950     1.84161    0.01116     2.85227
      C   10   -0.20557      0.99942     2.19563    0.01051     3.20557
      C   11    0.26209      0.99964     1.71672    0.02155     2.73791
      O   12   -0.31477      0.99987     3.30793    0.00697     4.31477
      C   13   -0.23150      0.99961     2.22396    0.00793     3.23150
      C   14   -0.20782      0.99959     2.20197    0.00625     3.20782
      C   15   -0.29631      0.99964     2.29100    0.00568     3.29631
      H   16    0.10245      0.00000     0.39636    0.00120     0.39755
      H   17    0.09753      0.00000     0.40105    0.00142     0.40247
      H   18    0.10098      0.00000     0.39755    0.00147     0.39902
      H   19    0.09822      0.00000     0.40044    0.00134     0.40178
      H   20    0.09951      0.00000     0.39885    0.00164     0.40049
      H   21    0.10187      0.00000     0.39704    0.00109     0.39813
      H   22    0.09491      0.00000     0.40355    0.00154     0.40509
      H   23    0.10240      0.00000     0.39625    0.00135     0.39760
      H   24    0.10238      0.00000     0.39650    0.00112     0.39762
      H   25    0.09946      0.00000     0.39887    0.00167     0.40054
      H   26    0.09599      0.00000     0.40221    0.00180     0.40401
      H   27    0.18667      0.00000     0.30975    0.00359     0.31333
      H   28    0.10735      0.00000     0.39140    0.00125     0.39265
      H   29    0.10651      0.00000     0.39202    0.00147     0.39349
      H   30    0.10654      0.00000     0.39191    0.00154     0.39346
      H   31    0.11134      0.00000     0.38715    0.00152     0.38866
      H   32    0.11047      0.00000     0.38806    0.00148     0.38953
      H   33    0.09921      0.00000     0.39923    0.00156     0.40079
      H   34    0.10368      0.00000     0.39512    0.00120     0.39632
      H   35    0.09847      0.00000     0.40010    0.00143     0.40153
 =======================================================================
   * Total *   -0.00000     14.99419    41.81708    0.18873    57.00000

 Normal termination of Gaussian 16 at Thu Dec 10 17:51:35 2020.
