 Gaussian 16, Revision A.03,

 -----------------------------------------------------------
 # opt freq B3LYP/6-31G(d) empiricaldispersion=gd3bj scf=xqc
 -----------------------------------------------------------

 -------------------------------
 CID_117254257_JID_7343_neutraal
 -------------------------------
 Symbolic Z-matrix:
 Charge =  0 Multiplicity = 1

 SCF Done:  E(RB3LYP) =  -816.949188100     A.U. after   15 cycles
 SCF Done:  E(RB3LYP) =  -816.954178528     A.U. after   12 cycles
 SCF Done:  E(RB3LYP) =  -816.954766519     A.U. after   12 cycles
 SCF Done:  E(RB3LYP) =  -816.954840156     A.U. after   11 cycles
 SCF Done:  E(RB3LYP) =  -816.954874671     A.U. after   12 cycles
 SCF Done:  E(RB3LYP) =  -816.955002255     A.U. after   11 cycles
 SCF Done:  E(RB3LYP) =  -816.955091610     A.U. after   11 cycles
 SCF Done:  E(RB3LYP) =  -816.955144437     A.U. after   12 cycles
 SCF Done:  E(RB3LYP) =  -816.955211274     A.U. after   11 cycles
 SCF Done:  E(RB3LYP) =  -816.955926605     A.U. after   14 cycles
 SCF Done:  E(RB3LYP) =  -816.957865247     A.U. after    8 cycles
 SCF Done:  E(RB3LYP) =  -816.957865689     A.U. after    7 cycles
 SCF Done:  E(RB3LYP) =  -816.957865871     A.U. after    7 cycles
 SCF Done:  E(RB3LYP) =  -816.957865993     A.U. after    7 cycles
 SCF Done:  E(RB3LYP) =  -816.957866046     A.U. after    7 cycles
 Optimization completed.
    -- Stationary point found.
 Normal termination of Gaussian 16 at Fri Dec 11 12:10:32 2020.

 --------------------------------------------------------------------
 #N Geom=AllCheck Guess=TCheck SCRF=Check GenChk RB3LYP/6-31G(d) Freq
 --------------------------------------------------------------------

 Structure from the checkpoint file:  "JID_7343.chk"
 -------------------------------
 CID_117254257_JID_7343_neutraal
 -------------------------------
 Charge =  0 Multiplicity = 1

 SCF Done:  E(RB3LYP) =  -816.957866046     A.U. after    1 cycles

  Exact polarizability: 210.044  -7.025 180.024  -1.023   5.047  73.905
 Approx polarizability: 340.868 -25.436 267.653  -2.236  11.227 112.180

                      1                      2                      3
                      A                      A                      A
 Frequencies --     50.3217                56.8628                74.3125
 Red. masses --      4.8637                 3.4864                 3.7547
 Frc consts  --      0.0073                 0.0066                 0.0122
 IR Inten    --      1.6827                 4.1732                 0.9522

                      4                      5                      6
                      A                      A                      A
 Frequencies --     87.8536                98.7084               101.7466
 Red. masses --      4.0982                 3.7513                 4.0259
 Frc consts  --      0.0186                 0.0215                 0.0246
 IR Inten    --      1.5719                 0.6003                 0.8163

                      7                      8                      9
                      A                      A                      A
 Frequencies --    132.4767               145.5525               166.5358
 Red. masses --      1.2782                 1.6770                 2.2165
 Frc consts  --      0.0132                 0.0209                 0.0362
 IR Inten    --      0.5054                18.7991                17.8555

                     10                     11                     12
                      A                      A                      A
 Frequencies --    180.6753               210.1833               241.6964
 Red. masses --      3.3360                 2.4544                 1.5459
 Frc consts  --      0.0642                 0.0639                 0.0532
 IR Inten    --     16.1411                12.6311                 0.0282

                     13                     14                     15
                      A                      A                      A
 Frequencies --    272.0044               274.2350               290.2096
 Red. masses --      2.7195                 3.0796                 3.7288
 Frc consts  --      0.1185                 0.1365                 0.1850
 IR Inten    --     13.4140                 2.8076                 4.3892

                     16                     17                     18
                      A                      A                      A
 Frequencies --    332.4441               357.7889               385.5755
 Red. masses --      5.0551                 5.0115                 6.1626
 Frc consts  --      0.3292                 0.3780                 0.5398
 IR Inten    --      3.3238                12.2897                 0.3249

                     19                     20                     21
                      A                      A                      A
 Frequencies --    421.8955               430.4407               470.2926
 Red. masses --      6.1721                 2.9409                 5.8524
 Frc consts  --      0.6473                 0.3210                 0.7626
 IR Inten    --      0.3997                 3.8149                 5.5145

                     22                     23                     24
                      A                      A                      A
 Frequencies --    534.4754               610.0167               638.1197
 Red. masses --      4.7940                 4.4182                 5.0914
 Frc consts  --      0.8069                 0.9687                 1.2215
 IR Inten    --      5.1994                10.0584                 2.0828

                     25                     26                     27
                      A                      A                      A
 Frequencies --    647.6472               680.0167               701.4435
 Red. masses --      5.2246                 5.4861                 5.6935
 Frc consts  --      1.2912                 1.4947                 1.6505
 IR Inten    --      8.1150                11.1547                13.5676

                     28                     29                     30
                      A                      A                      A
 Frequencies --    741.4575               765.3251               782.1069
 Red. masses --      5.4894                 8.7354                 1.6375
 Frc consts  --      1.7781                 3.0145                 0.5901
 IR Inten    --     16.2670                16.4798                23.8089

                     31                     32                     33
                      A                      A                      A
 Frequencies --    787.0365               793.5945               848.8519
 Red. masses --      5.8366                 5.2022                 1.3449
 Frc consts  --      2.1301                 1.9304                 0.5709
 IR Inten    --     17.5823                11.6792               109.7925

                     34                     35                     36
                      A                      A                      A
 Frequencies --    887.4390               888.6452               913.4835
 Red. masses --      1.4122                 4.4388                 1.2430
 Frc consts  --      0.6553                 2.0653                 0.6111
 IR Inten    --     17.2120                 8.8748                 1.5881

                     37                     38                     39
                      A                      A                      A
 Frequencies --    987.5269              1008.2810              1036.1324
 Red. masses --      3.4059                 3.0771                 3.4389
 Frc consts  --      1.9569                 1.8431                 2.1752
 IR Inten    --     37.4597                23.2940                 9.3964

                     40                     41                     42
                      A                      A                      A
 Frequencies --   1066.9492              1087.1522              1098.0544
 Red. masses --      2.4407                 4.3018                 4.5948
 Frc consts  --      1.6370                 2.9956                 3.2641
 IR Inten    --      2.0079               104.5017               149.9678

                     43                     44                     45
                      A                      A                      A
 Frequencies --   1166.6364              1183.7938              1186.8705
 Red. masses --      1.5417                 1.2653                 1.2719
 Frc consts  --      1.2363                 1.0447                 1.0557
 IR Inten    --    113.9108                 0.6712                 0.8274

                     46                     47                     48
                      A                      A                      A
 Frequencies --   1205.5288              1206.8682              1217.3184
 Red. masses --      2.3879                 1.3770                 1.5157
 Frc consts  --      2.0447                 1.1817                 1.3234
 IR Inten    --    144.2542                20.3259                26.4812

                     49                     50                     51
                      A                      A                      A
 Frequencies --   1220.3355              1263.8000              1297.1973
 Red. masses --      2.0278                 1.9176                 3.0850
 Frc consts  --      1.7792                 1.8046                 3.0586
 IR Inten    --    192.5386                89.7298               127.8297

                     52                     53                     54
                      A                      A                      A
 Frequencies --   1315.3058              1337.1522              1360.0366
 Red. masses --      1.7794                 2.3361                 2.7153
 Frc consts  --      1.8137                 2.4610                 2.9592
 IR Inten    --     66.5376               150.3505                 1.2499

                     55                     56                     57
                      A                      A                      A
 Frequencies --   1381.6570              1437.0262              1439.7535
 Red. masses --      3.8989                 1.7601                 3.4014
 Frc consts  --      4.3852                 2.1415                 4.1542
 IR Inten    --     43.9089                21.1292               148.3081

                     58                     59                     60
                      A                      A                      A
 Frequencies --   1492.4654              1495.1215              1510.8009
 Red. masses --      1.3370                 1.3021                 1.0486
 Frc consts  --      1.7547                 1.7149                 1.4102
 IR Inten    --     84.2031                29.4942                 4.4593

                     61                     62                     63
                      A                      A                      A
 Frequencies --   1524.6627              1525.9948              1528.5450
 Red. masses --      1.0478                 1.0855                 1.0646
 Frc consts  --      1.4351                 1.4894                 1.4655
 IR Inten    --      6.2247                 5.1655                 6.6236

                     64                     65                     66
                      A                      A                      A
 Frequencies --   1531.0162              1536.2432              1551.7257
 Red. masses --      1.5066                 1.3722                 5.7504
 Frc consts  --      2.0807                 1.9080                 8.1579
 IR Inten    --     95.5997                 1.4190                75.7524

                     67                     68                     69
                      A                      A                      A
 Frequencies --   1568.9457              1594.1522              1695.6244
 Red. masses --      8.3041                 7.9258                 1.0909
 Frc consts  --     12.0437                11.8674                 1.8479
 IR Inten    --      8.6892                27.9544                29.8743

                     70                     71                     72
                      A                      A                      A
 Frequencies --   1707.2823              1815.4019              2931.7878
 Red. masses --      6.4056                11.9571                 1.0738
 Frc consts  --     11.0007                23.2178                 5.4382
 IR Inten    --    186.7542               466.7419                82.5056

                     73                     74                     75
                      A                      A                      A
 Frequencies --   3028.6694              3070.0205              3089.7222
 Red. masses --      1.0351                 1.0293                 1.1071
 Frc consts  --      5.5939                 5.7158                 6.2270
 IR Inten    --     71.7136                50.3408                41.0068

                     76                     77                     78
                      A                      A                      A
 Frequencies --   3129.7548              3142.0919              3166.1033
 Red. masses --      1.0877                 1.1071                 1.0995
 Frc consts  --      6.2774                 6.4401                 6.4935
 IR Inten    --      6.8219                24.6183                21.6271

                     79                     80                     81
                      A                      A                      A
 Frequencies --   3171.2226              3239.3894              3257.6700
 Red. masses --      1.1070                 1.0882                 1.0952
 Frc consts  --      6.5589                 6.7282                 6.8477
 IR Inten    --     18.5883                 1.6930                 4.3542

                     82                     83                     84
                      A                      A                      A
 Frequencies --   3273.1089              3465.3064              3553.5779
 Red. masses --      1.0913                 1.0493                 1.0928
 Frc consts  --      6.8885                 7.4241                 8.1306
 IR Inten    --      4.5076                 2.7348                 1.8651

 - Thermochemistry -
 -------------------
 Temperature   298.150 Kelvin.  Pressure   1.00000 Atm.
 Atom     1 has atomic number  6 and mass  12.00000

 Molecular mass:   235.09569 amu.
 Principal axes and moments of inertia in atomic units:
                           1         2         3
     Eigenvalues --  3678.449444494.554627999.23014
           X            0.99856   0.05358   0.00080
           Y           -0.05358   0.99856   0.00206
           Z           -0.00069  -0.00210   1.00000
 This molecule is an asymmetric top.
 Rotational symmetry number  1.
 Warning -- assumption of classical behavior for rotation
           may cause significant error
 Rotational temperatures (Kelvin)      0.02355     0.01927     0.01083
 Rotational constants (GHZ):           0.49063     0.40154     0.22561
 Zero-point vibrational energy     628645.1 (Joules/Mol)
                                  150.24979 (Kcal/Mol)
 Warning -- explicit consideration of  23 degrees of freedom as
           vibrations may cause significant error
 Vibrational temperatures:     72.40    81.81   106.92   126.40   142.02
          (Kelvin)            146.39   190.60   209.42   239.61   259.95
                              302.41   347.75   391.35   394.56   417.55
                              478.31   514.78   554.76   607.01   619.31
                              676.65   768.99   877.68   918.11   931.82
                              978.39  1009.22  1066.79  1101.13  1125.28
                             1132.37  1141.81  1221.31  1276.83  1278.56
                             1314.30  1420.83  1450.69  1490.76  1535.10
                             1564.17  1579.86  1678.53  1703.22  1707.64
                             1734.49  1736.41  1751.45  1755.79  1818.33
                             1866.38  1892.43  1923.86  1956.79  1987.90
                             2067.56  2071.48  2147.32  2151.15  2173.71
                             2193.65  2195.57  2199.24  2202.79  2210.31
                             2232.59  2257.36  2293.63  2439.63  2456.40
                             2611.96  4218.19  4357.58  4417.07  4445.42
                             4503.02  4520.77  4555.32  4562.68  4660.76
                             4687.06  4709.27  4985.80  5112.81

 Zero-point correction=                           0.239438 (Hartree/Particle)
 Thermal correction to Energy=                    0.255685
 Thermal correction to Enthalpy=                  0.256630
 Thermal correction to Gibbs Free Energy=         0.195092
 Sum of electronic and zero-point Energies=           -816.718428
 Sum of electronic and thermal Energies=              -816.702181
 Sum of electronic and thermal Enthalpies=            -816.701236
 Sum of electronic and thermal Free Energies=         -816.762774

                     E (Thermal)             CV                S
                      KCal/Mol        Cal/Mol-Kelvin    Cal/Mol-Kelvin
 Total                  160.445             59.463            129.517
 Electronic               0.000              0.000              0.000
 Translational            0.889              2.981             42.266
 Rotational               0.889              2.981             33.247
 Vibrational            158.668             53.502             54.004
 Vibration     1          0.595              1.977              4.805
 Vibration     2          0.596              1.975              4.563
 Vibration     3          0.599              1.966              4.036
 Vibration     4          0.601              1.958              3.707
 Vibration     5          0.604              1.950              3.480
 Vibration     6          0.604              1.948              3.421
 Vibration     7          0.613              1.921              2.910
 Vibration     8          0.617              1.907              2.730
 Vibration     9          0.624              1.884              2.474
 Vibration    10          0.630              1.866              2.321
 Vibration    11          0.642              1.825              2.042
 Vibration    12          0.658              1.776              1.790
 Vibration    13          0.675              1.725              1.583
 Vibration    14          0.677              1.721              1.569
 Vibration    15          0.686              1.692              1.473
 Vibration    16          0.714              1.611              1.248
 Vibration    17          0.733              1.559              1.132
 Vibration    18          0.754              1.501              1.017
 Vibration    19          0.784              1.423              0.886
 Vibration    20          0.792              1.404              0.857
 Vibration    21          0.827              1.316              0.737
 Vibration    22          0.889              1.174              0.577
 Vibration    23          0.969              1.011              0.433

 Optimization completed.
    -- Stationary point found.
 Normal termination of Gaussian 16 at Fri Dec 11 12:21:22 2020.

 ----------------------------------------------------------------------
 # B3LYP/6-311++G(d,p) empiricaldispersion=gd3bj scf=xqc pop=npa geom=c
 heck
 ----------------------------------------------------------------------

 ---------------------------------------
 CID_117254257_JID_7343_Energie_neutraal
 ---------------------------------------
 Structure from the checkpoint file:  "JID_7343.chk"
 Charge =  0 Multiplicity = 1

 SCF Done:  E(RB3LYP) =  -817.191490066     A.U. after   16 cycles
 Normal termination of Gaussian 16 at Fri Dec 11 12:26:39 2020.

 ----------------------------------------------------------------------
 # B3LYP/6-311++G(d,p) empiricaldispersion=gd3bj scf=xqc pop=npa geom=c
 heck
 ----------------------------------------------------------------------

 -------------------------------------
 CID_117254257_JID_7343_Energie_kation
 -------------------------------------
 Structure from the checkpoint file:  "JID_7343.chk"
 Charge =  1 Multiplicity = 2

 SCF Done:  E(UB3LYP) =  -816.925687878     A.U. after   22 cycles
 Normal termination of Gaussian 16 at Fri Dec 11 12:37:40 2020.
 Gaussian 16:  ES64L-G16RevA.03 25-Dec-2016

 ----------------------------------------------------------------------
 # B3LYP/6-311++G(d,p) empiricaldispersion=gd3bj scf=xqc pop=npa geom=c
 heck
 ----------------------------------------------------------------------

 ------------------------------------
 CID_117254257_JID_7343_Energie_anion
 ------------------------------------
 Structure from the checkpoint file:  "JID_7343.chk"
 Charge = -1 Multiplicity = 2

                         Standard orientation:
 ---------------------------------------------------------------------
 Center     Atomic      Atomic             Coordinates (Angstroms)
 Number     Number       Type             X           Y           Z
 ---------------------------------------------------------------------
      1          6           0        4.144940   -2.362221   -0.058861
      2          8           0        2.726330   -2.398748   -0.091018
      3          6           0        2.038952   -1.228624    0.005505
      4          6           0        0.664044   -1.309000   -0.024947
      5          6           0       -0.109184   -0.134407    0.067688
      6          6           0       -1.470724    0.204763    0.091555
      7          7           0       -1.615601    1.566044    0.208519
      8          6           0       -0.417522    2.094289    0.259208
      9          7           0        0.558173    1.099256    0.180692
     10          6           0        1.925394    1.177864    0.219618
     11          6           0        2.679691    0.045556    0.135263
     12          6           0       -0.079006    3.543668    0.368500
     13          7           0        0.408171    4.091550   -0.910083
     14          6           0       -2.632454   -0.678025    0.017023
     15          8           0       -3.796743   -0.340512    0.060450
     16          8           0       -2.245317   -1.985727   -0.111438
     17          6           0       -3.325887   -2.920866   -0.191737
     18          1           0        4.469331   -3.399681   -0.149932
     19          1           0        4.517608   -1.949624    0.887600
     20          1           0        4.553587   -1.781776   -0.896094
     21          1           0        0.166309   -2.264071   -0.117287
     22          1           0        2.350889    2.168257    0.322235
     23          1           0        3.756955    0.135770    0.168680
     24          1           0       -1.009046    4.056463    0.624283
     25          1           0        0.618292    3.692503    1.215341
     26          1           0        0.609368    5.083523   -0.793336
     27          1           0        1.288299    3.651708   -1.173969
     28          1           0       -3.942835   -2.878635    0.710222
     29          1           0       -3.958326   -2.708402   -1.058171
     30          1           0       -2.859258   -3.902058   -0.290299
 ---------------------------------------------------------------------

 SCF Done:  E(UB3LYP) =  -817.195590306     A.U. after   33 cycles
 SCF Done:  E(UB3LYP) =  -817.195594181     a.u. after    3 cycles

 The electronic state is 2-A.
 Alpha  occ. eigenvalues --  -19.03237 -19.03186 -18.96069 -14.23547 -14.19235
 Alpha  occ. eigenvalues --  -14.15749 -10.15143 -10.12010 -10.11227 -10.09337
 Alpha  occ. eigenvalues --  -10.09107 -10.08944 -10.07798 -10.05948 -10.04371
 Alpha  occ. eigenvalues --  -10.03851 -10.01490  -0.96761  -0.94804  -0.88869
 Alpha  occ. eigenvalues --   -0.87640  -0.77976  -0.76833  -0.67956  -0.64670
 Alpha  occ. eigenvalues --   -0.62535  -0.60963  -0.58740  -0.54253  -0.51615
 Alpha  occ. eigenvalues --   -0.49142  -0.45602  -0.44025  -0.41223  -0.39310
 Alpha  occ. eigenvalues --   -0.38238  -0.37126  -0.36183  -0.36010  -0.35502
 Alpha  occ. eigenvalues --   -0.35102  -0.33709  -0.32482  -0.31219  -0.30702
 Alpha  occ. eigenvalues --   -0.30030  -0.29325  -0.27734  -0.27042  -0.26621
 Alpha  occ. eigenvalues --   -0.25168  -0.24355  -0.23369  -0.20888  -0.19756
 Alpha  occ. eigenvalues --   -0.17679  -0.14987  -0.14513  -0.14084  -0.13690
 Alpha  occ. eigenvalues --   -0.12585  -0.05930   0.04958
 Alpha virt. eigenvalues --    0.06557   0.07044   0.08306   0.09303   0.10207
 Alpha virt. eigenvalues --    0.10756   0.11088   0.11766   0.11814   0.12259
 Alpha virt. eigenvalues --    0.12462   0.13101   0.13682   0.14002   0.14207

  Beta  occ. eigenvalues --  -19.03231 -19.03150 -18.96018 -14.23349 -14.19218
  Beta  occ. eigenvalues --  -14.15569 -10.15093 -10.11995 -10.11228 -10.09333
  Beta  occ. eigenvalues --  -10.09000 -10.08883 -10.07849 -10.05409 -10.04343
  Beta  occ. eigenvalues --  -10.03854 -10.01243  -0.96715  -0.94672  -0.88546
  Beta  occ. eigenvalues --   -0.87555  -0.77923  -0.76451  -0.67592  -0.64406
  Beta  occ. eigenvalues --   -0.62203  -0.60927  -0.58571  -0.54097  -0.51090
  Beta  occ. eigenvalues --   -0.48947  -0.45353  -0.43920  -0.41029  -0.39220
  Beta  occ. eigenvalues --   -0.38173  -0.37003  -0.36009  -0.35883  -0.35388
  Beta  occ. eigenvalues --   -0.34953  -0.33659  -0.32258  -0.30615  -0.30463
  Beta  occ. eigenvalues --   -0.29875  -0.29234  -0.27683  -0.26668  -0.26499
  Beta  occ. eigenvalues --   -0.25076  -0.23680  -0.23315  -0.20748  -0.18634
  Beta  occ. eigenvalues --   -0.17446  -0.14633  -0.14091  -0.13869  -0.13489
  Beta  occ. eigenvalues --   -0.11397  -0.04853
  Beta virt. eigenvalues --    0.06649   0.07097   0.08267   0.09293   0.09926
  Beta virt. eigenvalues --    0.10623   0.10850   0.11232   0.11707   0.12160
  Beta virt. eigenvalues --    0.12241   0.12800   0.13128   0.13705   0.13967

 Mulliken charges and spin densities:
               1          2
     1  C   -0.114632  -0.194331
     2  O   -0.187482   0.016496
     3  C   -0.642679   0.151734
     4  C   -0.532511   0.174547
     5  C    0.466090  -0.016672
     6  C   -0.474698   0.022244
     7  N   -0.091923   0.094729
     8  C    0.211083  -0.037995
     9  N    0.227425   0.027145
    10  C   -0.320171   0.466487
    11  C    0.160046  -0.055504
    12  C   -0.736758  -0.028399
    13  N   -0.351174  -0.054525
    14  C    0.422318   0.029932
    15  O   -0.333468   0.018231
    16  O   -0.120347  -0.000166
    17  C   -0.236013  -0.000879
    18  H    0.021337   0.125752
    19  H    0.142086  -0.002151
    20  H    0.002749   0.144583
    21  H    0.232844  -0.021438
    22  H    0.115612  -0.030219
    23  H    0.135654   0.002974
    24  H    0.194529   0.004004
    25  H    0.105369  -0.005773
    26  H    0.139693   0.072364
    27  H    0.130085   0.094319
    28  H    0.160357   0.001027
    29  H    0.161251   0.000367
    30  H    0.113328   0.001120
 Sum of Mulliken charges =  -1.00000   1.00000

 Dipole moment (field-independent basis, Debye):
    X=              4.1441    Y=             -1.3335    Z=              1.1905  Tot=              4.5132
 Quadrupole moment (field-independent basis, Debye-Ang):
   XX=           -139.8185   YY=           -118.3103   ZZ=           -112.1268
   XY=             14.2890   XZ=              2.0518   YZ=              5.6939

 Summary of Natural Population Analysis:

                                       Natural Population
                Natural  -----------------------------------------------
    Atom  No    Charge         Core      Valence    Rydberg      Total
 -----------------------------------------------------------------------
      C    1   -0.09718      0.99961     2.08911    0.00846     3.09718
      O    2   -0.27278      0.99985     3.26348    0.00945     4.27278
      C    3    0.20155      0.99940     1.78615    0.01291     2.79845
      C    4   -0.10281      0.99949     2.09495    0.00837     3.10281
      C    5    0.08721      0.99953     1.90078    0.01248     2.91279
      C    6   -0.03024      0.99944     2.01766    0.01314     3.03024
      N    7   -0.19317      0.99967     2.68556    0.00795     3.69317
      C    8    0.15429      0.99961     1.82675    0.01935     2.84571
      N    9   -0.16872      0.99959     2.66008    0.00905     3.66872
      C   10    0.11601      0.99958     1.87221    0.01220     2.88399
      C   11   -0.16916      0.99954     2.16296    0.00666     3.16916
      C   12   -0.11323      0.99959     2.10086    0.01278     3.11323
      N   13   -0.41793      0.99977     2.90713    0.01103     3.91793
      C   14    0.38975      0.99962     1.58679    0.02384     2.61025
      O   15   -0.31571      0.99987     3.31050    0.00534     4.31571
      O   16   -0.28624      0.99987     3.27840    0.00797     4.28624
      C   17   -0.10487      0.99961     2.09660    0.00866     3.10487
      H   18    0.08626      0.00000     0.41244    0.00131     0.41374
      H   19    0.07941      0.00000     0.41892    0.00166     0.42059
      H   20    0.08110      0.00000     0.41665    0.00225     0.41890
      H   21    0.11195      0.00000     0.38708    0.00097     0.38805
      H   22    0.08518      0.00000     0.41371    0.00112     0.41482
      H   23    0.09859      0.00000     0.40047    0.00093     0.40141
      H   24    0.10403      0.00000     0.39504    0.00093     0.39597
      H   25    0.07948      0.00000     0.41914    0.00139     0.42052
      H   26    0.16544      0.00000     0.33201    0.00255     0.33456
      H   27    0.17470      0.00000     0.32323    0.00206     0.32530
      H   28    0.08638      0.00000     0.41239    0.00122     0.41362
      H   29    0.08667      0.00000     0.41211    0.00122     0.41333
      H   30    0.08412      0.00000     0.41509    0.00079     0.41588
 =======================================================================
   * Total *    0.00007     16.99365    44.79824    0.20804    61.99993

 Normal termination of Gaussian 16 at Fri Dec 11 13:23:13 2020.
