 Gaussian 16, Revision A.03,

 -----------------------------------------------------------
 # opt freq B3LYP/6-31G(d) empiricaldispersion=gd3bj scf=xqc
 -----------------------------------------------------------

 ------------------------------
 CID_41227321_JID_7085_neutraal
 ------------------------------
 Symbolic Z-matrix:
 Charge =  0 Multiplicity = 1

 SCF Done:  E(RB3LYP) =  -1142.38621439     A.U. after   15 cycles
 SCF Done:  E(RB3LYP) =  -1142.39108336     A.U. after   14 cycles
 SCF Done:  E(RB3LYP) =  -1142.39042809     A.U. after   13 cycles
 SCF Done:  E(RB3LYP) =  -1142.39377464     A.U. after   13 cycles
 SCF Done:  E(RB3LYP) =  -1142.39506014     A.U. after   13 cycles
 SCF Done:  E(RB3LYP) =  -1142.39563616     A.U. after   12 cycles
 SCF Done:  E(RB3LYP) =  -1142.39581630     A.U. after   12 cycles
 SCF Done:  E(RB3LYP) =  -1142.39588348     A.U. after   11 cycles
 SCF Done:  E(RB3LYP) =  -1142.39590930     A.U. after   10 cycles
 SCF Done:  E(RB3LYP) =  -1142.39591468     A.U. after    9 cycles
 SCF Done:  E(RB3LYP) =  -1142.39591840     A.U. after    9 cycles
 SCF Done:  E(RB3LYP) =  -1142.39591859     A.U. after    8 cycles
 SCF Done:  E(RB3LYP) =  -1142.39591865     A.U. after    8 cycles
 SCF Done:  E(RB3LYP) =  -1142.39591876     A.U. after    7 cycles
 SCF Done:  E(RB3LYP) =  -1142.39591884     A.U. after    7 cycles
 Optimization completed.
    -- Stationary point found.
 Normal termination of Gaussian 16 at Fri Dec 11 11:52:46 2020.

 --------------------------------------------------------------------
 #N Geom=AllCheck Guess=TCheck SCRF=Check GenChk RB3LYP/6-31G(d) Freq
 --------------------------------------------------------------------

 Structure from the checkpoint file:  "JID_7085.chk"
 ------------------------------
 CID_41227321_JID_7085_neutraal
 ------------------------------
 Charge =  0 Multiplicity = 1

 SCF Done:  E(RB3LYP) =  -1142.39591884     A.U. after    1 cycles

  Exact polarizability: 183.048  17.550 134.586  -9.740   9.685 148.151
 Approx polarizability: 257.313  33.096 203.066 -20.477  33.103 262.507

                      1                      2                      3
                      A                      A                      A
 Frequencies --     25.5032                31.1032                43.4725
 Red. masses --      4.5076                 3.8135                 3.4241
 Frc consts  --      0.0017                 0.0022                 0.0038
 IR Inten    --      0.2148                 2.1588                 0.0420

                      4                      5                      6
                      A                      A                      A
 Frequencies --     59.3579                66.3973                71.4360
 Red. masses --      7.0851                 3.2335                 6.5038
 Frc consts  --      0.0147                 0.0084                 0.0196
 IR Inten    --      0.3928                 0.1678                 0.6516

                      7                      8                      9
                      A                      A                      A
 Frequencies --     90.2264                99.6139               155.3106
 Red. masses --      7.1969                 4.5902                 5.8551
 Frc consts  --      0.0345                 0.0268                 0.0832
 IR Inten    --      0.1785                 0.2205                 1.8570

                     10                     11                     12
                      A                      A                      A
 Frequencies --    209.6237               224.6604               230.6087
 Red. masses --      3.6828                 1.0641                 1.0277
 Frc consts  --      0.0953                 0.0316                 0.0322
 IR Inten    --      1.5116                 0.2931                 0.2454

                     13                     14                     15
                      A                      A                      A
 Frequencies --    246.7570               265.8066               268.1581
 Red. masses --      1.4386                 4.0194                 3.1514
 Frc consts  --      0.0516                 0.1673                 0.1335
 IR Inten    --      1.6787                 2.7710                 2.0345

                     16                     17                     18
                      A                      A                      A
 Frequencies --    292.3961               306.2157               332.5898
 Red. masses --      4.6345                 2.2447                 4.1346
 Frc consts  --      0.2335                 0.1240                 0.2695
 IR Inten    --      1.3925                 1.9909                 8.5208

                     19                     20                     21
                      A                      A                      A
 Frequencies --    354.5628               401.7423               424.6946
 Red. masses --      2.8042                 7.6742                 1.8730
 Frc consts  --      0.2077                 0.7298                 0.1990
 IR Inten    --      2.0948                 4.7106                 0.4209

                     22                     23                     24
                      A                      A                      A
 Frequencies --    441.4413               464.1190               513.6701
 Red. masses --      3.1656                 2.7723                 2.5309
 Frc consts  --      0.3635                 0.3518                 0.3935
 IR Inten    --      4.4446                 8.2685                12.2022

                     25                     26                     27
                      A                      A                      A
 Frequencies --    523.4072               534.7107               575.9880
 Red. masses --      2.4879                 4.0598                 3.3933
 Frc consts  --      0.4016                 0.6839                 0.6633
 IR Inten    --      1.6215                12.1708                 1.9955

                     28                     29                     30
                      A                      A                      A
 Frequencies --    617.2752               625.5185               653.7022
 Red. masses --      3.2155                 2.2234                 4.3263
 Frc consts  --      0.7219                 0.5126                 1.0892
 IR Inten    --     29.0908                41.0375                13.7603

                     31                     32                     33
                      A                      A                      A
 Frequencies --    667.8695               704.4022               714.1231
 Red. masses --      5.1980                 1.3780                 5.8260
 Frc consts  --      1.3661                 0.4028                 1.7505
 IR Inten    --     84.9702                 2.1130                11.2200

                     34                     35                     36
                      A                      A                      A
 Frequencies --    714.9299               772.9786               826.6774
 Red. masses --      1.1953                 5.6090                 2.8151
 Frc consts  --      0.3600                 1.9746                 1.1335
 IR Inten    --    121.5292                 2.9485                 6.7329

                     37                     38                     39
                      A                      A                      A
 Frequencies --    847.1228               852.3492               873.5881
 Red. masses --      4.0563                 2.5734                 3.9850
 Frc consts  --      1.7150                 1.1015                 1.7918
 IR Inten    --      5.2185                 5.2309                 3.1598

                     40                     41                     42
                      A                      A                      A
 Frequencies --    910.4058               941.5218               956.9323
 Red. masses --      1.8506                 1.2352                 1.9496
 Frc consts  --      0.9037                 0.6451                 1.0519
 IR Inten    --      7.2776                 0.8682                 4.5476

                     43                     44                     45
                      A                      A                      A
 Frequencies --    973.3320               982.3582               999.8718
 Red. masses --      1.7274                 1.5808                 3.5685
 Frc consts  --      0.9642                 0.8988                 2.1020
 IR Inten    --      2.3507                 1.8038                17.2629

                     46                     47                     48
                      A                      A                      A
 Frequencies --   1048.0188              1067.8469              1102.3811
 Red. masses --      1.8182                 1.7131                 2.1533
 Frc consts  --      1.1766                 1.1510                 1.5417
 IR Inten    --     20.3415                 5.3690                19.7324

                     49                     50                     51
                      A                      A                      A
 Frequencies --   1161.2555              1164.0005              1195.0313
 Red. masses --      1.5302                 1.7287                 2.3194
 Frc consts  --      1.2158                 1.3800                 1.9516
 IR Inten    --      4.5739                 6.8226                 7.2099

                     52                     53                     54
                      A                      A                      A
 Frequencies --   1203.7593              1213.0255              1296.0765
 Red. masses --      1.4805                 1.6689                 1.4905
 Frc consts  --      1.2640                 1.4468                 1.4752
 IR Inten    --     39.0078                 5.5038                35.5520

                     55                     56                     57
                      A                      A                      A
 Frequencies --   1317.1722              1326.7016              1329.4072
 Red. masses --      5.5128                 2.1386                 1.8432
 Frc consts  --      5.6352                 2.2178                 1.9193
 IR Inten    --    150.8663               225.5696               124.1318

                     58                     59                     60
                      A                      A                      A
 Frequencies --   1341.4660              1358.4789              1386.0712
 Red. masses --      1.3421                 2.3505                 1.7332
 Frc consts  --      1.4229                 2.5557                 1.9619
 IR Inten    --     26.8517                19.0453                59.0294

                     61                     62                     63
                      A                      A                      A
 Frequencies --   1394.1488              1422.4900              1424.3191
 Red. masses --      1.4865                 1.4348                 1.4219
 Frc consts  --      1.7023                 1.7105                 1.6995
 IR Inten    --     24.0761                27.6456                49.3382

                     64                     65                     66
                      A                      A                      A
 Frequencies --   1430.8735              1433.0616              1450.0860
 Red. masses --      1.3948                 2.2097                 1.2508
 Frc consts  --      1.6825                 2.6736                 1.5496
 IR Inten    --     16.2423                15.1589                 3.0541

                     67                     68                     69
                      A                      A                      A
 Frequencies --   1494.6359              1500.5095              1507.4145
 Red. masses --      1.0951                 1.0671                 1.7160
 Frc consts  --      1.4414                 1.4155                 2.2974
 IR Inten    --      5.7472                26.5829                63.3366

                     70                     71                     72
                      A                      A                      A
 Frequencies --   1513.0205              1515.1396              1522.1151
 Red. masses --      1.0443                 1.0792                 1.0687
 Frc consts  --      1.4085                 1.4596                 1.4589
 IR Inten    --     14.9980                 3.0294                 4.4340

                     73                     74                     75
                      A                      A                      A
 Frequencies --   1526.6836              1534.1155              1543.2658
 Red. masses --      1.0809                 1.0577                 1.0478
 Frc consts  --      1.4843                 1.4666                 1.4703
 IR Inten    --      4.6352                 2.0693                10.4448

                     76                     77                     78
                      A                      A                      A
 Frequencies --   1581.9979              1590.4647              1796.7085
 Red. masses --      7.2389                 5.1072                 8.0613
 Frc consts  --     10.6742                 7.6117                15.3324
 IR Inten    --     19.8873               367.6345               390.8148

                     79                     80                     81
                      A                      A                      A
 Frequencies --   1807.4327              3035.7190              3037.0565
 Red. masses --      8.5050                 1.0649                 1.0380
 Frc consts  --     16.3701                 5.7821                 5.6410
 IR Inten    --    459.5488                17.2213                26.3320

                     82                     83                     84
                      A                      A                      A
 Frequencies --   3042.3328              3062.9459              3072.1716
 Red. masses --      1.0446                 1.0385                 1.0621
 Frc consts  --      5.6968                 5.7401                 5.9060
 IR Inten    --     43.8520                 2.1269                10.9236

                     85                     86                     87
                      A                      A                      A
 Frequencies --   3080.8389              3101.7861              3111.2734
 Red. masses --      1.0839                 1.0996                 1.0973
 Frc consts  --      6.0617                 6.2331                 6.2585
 IR Inten    --      1.7066                 9.2237                56.8548

                     88                     89                     90
                      A                      A                      A
 Frequencies --   3116.0800              3119.1036              3126.0222
 Red. masses --      1.1015                 1.1017                 1.1012
 Frc consts  --      6.3015                 6.3148                 6.3402
 IR Inten    --     24.0590                37.7937                 6.2006

                     91                     92                     93
                      A                      A                      A
 Frequencies --   3126.3983              3134.4877              3180.3846
 Red. masses --      1.1010                 1.0925                 1.1006
 Frc consts  --      6.3406                 6.3242                 6.5591
 IR Inten    --      4.5144                29.0528                 5.4909

                     94                     95                     96
                      A                      A                      A
 Frequencies --   3276.3360              3566.3319              3597.2359
 Red. masses --      1.0948                 1.0754                 1.0755
 Frc consts  --      6.9244                 8.0585                 8.1995
 IR Inten    --      2.0319                52.0291                16.4563

 - Thermochemistry -
 -------------------
 Temperature   298.150 Kelvin.  Pressure   1.00000 Atm.
 Atom     1 has atomic number  6 and mass  12.00000

 Molecular mass:   255.10415 amu.
 Principal axes and moments of inertia in atomic units:
                           1         2         3
     Eigenvalues --  3114.444606875.217317420.58700
           X            0.99986  -0.01613   0.00382
           Y            0.01628   0.99889  -0.04430
           Z           -0.00310   0.04436   0.99901
 This molecule is an asymmetric top.
 Rotational symmetry number  1.
 Warning -- assumption of classical behavior for rotation
           may cause significant error
 Rotational temperatures (Kelvin)      0.02781     0.01260     0.01167
 Rotational constants (GHZ):           0.57947     0.26250     0.24321
 Zero-point vibrational energy     736745.4 (Joules/Mol)
                                  176.08638 (Kcal/Mol)
 Warning -- explicit consideration of  28 degrees of freedom as
           vibrations may cause significant error
 Vibrational temperatures:     36.69    44.75    62.55    85.40    95.53
          (Kelvin)            102.78   129.82   143.32   223.46   301.60
                              323.24   331.79   355.03   382.44   385.82
                              420.69   440.58   478.52   510.14   578.02
                              611.04   635.14   667.76   739.06   753.07
                              769.33   828.72   888.12   899.98   940.53
                              960.92  1013.48  1027.46  1028.62  1112.14
                             1189.40  1218.82  1226.34  1256.90  1309.87
                             1354.64  1376.81  1400.41  1413.39  1438.59
                             1507.87  1536.39  1586.08  1670.79  1674.74
                             1719.38  1731.94  1745.27  1864.77  1895.12
                             1908.83  1912.72  1930.07  1954.55  1994.25
                             2005.87  2046.65  2049.28  2058.71  2061.86
                             2086.35  2150.45  2158.90  2168.83  2176.90
                             2179.95  2189.98  2196.56  2207.25  2220.42
                             2276.14  2288.32  2585.06  2600.49  4367.72
                             4369.65  4377.24  4406.90  4420.17  4432.64
                             4462.78  4476.43  4483.34  4487.69  4497.65
                             4498.19  4509.83  4575.86  4713.92  5131.16
                             5175.62

 Zero-point correction=                           0.280612 (Hartree/Particle)
 Thermal correction to Energy=                    0.298895
 Thermal correction to Enthalpy=                  0.299839
 Thermal correction to Gibbs Free Energy=         0.232327
 Sum of electronic and zero-point Energies=          -1142.115307
 Sum of electronic and thermal Energies=             -1142.097024
 Sum of electronic and thermal Enthalpies=           -1142.096080
 Sum of electronic and thermal Free Energies=        -1142.163592

                     E (Thermal)             CV                S
                      KCal/Mol        Cal/Mol-Kelvin    Cal/Mol-Kelvin
 Total                  187.560             67.095            142.091
 Electronic               0.000              0.000              0.000
 Translational            0.889              2.981             42.510
 Rotational               0.889              2.981             33.429
 Vibrational            185.782             61.134             66.152
 Vibration     1          0.593              1.985              6.152
 Vibration     2          0.594              1.983              5.758
 Vibration     3          0.595              1.980              5.094
 Vibration     4          0.597              1.974              4.478
 Vibration     5          0.598              1.970              4.257
 Vibration     6          0.598              1.968              4.113
 Vibration     7          0.602              1.956              3.655
 Vibration     8          0.604              1.949              3.462
 Vibration     9          0.620              1.897              2.606
 Vibration    10          0.642              1.826              2.047
 Vibration    11          0.649              1.803              1.921
 Vibration    12          0.652              1.794              1.874
 Vibration    13          0.661              1.768              1.754
 Vibration    14          0.672              1.736              1.623
 Vibration    15          0.673              1.732              1.608
 Vibration    16          0.688              1.688              1.460
 Vibration    17          0.697              1.662              1.383
 Vibration    18          0.715              1.610              1.247
 Vibration    19          0.730              1.566              1.146
 Vibration    20          0.767              1.466              0.956
 Vibration    21          0.787              1.417              0.876
 Vibration    22          0.801              1.380              0.822
 Vibration    23          0.822              1.330              0.754
 Vibration    24          0.869              1.220              0.625
 Vibration    25          0.878              1.198              0.602
 Vibration    26          0.890              1.173              0.577
 Vibration    27          0.932              1.083              0.493
 Vibration    28          0.977              0.995              0.421

                           ! Non-Optimized Parameters !
 Normal termination of Gaussian 16 at Fri Dec 11 12:04:55 2020.

 ----------------------------------------------------------------------
 # B3LYP/6-311++G(d,p) empiricaldispersion=gd3bj scf=xqc pop=npa geom=c
 heck
 ----------------------------------------------------------------------

 --------------------------------------
 CID_41227321_JID_7085_Energie_neutraal
 --------------------------------------
 Structure from the checkpoint file:  "JID_7085.chk"
 Charge =  0 Multiplicity = 1

 SCF Done:  E(RB3LYP) =  -1142.64097676     A.U. after   16 cycles
 Normal termination of Gaussian 16 at Fri Dec 11 12:11:52 2020.

 ----------------------------------------------------------------------
 # B3LYP/6-311++G(d,p) empiricaldispersion=gd3bj scf=xqc pop=npa geom=c
 heck
 ----------------------------------------------------------------------

 ------------------------------------
 CID_41227321_JID_7085_Energie_kation
 ------------------------------------
 Structure from the checkpoint file:  "JID_7085.chk"
 Charge =  1 Multiplicity = 2

 SCF Done:  E(UB3LYP) =  -1142.33825843     A.U. after   32 cycles
 Normal termination of Gaussian 16 at Fri Dec 11 12:28:45 2020.
 Gaussian 16:  ES64L-G16RevA.03 25-Dec-2016

 ----------------------------------------------------------------------
 # B3LYP/6-311++G(d,p) empiricaldispersion=gd3bj scf=xqc pop=npa geom=c
 heck
 ----------------------------------------------------------------------

 -----------------------------------
 CID_41227321_JID_7085_Energie_anion
 -----------------------------------
 Structure from the checkpoint file:  "JID_7085.chk"
 Charge = -1 Multiplicity = 2

                         Standard orientation:
 ---------------------------------------------------------------------
 Center     Atomic      Atomic             Coordinates (Angstroms)
 Number     Number       Type             X           Y           Z
 ---------------------------------------------------------------------
      1          6           0       -1.877460    2.509553   -1.540868
      2          6           0       -1.590466    1.834875   -0.195740
      3          6           0       -1.253022    2.862080    0.889075
      4          6           0       -2.777566    0.967289    0.261920
      5          7           0       -3.098993   -0.136387   -0.629096
      6          6           0       -2.709678   -1.447190   -0.560965
      7          8           0       -2.996251   -2.241396   -1.445140
      8          6           0       -1.943903   -1.902029    0.691658
      9          6           0       -0.586813   -1.275684    0.845005
     10          6           0       -0.099615   -0.679933    1.970239
     11         16           0        1.514222   -0.075683    1.695073
     12          6           0        1.399984   -0.692146    0.043406
     13          7           0        0.269970   -1.279643   -0.238635
     14          7           0        2.383738   -0.595800   -0.921324
     15          6           0        3.653719   -0.022064   -0.964864
     16          8           0        4.291403   -0.097273   -1.999948
     17          6           0        4.173413    0.664522    0.276211
     18          1           0       -2.746760    3.176900   -1.469426
     19          1           0       -2.076271    1.771047   -2.325222
     20          1           0       -1.022444    3.111985   -1.866592
     21          1           0       -0.731252    1.167813   -0.326021
     22          1           0       -2.101043    3.533831    1.075717
     23          1           0       -0.996476    2.369460    1.834069
     24          1           0       -0.399511    3.480957    0.591664
     25          1           0       -2.575689    0.563436    1.256034
     26          1           0       -3.671605    1.599064    0.356096
     27          1           0       -3.570153    0.081935   -1.498288
     28          1           0       -2.539991   -1.712821    1.591436
     29          1           0       -1.842165   -2.984491    0.576536
     30          1           0       -0.576094   -0.552184    2.931727
     31          1           0        2.112694   -1.031762   -1.798134
     32          1           0        3.523630    1.493690    0.576693
     33          1           0        4.242885   -0.032290    1.118666
     34          1           0        5.166908    1.050887    0.047501
 ---------------------------------------------------------------------

 SCF Done:  E(UB3LYP) =  -1142.64016820     A.U. after   33 cycles
 SCF Done:  E(UB3LYP) =  -1142.64016820     a.u. after    1 cycles

 The electronic state is 2-A.
 Alpha  occ. eigenvalues --  -88.76390 -18.98401 -18.98295 -14.25045 -14.23448
 Alpha  occ. eigenvalues --  -14.18822 -10.17160 -10.16687 -10.14584 -10.10632
 Alpha  occ. eigenvalues --  -10.09727 -10.08284 -10.08077 -10.07495 -10.07356
 Alpha  occ. eigenvalues --  -10.06538 -10.05930  -7.85041  -5.81351  -5.80992
 Alpha  occ. eigenvalues --   -5.80600  -0.94112  -0.93615  -0.87149  -0.82306
 Alpha  occ. eigenvalues --   -0.80715  -0.70406  -0.68561  -0.67636  -0.64707
 Alpha  occ. eigenvalues --   -0.60025  -0.59263  -0.58584  -0.52533  -0.49262
 Alpha  occ. eigenvalues --   -0.47522  -0.46535  -0.44879  -0.40548  -0.40313
 Alpha  occ. eigenvalues --   -0.38190  -0.37608  -0.36217  -0.35481  -0.35384
 Alpha  occ. eigenvalues --   -0.33513  -0.32719  -0.32041  -0.31540  -0.30808
 Alpha  occ. eigenvalues --   -0.30207  -0.30085  -0.29577  -0.29196  -0.28355
 Alpha  occ. eigenvalues --   -0.27327  -0.27051  -0.25217  -0.24705  -0.24059
 Alpha  occ. eigenvalues --   -0.23176  -0.20550  -0.17372  -0.16972  -0.15872
 Alpha  occ. eigenvalues --   -0.15421  -0.15250  -0.11162   0.04241
 Alpha virt. eigenvalues --    0.06111   0.07210   0.07448   0.08486   0.08852
 Alpha virt. eigenvalues --    0.09548   0.10202   0.10469   0.10622   0.11178
 Alpha virt. eigenvalues --    0.11295   0.11862   0.12329   0.12564   0.12970

  Beta  occ. eigenvalues --  -88.76348 -18.98395 -18.98092 -14.25131 -14.23441
  Beta  occ. eigenvalues --  -14.18796 -10.17151 -10.16481 -10.14238 -10.10608
  Beta  occ. eigenvalues --  -10.09711 -10.08282 -10.08088 -10.07495 -10.07157
  Beta  occ. eigenvalues --  -10.06520 -10.05903  -7.85002  -5.81334  -5.80975
  Beta  occ. eigenvalues --   -5.80456  -0.93761  -0.93600  -0.86885  -0.82283
  Beta  occ. eigenvalues --   -0.80629  -0.70388  -0.68327  -0.67516  -0.64591
  Beta  occ. eigenvalues --   -0.59911  -0.59140  -0.58452  -0.52220  -0.49196
  Beta  occ. eigenvalues --   -0.47439  -0.46420  -0.44661  -0.40498  -0.40176
  Beta  occ. eigenvalues --   -0.38121  -0.37429  -0.35747  -0.35386  -0.35327
  Beta  occ. eigenvalues --   -0.33412  -0.32449  -0.31920  -0.31480  -0.30669
  Beta  occ. eigenvalues --   -0.30145  -0.29818  -0.29368  -0.29163  -0.28293
  Beta  occ. eigenvalues --   -0.27259  -0.26418  -0.25132  -0.24550  -0.24006
  Beta  occ. eigenvalues --   -0.23102  -0.19837  -0.17231  -0.16516  -0.15720
  Beta  occ. eigenvalues --   -0.15345  -0.15200  -0.10269
  Beta virt. eigenvalues --    0.06542   0.07437   0.07752   0.08544   0.08817
  Beta virt. eigenvalues --    0.09115   0.09731   0.10442   0.10604   0.10865
  Beta virt. eigenvalues --    0.11256   0.11507   0.11981   0.12316   0.12891

 Mulliken charges and spin densities:
               1          2
     1  C   -0.411200  -0.158311
     2  C   -0.183680   0.702893
     3  C   -0.173140  -0.618477
     4  C    0.558494  -0.988576
     5  N   -0.200204   0.051267
     6  C   -0.025503  -0.001225
     7  O   -0.332589   0.004190
     8  C   -0.046127  -0.626781
     9  C   -0.302305  -0.383072
    10  C   -0.316240   0.683140
    11  S    0.410442  -0.507595
    12  C   -0.384893   0.668017
    13  N    0.065839   0.027127
    14  N   -0.047848  -0.078290
    15  C    0.161920   0.130283
    16  O   -0.376393   0.068865
    17  C   -0.361682  -0.095429
    18  H   -0.044552   0.186905
    19  H    0.099953   0.038002
    20  H   -0.032021   0.167380
    21  H    0.615690  -0.426730
    22  H   -0.287997   0.415163
    23  H   -0.103272   0.253737
    24  H    0.090608   0.047775
    25  H   -0.102828   0.261061
    26  H   -0.214983   0.405236
    27  H    0.257537   0.033153
    28  H    0.125225   0.030797
    29  H    0.215961  -0.002206
    30  H   -0.318340   0.558665
    31  H    0.314099   0.007444
    32  H    0.058728   0.089650
    33  H    0.117337   0.036216
    34  H    0.173966   0.019728
 Sum of Mulliken charges =  -1.00000   1.00000

 Dipole moment (field-independent basis, Debye):
    X=              0.6694    Y=              0.0492    Z=              1.9196  Tot=              2.0335
 Quadrupole moment (field-independent basis, Debye-Ang):
   XX=           -172.4232   YY=           -148.9072   ZZ=           -146.2607
   XY=              3.2915   XZ=             11.8352   YZ=            -10.7351

 Summary of Natural Population Analysis:

                                       Natural Population
                Natural  -----------------------------------------------
    Atom  No    Charge         Core      Valence    Rydberg      Total
 -----------------------------------------------------------------------
      C    1   -0.28577      0.99965     2.28034    0.00578     3.28577
      C    2   -0.12913      0.99960     2.12025    0.00927     3.12913
      C    3   -0.28438      0.99965     2.27858    0.00616     3.28438
      C    4   -0.08735      0.99959     2.07536    0.01240     3.08735
      N    5   -0.31844      0.99966     2.80949    0.00929     3.81844
      C    6    0.35430      0.99968     1.62303    0.02300     2.64570
      O    7   -0.32484      0.99987     3.31919    0.00577     4.32484
      C    8   -0.24224      0.99954     2.23357    0.00912     3.24224
      C    9    0.06009      0.99948     1.92588    0.01455     2.93991
      C   10   -0.18526      0.99943     2.17464    0.01119     3.18526
      S   11    0.17172      4.99946     2.80741    0.02142     7.82828
      C   12    0.18294      0.99959     1.79948    0.01798     2.81706
      N   13   -0.27338      0.99963     2.76317    0.01058     3.77338
      N   14   -0.32456      0.99962     2.81614    0.00880     3.82456
      C   15    0.36707      0.99972     1.61216    0.02105     2.63293
      O   16   -0.29947      0.99988     3.29368    0.00591     4.29947
      C   17   -0.34050      0.99963     2.33657    0.00431     3.34050
      H   18    0.09439      0.00000     0.40477    0.00084     0.40561
      H   19    0.09835      0.00000     0.40067    0.00098     0.40165
      H   20    0.10050      0.00000     0.39883    0.00067     0.39950
      H   21    0.10545      0.00000     0.39090    0.00364     0.39455
      H   22    0.09487      0.00000     0.40393    0.00121     0.40513
      H   23    0.10466      0.00000     0.39416    0.00118     0.39534
      H   24    0.09881      0.00000     0.40034    0.00086     0.40119
      H   25    0.10597      0.00000     0.39243    0.00160     0.39403
      H   26    0.09298      0.00000     0.40577    0.00125     0.40702
      H   27    0.19050      0.00000     0.30702    0.00248     0.30950
      H   28    0.10841      0.00000     0.39055    0.00104     0.39159
      H   29    0.11665      0.00000     0.38211    0.00124     0.38335
      H   30    0.10861      0.00000     0.39004    0.00136     0.39139
      H   31    0.20500      0.00000     0.29192    0.00308     0.29500
      H   32    0.11264      0.00000     0.38609    0.00127     0.38736
      H   33    0.11096      0.00000     0.38793    0.00111     0.38904
      H   34    0.11047      0.00000     0.38849    0.00103     0.38953
 =======================================================================
   * Total *    0.00000     20.99368    46.78492    0.22141    68.00000

 Normal termination of Gaussian 16 at Fri Dec 11 12:50:01 2020.
