 Gaussian 16, Revision A.03,

 -----------------------------------------------------------
 # opt freq B3LYP/6-31G(d) empiricaldispersion=gd3bj scf=xqc
 -----------------------------------------------------------

 -------------------------------
 CID_139725141_JID_7786_neutraal
 -------------------------------
 Symbolic Z-matrix:
 Charge =  0 Multiplicity = 1

 SCF Done:  E(RB3LYP) =  -857.604867489     A.U. after   14 cycles
 SCF Done:  E(RB3LYP) =  -857.611517068     A.U. after   16 cycles
 SCF Done:  E(RB3LYP) =  -857.610309034     A.U. after   15 cycles
 SCF Done:  E(RB3LYP) =  -857.616202693     A.U. after   14 cycles
 SCF Done:  E(RB3LYP) =  -857.616025035     A.U. after   16 cycles
 SCF Done:  E(RB3LYP) =  -857.620368312     A.U. after   14 cycles
 SCF Done:  E(RB3LYP) =  -857.619735463     A.U. after   15 cycles
 SCF Done:  E(RB3LYP) =  -857.622029163     A.U. after   15 cycles
 SCF Done:  E(RB3LYP) =  -857.622729331     A.U. after   14 cycles
 SCF Done:  E(RB3LYP) =  -857.623472338     A.U. after   12 cycles
 SCF Done:  E(RB3LYP) =  -857.626890837     A.U. after   11 cycles
 SCF Done:  E(RB3LYP) =  -857.626885747     A.U. after   11 cycles
 SCF Done:  E(RB3LYP) =  -857.626892938     A.U. after   11 cycles
 SCF Done:  E(RB3LYP) =  -857.626893036     A.U. after    9 cycles
 SCF Done:  E(RB3LYP) =  -857.626893089     A.U. after    9 cycles
 Optimization completed.
    -- Stationary point found.
 Normal termination of Gaussian 16 at Fri Dec 11 13:35:38 2020.

 --------------------------------------------------------------------
 #N Geom=AllCheck Guess=TCheck SCRF=Check GenChk RB3LYP/6-31G(d) Freq
 --------------------------------------------------------------------

 Structure from the checkpoint file:  "JID_7786.chk"
 -------------------------------
 CID_139725141_JID_7786_neutraal
 -------------------------------
 Charge =  0 Multiplicity = 1

 SCF Done:  E(RB3LYP) =  -857.626893089     A.U. after    1 cycles

  Exact polarizability: 162.080   1.382 135.390 -10.789  -4.010 113.958
 Approx polarizability: 203.988   3.678 184.939 -27.288 -19.589 191.968

                      1                      2                      3
                      A                      A                      A
 Frequencies --     19.8436                23.1407                35.7485
 Red. masses --      6.8963                 6.2912                 5.7953
 Frc consts  --      0.0016                 0.0020                 0.0044
 IR Inten    --      0.1843                 0.6558                 0.7172

                      4                      5                      6
                      A                      A                      A
 Frequencies --     47.0807                51.7379                72.6175
 Red. masses --      3.6199                 4.9060                 4.2985
 Frc consts  --      0.0047                 0.0077                 0.0134
 IR Inten    --      0.2502                 0.2321                 2.0331

                      7                      8                      9
                      A                      A                      A
 Frequencies --     93.2163               101.7237               120.9722
 Red. masses --      7.9392                 4.3233                 4.6853
 Frc consts  --      0.0406                 0.0264                 0.0404
 IR Inten    --      1.4270                 0.2972                 5.6033

                     10                     11                     12
                      A                      A                      A
 Frequencies --    132.2102               142.6477               194.5136
 Red. masses --      4.5848                 4.6925                 3.1054
 Frc consts  --      0.0472                 0.0563                 0.0692
 IR Inten    --      5.9411                 2.8391                 0.9935

                     13                     14                     15
                      A                      A                      A
 Frequencies --    233.2166               236.5415               246.4990
 Red. masses --      2.8052                 3.3448                 2.4448
 Frc consts  --      0.0899                 0.1103                 0.0875
 IR Inten    --      3.6420                 0.8239                 2.5236

                     16                     17                     18
                      A                      A                      A
 Frequencies --    254.9316               304.4348               322.1603
 Red. masses --      2.6067                 3.7523                 2.2930
 Frc consts  --      0.0998                 0.2049                 0.1402
 IR Inten    --      5.0555                 0.2068                 1.0772

                     19                     20                     21
                      A                      A                      A
 Frequencies --    336.5593               378.1445               382.5624
 Red. masses --      2.7577                 4.8557                 3.3013
 Frc consts  --      0.1840                 0.4091                 0.2847
 IR Inten    --     13.6802                 8.9293                 7.0713

                     22                     23                     24
                      A                      A                      A
 Frequencies --    404.8154               469.0010               505.2003
 Red. masses --      2.5929                 3.0508                 1.7761
 Frc consts  --      0.2504                 0.3954                 0.2671
 IR Inten    --      1.0012                 8.9392                17.7171

                     25                     26                     27
                      A                      A                      A
 Frequencies --    531.1656               555.0758               569.2584
 Red. masses --      3.0466                 2.3300                 1.5471
 Frc consts  --      0.5064                 0.4230                 0.2954
 IR Inten    --     20.1326                 3.7211                21.0684

                     28                     29                     30
                      A                      A                      A
 Frequencies --    588.3896               667.6932               689.3001
 Red. masses --      2.3178                 3.1553                 1.4479
 Frc consts  --      0.4728                 0.8288                 0.4053
 IR Inten    --     35.3638                10.0892                97.7009

                     31                     32                     33
                      A                      A                      A
 Frequencies --    727.1438               741.2744               786.8948
 Red. masses --      1.7899                 5.5355                 1.6152
 Frc consts  --      0.5576                 1.7921                 0.5893
 IR Inten    --    184.2574                 6.3069                43.8137

                     34                     35                     36
                      A                      A                      A
 Frequencies --    808.2344               818.8774               847.8244
 Red. masses --      2.0354                 1.8058                 2.8467
 Frc consts  --      0.7834                 0.7134                 1.2056
 IR Inten    --      3.2149                23.2730                 5.4893

                     37                     38                     39
                      A                      A                      A
 Frequencies --    873.2981               895.5785               920.4347
 Red. masses --      2.0863                 1.5382                 1.8796
 Frc consts  --      0.9374                 0.7269                 0.9382
 IR Inten    --     29.9891                25.3431                24.2769

                     40                     41                     42
                      A                      A                      A
 Frequencies --    925.5326               944.7092               998.9872
 Red. masses --      1.8792                 1.8941                 2.2854
 Frc consts  --      0.9484                 0.9960                 1.3438
 IR Inten    --     18.4120                54.2973                 4.6087

                     43                     44                     45
                      A                      A                      A
 Frequencies --   1017.7097              1054.9850              1058.0618
 Red. masses --      2.6637                 2.5633                 1.9512
 Frc consts  --      1.6255                 1.6809                 1.2870
 IR Inten    --     26.3399                 9.5927                13.0231

                     46                     47                     48
                      A                      A                      A
 Frequencies --   1084.1998              1099.1278              1118.7913
 Red. masses --      2.6821                 2.6221                 1.8360
 Frc consts  --      1.8576                 1.8664                 1.3540
 IR Inten    --     90.0855                15.4772                 3.2931

                     49                     50                     51
                      A                      A                      A
 Frequencies --   1141.9678              1166.6110              1169.3332
 Red. masses --      2.0389                 3.1690                 2.8025
 Frc consts  --      1.5666                 2.5412                 2.2577
 IR Inten    --     29.8225               321.0870                36.6908

                     52                     53                     54
                      A                      A                      A
 Frequencies --   1173.6115              1198.9843              1218.0323
 Red. masses --      2.3779                 2.2341                 2.7565
 Frc consts  --      1.9297                 1.8922                 2.4095
 IR Inten    --     17.2393                 2.0475                20.7199

                     55                     56                     57
                      A                      A                      A
 Frequencies --   1245.2126              1257.0944              1260.6640
 Red. masses --      1.7945                 1.3518                 1.3026
 Frc consts  --      1.6394                 1.2587                 1.2198
 IR Inten    --    168.2891                31.4505                 5.2705

                     58                     59                     60
                      A                      A                      A
 Frequencies --   1276.1971              1277.4878              1326.0524
 Red. masses --      1.1740                 1.2413                 1.3634
 Frc consts  --      1.1266                 1.1935                 1.4125
 IR Inten    --      0.9523                11.9822                11.3717

                     61                     62                     63
                      A                      A                      A
 Frequencies --   1336.4809              1345.7735              1373.0617
 Red. masses --      1.3339                 1.2919                 1.2362
 Frc consts  --      1.4038                 1.3785                 1.3731
 IR Inten    --     11.4762                 2.4166                 6.5737

                     64                     65                     66
                      A                      A                      A
 Frequencies --   1394.4671              1402.9176              1414.4937
 Red. masses --      1.3015                 1.3598                 1.3927
 Frc consts  --      1.4911                 1.5768                 1.6418
 IR Inten    --     23.6413                24.3745                13.7465

                     67                     68                     69
                      A                      A                      A
 Frequencies --   1420.7931              1424.7528              1427.5532
 Red. masses --      1.3350                 1.3059                 1.5381
 Frc consts  --      1.5878                 1.5618                 1.8468
 IR Inten    --     27.3431                 4.2198                15.4881

                     70                     71                     72
                      A                      A                      A
 Frequencies --   1431.8781              1445.1072              1476.4597
 Red. masses --      1.5524                 1.9484                 1.0962
 Frc consts  --      1.8753                 2.3973                 1.4079
 IR Inten    --     33.5535                37.4393                14.5660

                     73                     74                     75
                      A                      A                      A
 Frequencies --   1492.9640              1503.7138              1510.8402
 Red. masses --      1.0852                 1.1131                 1.0828
 Frc consts  --      1.4252                 1.4829                 1.4562
 IR Inten    --      3.7163                10.2927                 3.3785

                     76                     77                     78
                      A                      A                      A
 Frequencies --   1524.7413              1534.1901              1540.5626
 Red. masses --      1.1898                 1.1952                 1.1323
 Frc consts  --      1.6297                 1.6575                 1.5834
 IR Inten    --     14.3603                 9.5657                 8.9203

                     79                     80                     81
                      A                      A                      A
 Frequencies --   1544.0541              1556.8982              1583.4867
 Red. masses --      1.0962                 1.0871                 1.1730
 Frc consts  --      1.5398                 1.5526                 1.7329
 IR Inten    --     23.0846                 6.6193                22.3110

                     82                     83                     84
                      A                      A                      A
 Frequencies --   1828.2401              2212.0291              2964.1710
 Red. masses --      9.4833                12.4275                 1.0729
 Frc consts  --     18.6757                35.8273                 5.5541
 IR Inten    --    317.2726               314.6264                65.2219

                     85                     86                     87
                      A                      A                      A
 Frequencies --   2994.1171              3005.7844              3010.4974
 Red. masses --      1.0652                 1.0566                 1.0695
 Frc consts  --      5.6262                 5.6246                 5.7107
 IR Inten    --     36.2535                32.3533                74.6863

                     88                     89                     90
                      A                      A                      A
 Frequencies --   3034.8049              3037.9466              3040.4497
 Red. masses --      1.0760                 1.1001                 1.0633
 Frc consts  --      5.8389                 5.9820                 5.7916
 IR Inten    --     24.9990                20.2147                22.1574

                     91                     92                     93
                      A                      A                      A
 Frequencies --   3046.2230              3063.1760              3077.4983
 Red. masses --      1.0795                 1.0724                 1.0940
 Frc consts  --      5.9019                 5.9284                 6.1047
 IR Inten    --     97.6800                61.0708                24.7325

                     94                     95                     96
                      A                      A                      A
 Frequencies --   3084.9079              3087.5577              3122.5314
 Red. masses --      1.0997                 1.1049                 1.0888
 Frc consts  --      6.1662                 6.2057                 6.2550
 IR Inten    --     19.3501                51.3480                15.7827

                     97                     98                     99
                      A                      A                      A
 Frequencies --   3131.8409              3249.0526              3413.0868
 Red. masses --      1.0985                 1.0880                 1.0766
 Frc consts  --      6.3482                 6.7668                 7.3894
 IR Inten    --      5.2157                13.0954               192.6848

                    100                    101                    102
                      A                      A                      A
 Frequencies --   3472.5436              3521.6102              3673.6907
 Red. masses --      1.0731                 1.0731                 1.0641
 Frc consts  --      7.6242                 7.8410                 8.4610
 IR Inten    --      0.1688                 0.6309                36.2933

 - Thermochemistry -
 -------------------
 Temperature   298.150 Kelvin.  Pressure   1.00000 Atm.
 Atom     1 has atomic number  6 and mass  12.00000

 Molecular mass:   245.13756 amu.
 Principal axes and moments of inertia in atomic units:
                           1         2         3
     Eigenvalues --  2952.215358446.82574**********
           X            0.99998   0.00488   0.00344
           Y           -0.00493   0.99987   0.01563
           Z           -0.00336  -0.01565   0.99987
 This molecule is an asymmetric top.
 Rotational symmetry number  1.
 Warning -- assumption of classical behavior for rotation
           may cause significant error
 Rotational temperatures (Kelvin)      0.02934     0.01025     0.00826
 Rotational constants (GHZ):           0.61132     0.21366     0.17202
 Zero-point vibrational energy     806882.8 (Joules/Mol)
                                  192.84961 (Kcal/Mol)
 Warning -- explicit consideration of  28 degrees of freedom as
           vibrations may cause significant error
 Vibrational temperatures:     28.55    33.29    51.43    67.74    74.44
          (Kelvin)            104.48   134.12   146.36   174.05   190.22
                              205.24   279.86   335.55   340.33   354.66
                              366.79   438.01   463.52   484.23   544.07
                              550.42   582.44   674.79   726.87   764.23
                              798.63   819.04   846.56   960.66   991.75
                             1046.20  1066.53  1132.17  1162.87  1178.18
                             1219.83  1256.48  1288.54  1324.30  1331.63
                             1359.23  1437.32  1464.26  1517.89  1522.31
                             1559.92  1581.40  1609.69  1643.04  1678.49
                             1682.41  1688.57  1725.07  1752.48  1791.58
                             1808.68  1813.81  1836.16  1838.02  1907.89
                             1922.90  1936.27  1975.53  2006.33  2018.49
                             2035.14  2044.20  2049.90  2053.93  2060.15
                             2079.19  2124.30  2148.04  2163.51  2173.76
                             2193.76  2207.36  2216.53  2221.55  2240.03
                             2278.28  2630.43  3182.62  4264.78  4307.87
                             4324.65  4331.43  4366.41  4370.93  4374.53
                             4382.84  4407.23  4427.83  4438.49  4442.31
                             4492.63  4506.02  4674.66  4910.67  4996.22
                             5066.81  5285.62

 Zero-point correction=                           0.307325 (Hartree/Particle)
 Thermal correction to Energy=                    0.326203
 Thermal correction to Enthalpy=                  0.327147
 Thermal correction to Gibbs Free Energy=         0.256822
 Sum of electronic and zero-point Energies=           -857.319568
 Sum of electronic and thermal Energies=              -857.300690
 Sum of electronic and thermal Enthalpies=            -857.299746
 Sum of electronic and thermal Free Energies=         -857.370072

                     E (Thermal)             CV                S
                      KCal/Mol        Cal/Mol-Kelvin    Cal/Mol-Kelvin
 Total                  204.695             67.442            148.013
 Electronic               0.000              0.000              0.000
 Translational            0.889              2.981             42.391
 Rotational               0.889              2.981             33.925
 Vibrational            202.918             61.480             71.697
 Vibration     1          0.593              1.986              6.650
 Vibration     2          0.593              1.985              6.345
 Vibration     3          0.594              1.982              5.482
 Vibration     4          0.595              1.979              4.936
 Vibration     5          0.596              1.977              4.750
 Vibration     6          0.599              1.967              4.081
 Vibration     7          0.602              1.954              3.591
 Vibration     8          0.604              1.948              3.421
 Vibration     9          0.609              1.932              3.085
 Vibration    10          0.612              1.921              2.914
 Vibration    11          0.616              1.911              2.768
 Vibration    12          0.635              1.848              2.184
 Vibration    13          0.654              1.790              1.854
 Vibration    14          0.655              1.785              1.829
 Vibration    15          0.661              1.769              1.755
 Vibration    16          0.665              1.754              1.696
 Vibration    17          0.695              1.665              1.392
 Vibration    18          0.707              1.631              1.299
 Vibration    19          0.717              1.602              1.228
 Vibration    20          0.748              1.517              1.047
 Vibration    21          0.752              1.507              1.029
 Vibration    22          0.770              1.460              0.945
 Vibration    23          0.826              1.319              0.740
 Vibration    24          0.860              1.238              0.645
 Vibration    25          0.886              1.181              0.585
 Vibration    26          0.911              1.129              0.534
 Vibration    27          0.925              1.098              0.506
 Vibration    28          0.946              1.057              0.470

 Optimization completed.
    -- Stationary point found.
 Normal termination of Gaussian 16 at Fri Dec 11 13:48:09 2020.

 ----------------------------------------------------------------------
 # B3LYP/6-311++G(d,p) empiricaldispersion=gd3bj scf=xqc pop=npa geom=c
 heck
 ----------------------------------------------------------------------

 ---------------------------------------
 CID_139725141_JID_7786_Energie_neutraal
 ---------------------------------------
 Structure from the checkpoint file:  "JID_7786.chk"
 Charge =  0 Multiplicity = 1

 SCF Done:  E(RB3LYP) =  -857.899437250     A.U. after   14 cycles
 Normal termination of Gaussian 16 at Fri Dec 11 13:54:27 2020.

 ----------------------------------------------------------------------
 # B3LYP/6-311++G(d,p) empiricaldispersion=gd3bj scf=xqc pop=npa geom=c
 heck
 ----------------------------------------------------------------------

 -------------------------------------
 CID_139725141_JID_7786_Energie_kation
 -------------------------------------
 Structure from the checkpoint file:  "JID_7786.chk"
 Charge =  1 Multiplicity = 2

 SCF Done:  E(UB3LYP) =  -857.624400886     A.U. after   27 cycles
 Normal termination of Gaussian 16 at Fri Dec 11 14:11:28 2020.
 Gaussian 16:  ES64L-G16RevA.03 25-Dec-2016

 ----------------------------------------------------------------------
 # B3LYP/6-311++G(d,p) empiricaldispersion=gd3bj scf=xqc pop=npa geom=c
 heck
 ----------------------------------------------------------------------

 ------------------------------------
 CID_139725141_JID_7786_Energie_anion
 ------------------------------------
 Structure from the checkpoint file:  "JID_7786.chk"
 Charge = -1 Multiplicity = 2

                         Standard orientation:
 ---------------------------------------------------------------------
 Center     Atomic      Atomic             Coordinates (Angstroms)
 Number     Number       Type             X           Y           Z
 ---------------------------------------------------------------------
      1          6           0        0.387485    2.583456    0.698186
      2          6           0       -0.194070    1.156277    0.729920
      3          7           0       -0.410762    0.672960   -0.638397
      4          6           0       -1.012284   -0.657098   -0.732451
      5          6           0       -2.452131   -0.746234   -0.239637
      6          8           0       -3.217245    0.187956   -1.000596
      7          6           0       -4.543121    0.290511   -0.632917
      8          6           0       -5.149222   -0.418306    0.306106
      9          8           0       -5.728979   -1.024739    1.135146
     10          7           0        1.537482    2.835578   -0.157893
     11          6           0        2.854287    2.413770    0.304782
     12          6           0        3.115796    0.903143    0.441256
     13          7           0        2.722522    0.209889   -0.783280
     14          6           0        3.154123   -1.161012   -0.863299
     15          6           0        2.578202   -2.112800    0.184279
     16          8           0        1.623947   -1.898254    0.903813
     17          8           0        3.254411   -3.285341    0.214812
     18          1           0        0.645259    2.883512    1.721388
     19          1           0       -0.417024    3.260837    0.373045
     20          1           0        0.484961    0.451402    1.217024
     21          1           0       -1.118268    1.186364    1.334019
     22          1           0       -1.019343    1.327560   -1.130697
     23          1           0       -0.989555   -0.964872   -1.785062
     24          1           0       -0.393584   -1.357340   -0.163804
     25          1           0       -2.849630   -1.763089   -0.383091
     26          1           0       -2.529778   -0.497644    0.829253
     27          1           0       -5.113686    1.024196   -1.187474
     28          1           0        1.365954    2.460763   -1.087441
     29          1           0        3.580403    2.819095   -0.409779
     30          1           0        3.046768    2.895800    1.272617
     31          1           0        4.195657    0.755698    0.585498
     32          1           0        2.622358    0.502695    1.341310
     33          1           0        1.709709    0.279842   -0.911269
     34          1           0        2.886127   -1.578883   -1.843870
     35          1           0        4.247675   -1.220252   -0.799828
     36          1           0        2.809838   -3.841878    0.882392
 ---------------------------------------------------------------------

 SCF Done:  E(UB3LYP) =  -857.905829167     A.U. after   33 cycles
 SCF Done:  E(UB3LYP) =  -857.905829167     a.u. after    1 cycles

 The electronic state is 2-A.
 Alpha  occ. eigenvalues --  -19.08378 -19.03307 -19.01924 -19.00873 -14.20997
 Alpha  occ. eigenvalues --  -14.20733 -14.20672 -10.22098 -10.12712 -10.10863
 Alpha  occ. eigenvalues --  -10.10756 -10.10676 -10.10449 -10.09898 -10.09554
 Alpha  occ. eigenvalues --  -10.09100 -10.07790  -1.02546  -0.94271  -0.93660
 Alpha  occ. eigenvalues --   -0.93100  -0.83731  -0.81627  -0.79941  -0.67567
 Alpha  occ. eigenvalues --   -0.65593  -0.62747  -0.60529  -0.58845  -0.53812
 Alpha  occ. eigenvalues --   -0.52220  -0.50792  -0.49437  -0.43165  -0.42231
 Alpha  occ. eigenvalues --   -0.41881  -0.41452  -0.40216  -0.39042  -0.38268
 Alpha  occ. eigenvalues --   -0.37608  -0.36644  -0.36398  -0.35241  -0.33795
 Alpha  occ. eigenvalues --   -0.33469  -0.32688  -0.31897  -0.31138  -0.30025
 Alpha  occ. eigenvalues --   -0.29324  -0.28966  -0.28147  -0.27788  -0.26820
 Alpha  occ. eigenvalues --   -0.26468  -0.25752  -0.24981  -0.24091  -0.23129
 Alpha  occ. eigenvalues --   -0.20594  -0.20521  -0.15202  -0.13980  -0.13359
 Alpha  occ. eigenvalues --   -0.06142   0.03859
 Alpha virt. eigenvalues --    0.05025   0.06483   0.07157   0.07763   0.08317
 Alpha virt. eigenvalues --    0.08901   0.09413   0.09702   0.10339   0.10563
 Alpha virt. eigenvalues --    0.11416   0.12057   0.12508   0.12968   0.13628

  Beta  occ. eigenvalues --  -19.08320 -19.03295 -19.01804 -19.00440 -14.20993
  Beta  occ. eigenvalues --  -14.20732 -14.20664 -10.22096 -10.12692 -10.10861
  Beta  occ. eigenvalues --  -10.10738 -10.10674 -10.10445 -10.09552 -10.09400
  Beta  occ. eigenvalues --  -10.09096 -10.07849  -1.02477  -0.93603  -0.93554
  Beta  occ. eigenvalues --   -0.92729  -0.83724  -0.81613  -0.79928  -0.67537
  Beta  occ. eigenvalues --   -0.65504  -0.62583  -0.60358  -0.58256  -0.53763
  Beta  occ. eigenvalues --   -0.52127  -0.50679  -0.49387  -0.43136  -0.41894
  Beta  occ. eigenvalues --   -0.41847  -0.41407  -0.40189  -0.38882  -0.38195
  Beta  occ. eigenvalues --   -0.37477  -0.36425  -0.36293  -0.34725  -0.33633
  Beta  occ. eigenvalues --   -0.33374  -0.32636  -0.31863  -0.31086  -0.29979
  Beta  occ. eigenvalues --   -0.29156  -0.28750  -0.27807  -0.27323  -0.26792
  Beta  occ. eigenvalues --   -0.25784  -0.25031  -0.24609  -0.24013  -0.22942
  Beta  occ. eigenvalues --   -0.20555  -0.20464  -0.15184  -0.13962  -0.13350
  Beta  occ. eigenvalues --   -0.05909
  Beta virt. eigenvalues --    0.06039   0.06753   0.07298   0.07811   0.08057
  Beta virt. eigenvalues --    0.09151   0.09201   0.09590   0.10153   0.10522
  Beta virt. eigenvalues --    0.10958   0.11256   0.12046   0.12463   0.12983

 Mulliken charges and spin densities:
               1          2
     1  C   -0.654904  -0.030218
     2  C   -0.116450  -0.055420
     3  N   -0.288723   0.045619
     4  C    0.051488  -0.175254
     5  C   -0.524732  -0.123293
     6  O    0.000592  -0.051716
     7  C   -0.329900   0.187479
     8  C    0.253801   0.140762
     9  O   -0.378911   0.136993
    10  N   -0.021868   0.010478
    11  C   -0.405982  -0.091164
    12  C   -0.128435  -0.076359
    13  N   -0.156964   0.062797
    14  C    0.459578  -1.007899
    15  C   -0.069496   0.156632
    16  O   -0.261205  -0.017196
    17  O   -0.144395   0.021137
    18  H    0.126517   0.017948
    19  H    0.151723   0.028480
    20  H    0.228864  -0.045800
    21  H    0.126246   0.007124
    22  H    0.241171   0.034792
    23  H    0.134691   0.042027
    24  H    0.108339   0.081289
    25  H    0.123474   0.033208
    26  H    0.140313   0.020165
    27  H   -0.108518   0.278621
    28  H    0.212697   0.012893
    29  H    0.144091   0.020244
    30  H    0.132001   0.000781
    31  H    0.053521   0.082349
    32  H    0.061570   0.041520
    33  H    0.321547   0.009980
    34  H   -0.000903   0.216893
    35  H    0.057486   0.147778
    36  H   -0.538323   0.836330
 Sum of Mulliken charges =  -1.00000   1.00000

 Dipole moment (field-independent basis, Debye):
    X=              6.4410    Y=              5.1296    Z=             -0.7567  Tot=              8.2688
 Quadrupole moment (field-independent basis, Debye-Ang):
   XX=           -204.0407   YY=           -152.6494   ZZ=           -122.7681
   XY=              8.7132   XZ=              4.6822   YZ=             10.9069

 Summary of Natural Population Analysis:

                                       Natural Population
                Natural  -----------------------------------------------
    Atom  No    Charge         Core      Valence    Rydberg      Total
 -----------------------------------------------------------------------
      C    1   -0.09142      0.99963     2.08002    0.01177     3.09142
      C    2   -0.10467      0.99963     2.09545    0.00959     3.10467
      N    3   -0.35393      0.99975     2.84240    0.01178     3.85393
      C    4   -0.10109      0.99962     2.09008    0.01139     3.10109
      C    5   -0.01747      0.99959     2.00766    0.01022     3.01747
      O    6   -0.28628      0.99987     3.27509    0.01132     4.28628
      C    7   -0.11022      0.99937     2.09671    0.01414     3.11022
      C    8    0.35868      0.99958     1.62230    0.01943     2.64132
      O    9   -0.21796      0.99988     3.20888    0.00920     4.21796
      N   10   -0.34157      0.99976     2.83141    0.01041     3.84157
      C   11   -0.08631      0.99963     2.07515    0.01153     3.08631
      C   12   -0.10258      0.99963     2.09075    0.01220     3.10258
      N   13   -0.35825      0.99974     2.84571    0.01280     3.85825
      C   14   -0.13621      0.99958     2.12363    0.01300     3.13621
      C   15    0.39968      0.99973     1.57554    0.02504     2.60032
      O   16   -0.31268      0.99986     3.30603    0.00679     4.31268
      O   17   -0.34471      0.99988     3.33777    0.00707     4.34471
      H   18    0.09168      0.00000     0.40728    0.00104     0.40832
      H   19    0.09047      0.00000     0.40809    0.00144     0.40953
      H   20    0.09872      0.00000     0.39951    0.00177     0.40128
      H   21    0.08600      0.00000     0.41231    0.00169     0.41400
      H   22    0.17877      0.00000     0.31801    0.00321     0.32123
      H   23    0.09211      0.00000     0.40657    0.00133     0.40789
      H   24    0.10705      0.00000     0.39143    0.00152     0.39295
      H   25    0.08483      0.00000     0.41364    0.00153     0.41517
      H   26    0.08209      0.00000     0.41620    0.00171     0.41791
      H   27    0.10492      0.00000     0.39330    0.00178     0.39508
      H   28    0.17847      0.00000     0.31869    0.00284     0.32153
      H   29    0.09223      0.00000     0.40649    0.00128     0.40777
      H   30    0.08765      0.00000     0.41129    0.00105     0.41235
      H   31    0.08950      0.00000     0.40908    0.00142     0.41050
      H   32    0.08475      0.00000     0.41378    0.00147     0.41525
      H   33    0.19652      0.00000     0.29872    0.00476     0.30348
      H   34    0.11084      0.00000     0.38812    0.00104     0.38916
      H   35    0.10458      0.00000     0.39419    0.00123     0.39542
      H   36    0.24581      0.00000     0.23157    0.02261     0.25419
 =======================================================================
   * Total *    0.00000     16.99472    48.74288    0.26240    66.00000

 Normal termination of Gaussian 16 at Fri Dec 11 14:32:08 2020.
