 Gaussian 16, Revision A.03,

 -----------------------------------------------------------
 # opt freq B3LYP/6-31G(d) empiricaldispersion=gd3bj scf=xqc
 -----------------------------------------------------------

 ------------------------------
 CID_81034570_JID_1257_neutraal
 ------------------------------
 Symbolic Z-matrix:
 Charge =  0 Multiplicity = 1

 SCF Done:  E(RB3LYP) =  -484.384921802     A.U. after   13 cycles
 SCF Done:  E(RB3LYP) =  -484.388397176     A.U. after   11 cycles
 SCF Done:  E(RB3LYP) =  -484.388580811     A.U. after   10 cycles
 SCF Done:  E(RB3LYP) =  -484.388993939     A.U. after   10 cycles
 SCF Done:  E(RB3LYP) =  -484.388342115     A.U. after   11 cycles
 SCF Done:  E(RB3LYP) =  -484.389221705     A.U. after   10 cycles
 SCF Done:  E(RB3LYP) =  -484.389390518     A.U. after   10 cycles
 SCF Done:  E(RB3LYP) =  -484.389514493     A.U. after   11 cycles
 SCF Done:  E(RB3LYP) =  -484.389655211     A.U. after   10 cycles
 SCF Done:  E(RB3LYP) =  -484.389758037     A.U. after   10 cycles
 SCF Done:  E(RB3LYP) =  -484.389945391     A.U. after   10 cycles
 SCF Done:  E(RB3LYP) =  -484.389948137     A.U. after    9 cycles
 SCF Done:  E(RB3LYP) =  -484.389948190     A.U. after    8 cycles
 SCF Done:  E(RB3LYP) =  -484.389948351     A.U. after    7 cycles
 SCF Done:  E(RB3LYP) =  -484.389948337     A.U. after    6 cycles
 SCF Done:  E(RB3LYP) =  -484.389948350     A.U. after    6 cycles
 Optimization completed.
    -- Stationary point found.
 Normal termination of Gaussian 16 at Tue Dec  8 19:54:53 2020.

 --------------------------------------------------------------------
 #N Geom=AllCheck Guess=TCheck SCRF=Check GenChk RB3LYP/6-31G(d) Freq
 --------------------------------------------------------------------

 Structure from the checkpoint file:  "JID_1257.chk"
 ------------------------------
 CID_81034570_JID_1257_neutraal
 ------------------------------
 Charge =  0 Multiplicity = 1

 SCF Done:  E(RB3LYP) =  -484.389948350     A.U. after    1 cycles

  Exact polarizability: 109.026   0.375 107.773   0.183  -1.833  90.130
 Approx polarizability: 139.164  -0.112 141.390  -1.962  -2.174 137.518

                      1                      2                      3
                      A                      A                      A
 Frequencies --     15.9322                74.1970                82.0199
 Red. masses --      2.1932                 2.3775                 2.8471
 Frc consts  --      0.0003                 0.0077                 0.0113
 IR Inten    --      0.2437                 1.6142                 0.2394

                      4                      5                      6
                      A                      A                      A
 Frequencies --    119.0845               142.7817               155.6961
 Red. masses --      1.8442                 1.4671                 1.8665
 Frc consts  --      0.0154                 0.0176                 0.0267
 IR Inten    --      1.7367                 0.1175                 1.2276

                      7                      8                      9
                      A                      A                      A
 Frequencies --    184.2403               207.6187               227.7490
 Red. masses --      2.0648                 1.8305                 2.5225
 Frc consts  --      0.0413                 0.0465                 0.0771
 IR Inten    --      0.1702                 2.1296                 4.7629

                     10                     11                     12
                      A                      A                      A
 Frequencies --    262.3489               279.8964               305.4096
 Red. masses --      3.0410                 2.7833                 2.5515
 Frc consts  --      0.1233                 0.1285                 0.1402
 IR Inten    --      1.1903                 4.5801                 2.0334

                     13                     14                     15
                      A                      A                      A
 Frequencies --    397.1088               425.4894               492.3799
 Red. masses --      2.2368                 1.8521                 3.2971
 Frc consts  --      0.2078                 0.1976                 0.4710
 IR Inten    --      5.7535                 4.9967                 3.7334

                     16                     17                     18
                      A                      A                      A
 Frequencies --    555.9063               662.6873               691.1496
 Red. masses --      2.4698                 2.6705                 3.9808
 Frc consts  --      0.4497                 0.6910                 1.1204
 IR Inten    --      1.3853                 7.8781                 0.8242

                     19                     20                     21
                      A                      A                      A
 Frequencies --    756.8216               774.5638               805.8646
 Red. masses --      1.7386                 1.3192                 2.1374
 Frc consts  --      0.5867                 0.4663                 0.8178
 IR Inten    --     39.4730                34.5259                38.1113

                     22                     23                     24
                      A                      A                      A
 Frequencies --    870.6056               887.4160               903.5262
 Red. masses --      2.0213                 1.9782                 2.5341
 Frc consts  --      0.9026                 0.9179                 1.2189
 IR Inten    --      1.3618                 3.6752                 1.3392

                     25                     26                     27
                      A                      A                      A
 Frequencies --    948.1835               963.8574               990.4724
 Red. masses --      2.3456                 2.1007                 2.0816
 Frc consts  --      1.2425                 1.1499                 1.2032
 IR Inten    --     18.0961                23.3158                 0.3777

                     28                     29                     30
                      A                      A                      A
 Frequencies --    994.6065              1029.0734              1052.6614
 Red. masses --      2.1463                 1.5102                 2.8448
 Frc consts  --      1.2510                 0.9423                 1.8573
 IR Inten    --      0.1345                 6.8449                 0.5365

                     31                     32                     33
                      A                      A                      A
 Frequencies --   1060.1027              1086.3450              1133.3944
 Red. masses --      1.5871                 1.9547                 2.1431
 Frc consts  --      1.0509                 1.3592                 1.6220
 IR Inten    --      1.0098                 3.4024                14.1951

                     34                     35                     36
                      A                      A                      A
 Frequencies --   1149.4030              1161.0981              1191.8165
 Red. masses --      2.8727                 1.3615                 1.3013
 Frc consts  --      2.2361                 1.0814                 1.0891
 IR Inten    --    111.8051                 2.9481                 4.2585

                     37                     38                     39
                      A                      A                      A
 Frequencies --   1196.9967              1200.9782              1218.9048
 Red. masses --      1.6730                 2.2037                 1.5999
 Frc consts  --      1.4123                 1.8727                 1.4005
 IR Inten    --     14.6581                22.9114                24.0830

                     40                     41                     42
                      A                      A                      A
 Frequencies --   1240.1803              1241.4402              1263.3359
 Red. masses --      1.7797                 1.5550                 1.4949
 Frc consts  --      1.6128                 1.4120                 1.4057
 IR Inten    --     24.9946                15.1302                 1.6287

                     43                     44                     45
                      A                      A                      A
 Frequencies --   1278.2949              1313.4009              1324.6328
 Red. masses --      1.2596                 1.2388                 1.3062
 Frc consts  --      1.2127                 1.2590                 1.3504
 IR Inten    --      0.6854                 0.0993                 7.2542

                     46                     47                     48
                      A                      A                      A
 Frequencies --   1341.4001              1345.5581              1351.6944
 Red. masses --      1.3004                 1.2967                 1.2777
 Frc consts  --      1.3787                 1.3832                 1.3754
 IR Inten    --      0.9164                 1.1819                 1.1185

                     49                     50                     51
                      A                      A                      A
 Frequencies --   1379.7152              1387.4741              1399.2358
 Red. masses --      1.4082                 1.3141                 1.2826
 Frc consts  --      1.5794                 1.4905                 1.4795
 IR Inten    --      4.7166                 0.5465                 7.1245

                     52                     53                     54
                      A                      A                      A
 Frequencies --   1434.2637              1444.3962              1482.7416
 Red. masses --      1.3444                 1.3149                 1.1326
 Frc consts  --      1.6295                 1.6162                 1.4671
 IR Inten    --      8.6519                19.0158                 1.1399

                     55                     56                     57
                      A                      A                      A
 Frequencies --   1496.6538              1504.5420              1512.3525
 Red. masses --      1.1273                 1.0897                 1.1037
 Frc consts  --      1.4878                 1.4533                 1.4873
 IR Inten    --      1.2832                 2.9129                 5.1090

                     58                     59                     60
                      A                      A                      A
 Frequencies --   1519.3566              1520.8120              1524.6351
 Red. masses --      1.0702                 1.0785                 1.0884
 Frc consts  --      1.4556                 1.4696                 1.4906
 IR Inten    --     12.8166                 2.1203                 1.8854

                     61                     62                     63
                      A                      A                      A
 Frequencies --   1534.2405              1535.0848              1540.9543
 Red. masses --      1.1597                 1.0803                 1.0728
 Frc consts  --      1.6083                 1.4998                 1.5009
 IR Inten    --     26.0683                 4.7232                 5.8885

                     64                     65                     66
                      A                      A                      A
 Frequencies --   1548.6388              1557.2392              2971.3923
 Red. masses --      1.1031                 1.0749                 1.0667
 Frc consts  --      1.5587                 1.5358                 5.5490
 IR Inten    --      6.2700                16.5996                64.0697

                     67                     68                     69
                      A                      A                      A
 Frequencies --   2972.5822              2988.1675              3005.5276
 Red. masses --      1.0718                 1.0701                 1.0423
 Frc consts  --      5.5797                 5.6298                 5.5472
 IR Inten    --     62.5441                54.0851                50.0109

                     70                     71                     72
                      A                      A                      A
 Frequencies --   3009.1959              3050.5323              3050.8014
 Red. masses --      1.0652                 1.0850                 1.0913
 Frc consts  --      5.6832                 5.9488                 5.9843
 IR Inten    --     66.7751                28.6403                11.7121

                     73                     74                     75
                      A                      A                      A
 Frequencies --   3053.6740              3058.6287              3065.2628
 Red. masses --      1.0770                 1.0706                 1.0648
 Frc consts  --      5.9170                 5.9008                 5.8944
 IR Inten    --    102.9506                51.0264                58.5692

                     76                     77                     78
                      A                      A                      A
 Frequencies --   3067.4702              3071.4606              3089.1101
 Red. masses --      1.0876                 1.0734                 1.0971
 Frc consts  --      6.0292                 5.9662                 6.1685
 IR Inten    --     47.1436                 7.0638                12.6516

                     79                     80                     81
                      A                      A                      A
 Frequencies --   3099.3688              3099.8134              3103.2818
 Red. masses --      1.0946                 1.1006                 1.1032
 Frc consts  --      6.1954                 6.2310                 6.2597
 IR Inten    --     54.2435                40.7316                 1.6701

                     82                     83                     84
                      A                      A                      A
 Frequencies --   3118.4413              3143.6398              3547.6739
 Red. masses --      1.1045                 1.0983                 1.0746
 Frc consts  --      6.3282                 6.3952                 7.9685
 IR Inten    --     81.9514                28.0517                71.3438

 - Thermochemistry -
 -------------------
 Temperature   298.150 Kelvin.  Pressure   1.00000 Atm.
 Atom     1 has atomic number  6 and mass  12.00000

 Molecular mass:   157.14666 amu.
 Principal axes and moments of inertia in atomic units:
                           1         2         3
     Eigenvalues --  1571.664161768.704082809.03895
           X            0.99941   0.03417   0.00468
           Y           -0.03407   0.99923  -0.01925
           Z           -0.00534   0.01908   0.99980
 This molecule is an asymmetric top.
 Rotational symmetry number  1.
 Warning -- assumption of classical behavior for rotation
           may cause significant error
 Rotational temperatures (Kelvin)      0.05511     0.04897     0.03083
 Rotational constants (GHZ):           1.14830     1.02037     0.64248
 Zero-point vibrational energy     731197.6 (Joules/Mol)
                                  174.76041 (Kcal/Mol)
 Warning -- explicit consideration of  16 degrees of freedom as
           vibrations may cause significant error
 Vibrational temperatures:     22.92   106.75   118.01   171.34   205.43
          (Kelvin)            224.01   265.08   298.72   327.68   377.46
                              402.71   439.42   571.35   612.18   708.42
                              799.83   953.46   994.41  1088.90  1114.42
                             1159.46  1252.61  1276.79  1299.97  1364.22
                             1386.78  1425.07  1431.02  1480.61  1514.54
                             1525.25  1563.01  1630.70  1653.73  1670.56
                             1714.76  1722.21  1727.94  1753.73  1784.34
                             1786.16  1817.66  1839.18  1889.69  1905.85
                             1929.98  1935.96  1944.79  1985.10  1996.27
                             2013.19  2063.59  2078.16  2133.33  2153.35
                             2164.70  2175.94  2186.02  2188.11  2193.61
                             2207.43  2208.64  2217.09  2228.15  2240.52
                             4275.17  4276.88  4299.31  4324.28  4329.56
                             4389.04  4389.42  4393.56  4400.68  4410.23
                             4413.41  4419.15  4444.54  4459.30  4459.94
                             4464.93  4486.74  4523.00  5104.31

 Zero-point correction=                           0.278498 (Hartree/Particle)
 Thermal correction to Energy=                    0.291049
 Thermal correction to Enthalpy=                  0.291993
 Thermal correction to Gibbs Free Energy=         0.238728
 Sum of electronic and zero-point Energies=           -484.111450
 Sum of electronic and thermal Energies=              -484.098899
 Sum of electronic and thermal Enthalpies=            -484.097955
 Sum of electronic and thermal Free Energies=         -484.151220

                     E (Thermal)             CV                S
                      KCal/Mol        Cal/Mol-Kelvin    Cal/Mol-Kelvin
 Total                  182.636             46.003            112.106
 Electronic               0.000              0.000              0.000
 Translational            0.889              2.981             41.065
 Rotational               0.889              2.981             30.436
 Vibrational            180.859             40.042             40.605
 Vibration     1          0.593              1.986              7.086
 Vibration     2          0.599              1.966              4.039
 Vibration     3          0.600              1.961              3.842
 Vibration     4          0.609              1.933              3.115
 Vibration     5          0.616              1.910              2.766
 Vibration     6          0.620              1.896              2.601
 Vibration     7          0.631              1.861              2.285
 Vibration     8          0.641              1.829              2.065
 Vibration     9          0.651              1.799              1.897
 Vibration    10          0.670              1.742              1.646
 Vibration    11          0.680              1.711              1.534
 Vibration    12          0.696              1.663              1.387
 Vibration    13          0.764              1.476              0.973
 Vibration    14          0.787              1.415              0.874
 Vibration    15          0.848              1.267              0.677
 Vibration    16          0.911              1.127              0.532

                           ! Non-Optimized Parameters !
 Normal termination of Gaussian 16 at Tue Dec  8 20:02:18 2020.

 ----------------------------------------------------------------------
 # B3LYP/6-311++G(d,p) empiricaldispersion=gd3bj scf=xqc pop=npa geom=c
 heck
 ----------------------------------------------------------------------

 --------------------------------------
 CID_81034570_JID_1257_Energie_neutraal
 --------------------------------------
 Structure from the checkpoint file:  "JID_1257.chk"
 Charge =  0 Multiplicity = 1

 SCF Done:  E(RB3LYP) =  -484.530789096     A.U. after   13 cycles
 Normal termination of Gaussian 16 at Tue Dec  8 20:05:16 2020.

 ----------------------------------------------------------------------
 # B3LYP/6-311++G(d,p) empiricaldispersion=gd3bj scf=xqc pop=npa geom=c
 heck
 ----------------------------------------------------------------------

 ------------------------------------
 CID_81034570_JID_1257_Energie_kation
 ------------------------------------
 Structure from the checkpoint file:  "JID_1257.chk"
 Charge =  1 Multiplicity = 2

 SCF Done:  E(UB3LYP) =  -484.246790890     A.U. after   18 cycles
 Normal termination of Gaussian 16 at Tue Dec  8 20:11:11 2020.
 Gaussian 16:  ES64L-G16RevA.03 25-Dec-2016

 ----------------------------------------------------------------------
 # B3LYP/6-311++G(d,p) empiricaldispersion=gd3bj scf=xqc pop=npa geom=c
 heck
 ----------------------------------------------------------------------

 -----------------------------------
 CID_81034570_JID_1257_Energie_anion
 -----------------------------------
 Structure from the checkpoint file:  "JID_1257.chk"
 Charge = -1 Multiplicity = 2

                         Standard orientation:
 ---------------------------------------------------------------------
 Center     Atomic      Atomic             Coordinates (Angstroms)
 Number     Number       Type             X           Y           Z
 ---------------------------------------------------------------------
      1          6           0        1.968474    2.321884   -0.651965
      2          7           0        1.931317    1.065494    0.073797
      3          6           0        0.951880    0.940317    1.139273
      4          6           0       -0.529324    0.621887    0.826211
      5          6           0       -1.239005    1.468874   -0.241658
      6          6           0       -2.629404    0.811190   -0.370882
      7          6           0       -2.441911   -0.665017    0.096146
      8          6           0       -0.935078   -0.824808    0.436388
      9          6           0       -0.227494   -1.436673   -0.781965
     10          8           0        1.176345   -1.629224   -0.673878
     11          6           0        1.565299   -2.598998    0.279118
     12          1           0        2.136774    3.143989    0.055872
     13          1           0        1.068523    2.577937   -1.238023
     14          1           0        2.819563    2.308381   -1.342575
     15          1           0        1.905903    0.251757   -0.532410
     16          1           0        1.307340    0.170650    1.840796
     17          1           0        0.971320    1.884839    1.700266
     18          1           0       -1.058595    0.805750    1.776754
     19          1           0       -1.289921    2.530354    0.022603
     20          1           0       -0.696373    1.402503   -1.190412
     21          1           0       -3.021892    0.875465   -1.390742
     22          1           0       -3.351299    1.321240    0.275904
     23          1           0       -2.763427   -1.383759   -0.666625
     24          1           0       -3.049439   -0.864862    0.984384
     25          1           0       -0.802667   -1.501045    1.289373
     26          1           0       -0.705095   -2.404972   -1.006705
     27          1           0       -0.358474   -0.797572   -1.661264
     28          1           0        2.640893   -2.746698    0.157623
     29          1           0        1.368740   -2.275287    1.310099
     30          1           0        1.047529   -3.555260    0.105536
 ---------------------------------------------------------------------

 SCF Done:  E(UB3LYP) =  -484.514593152     A.U. after   29 cycles

 The electronic state is 2-A.
 Alpha  occ. eigenvalues --  -19.02592 -14.17763 -10.10944 -10.10689 -10.08157
 Alpha  occ. eigenvalues --  -10.07942 -10.06280 -10.05981 -10.05657 -10.05623
 Alpha  occ. eigenvalues --  -10.05430  -0.93676  -0.78841  -0.73314  -0.64024
 Alpha  occ. eigenvalues --   -0.62707  -0.59607  -0.57375  -0.53171  -0.51071
 Alpha  occ. eigenvalues --   -0.46038  -0.43626  -0.39879  -0.38916  -0.37905
 Alpha  occ. eigenvalues --   -0.35954  -0.35140  -0.34165  -0.33574  -0.30662
 Alpha  occ. eigenvalues --   -0.30420  -0.29872  -0.28144  -0.26957  -0.26263
 Alpha  occ. eigenvalues --   -0.24957  -0.23228  -0.23086  -0.22611  -0.20896
 Alpha  occ. eigenvalues --   -0.20851  -0.19707  -0.15935  -0.10542   0.04755
 Alpha virt. eigenvalues --    0.07032   0.07538   0.07667   0.09208   0.09666
 Alpha virt. eigenvalues --    0.09977   0.10196   0.10523   0.11694   0.12312
 Alpha virt. eigenvalues --    0.12719   0.12972   0.13400   0.13584   0.14672

  Beta  occ. eigenvalues --  -19.02585 -14.17762 -10.10925 -10.10645 -10.08145
  Beta  occ. eigenvalues --  -10.07928 -10.06267 -10.05968 -10.05633 -10.05601
  Beta  occ. eigenvalues --  -10.05413  -0.93658  -0.78831  -0.73279  -0.63985
  Beta  occ. eigenvalues --   -0.62670  -0.59552  -0.57333  -0.53112  -0.51024
  Beta  occ. eigenvalues --   -0.45972  -0.43577  -0.39842  -0.38874  -0.37869
  Beta  occ. eigenvalues --   -0.35913  -0.35105  -0.34128  -0.33547  -0.30635
  Beta  occ. eigenvalues --   -0.30380  -0.29836  -0.28109  -0.26932  -0.26243
  Beta  occ. eigenvalues --   -0.24916  -0.23184  -0.23045  -0.22567  -0.20863
  Beta  occ. eigenvalues --   -0.20815  -0.19669  -0.15910  -0.10530
  Beta virt. eigenvalues --    0.06961   0.07859   0.08162   0.08341   0.09751
  Beta virt. eigenvalues --    0.10210   0.10381   0.10789   0.10872   0.12129
  Beta virt. eigenvalues --    0.12761   0.13133   0.13380   0.13696   0.13864

 Mulliken charges and spin densities:
               1          2
     1  C   -0.029167  -0.320848
     2  N   -0.226574   0.040545
     3  C   -0.313254  -0.555399
     4  C    0.371643   0.243867
     5  C   -0.609343   0.278189
     6  C    1.040720  -1.617686
     7  C   -0.090460  -0.507936
     8  C   -0.242879   0.694142
     9  C    0.618207  -1.458403
    10  O   -0.170061   0.063609
    11  C    0.863437  -1.153854
    12  H    0.016002   0.115707
    13  H   -0.079638   0.197908
    14  H   -0.000232   0.131322
    15  H    0.369327  -0.068052
    16  H   -0.069037   0.244486
    17  H   -0.082261   0.212273
    18  H   -0.236652   0.449783
    19  H   -0.190453   0.369060
    20  H    0.256117  -0.166475
    21  H   -0.177239   0.318637
    22  H   -0.126896   0.278238
    23  H   -0.256864   0.387722
    24  H   -0.430696   0.597067
    25  H   -0.322806   0.547988
    26  H   -0.033539   0.204015
    27  H   -0.040531   0.232230
    28  H   -0.173824   0.325482
    29  H   -0.160459   0.305489
    30  H   -0.472588   0.610895
 Sum of Mulliken charges =  -1.00000   1.00000

 Dipole moment (field-independent basis, Debye):
    X=              2.2728    Y=              2.5516    Z=             -2.6702  Tot=              4.3366
 Quadrupole moment (field-independent basis, Debye-Ang):
   XX=           -123.3953   YY=           -124.5510   ZZ=           -105.3515
   XY=              2.1206   XZ=              2.2982   YZ=              0.7506

 Summary of Natural Population Analysis:

                                       Natural Population
                Natural  -----------------------------------------------
    Atom  No    Charge         Core      Valence    Rydberg      Total
 -----------------------------------------------------------------------
      C    1   -0.17483      0.99966     2.16860    0.00657     3.17483
      N    2   -0.35390      0.99974     2.84193    0.01223     3.85390
      C    3   -0.08400      0.99959     2.06996    0.01444     3.08400
      C    4   -0.11493      0.99957     2.10263    0.01274     3.11493
      C    5   -0.19333      0.99961     2.18459    0.00913     3.19333
      C    6   -0.19165      0.99964     2.18404    0.00797     3.19165
      C    7   -0.18881      0.99963     2.18035    0.00884     3.18881
      C    8   -0.12618      0.99957     2.11406    0.01255     3.12618
      C    9   -0.00834      0.99954     1.99450    0.01431     3.00834
      O   10   -0.30707      0.99989     3.29641    0.01077     4.30707
      C   11   -0.09795      0.99960     2.08894    0.00940     3.09795
      H   12    0.08718      0.00000     0.41160    0.00122     0.41282
      H   13    0.07681      0.00000     0.42149    0.00169     0.42319
      H   14    0.08955      0.00000     0.40953    0.00092     0.41045
      H   15    0.18872      0.00000     0.30763    0.00365     0.31128
      H   16    0.09332      0.00000     0.40505    0.00163     0.40668
      H   17    0.09013      0.00000     0.40880    0.00107     0.40987
      H   18    0.09814      0.00000     0.39965    0.00221     0.40186
      H   19    0.10145      0.00000     0.39742    0.00112     0.39855
      H   20    0.09251      0.00000     0.40585    0.00164     0.40749
      H   21    0.09557      0.00000     0.40342    0.00101     0.40443
      H   22    0.09803      0.00000     0.40043    0.00155     0.40197
      H   23    0.09752      0.00000     0.40112    0.00136     0.40248
      H   24    0.10307      0.00000     0.39509    0.00183     0.39693
      H   25    0.10332      0.00000     0.39405    0.00262     0.39668
      H   26    0.08331      0.00000     0.41516    0.00153     0.41669
      H   27    0.08885      0.00000     0.40940    0.00175     0.41115
      H   28    0.08963      0.00000     0.40922    0.00115     0.41037
      H   29    0.08223      0.00000     0.41617    0.00161     0.41777
      H   30    0.08164      0.00000     0.41653    0.00183     0.41836
 =======================================================================
   * Total *   -0.00000     10.99605    32.85361    0.15034    44.00000

 Normal termination of Gaussian 16 at Tue Dec  8 20:21:07 2020.
