 Gaussian 16, Revision A.03,

 -----------------------------------------------------------
 # opt freq B3LYP/6-31G(d) empiricaldispersion=gd3bj scf=xqc
 -----------------------------------------------------------

 ------------------------------
 CID_21785277_JID_6128_neutraal
 ------------------------------
 Symbolic Z-matrix:
 Charge =  0 Multiplicity = 1

 SCF Done:  E(RB3LYP) =  -1173.57570676     A.U. after   15 cycles
 SCF Done:  E(RB3LYP) =  -1173.58313181     A.U. after   12 cycles
 SCF Done:  E(RB3LYP) =  -1173.58423895     A.U. after   12 cycles
 SCF Done:  E(RB3LYP) =  -1173.58422750     A.U. after   12 cycles
 SCF Done:  E(RB3LYP) =  -1173.58452411     A.U. after   12 cycles
 SCF Done:  E(RB3LYP) =  -1173.58466056     A.U. after   11 cycles
 SCF Done:  E(RB3LYP) =  -1173.58467940     A.U. after   11 cycles
 SCF Done:  E(RB3LYP) =  -1173.58468574     A.U. after   10 cycles
 SCF Done:  E(RB3LYP) =  -1173.58468693     A.U. after    9 cycles
 SCF Done:  E(RB3LYP) =  -1173.58468725     A.U. after    8 cycles
 SCF Done:  E(RB3LYP) =  -1173.58468736     A.U. after    7 cycles
 SCF Done:  E(RB3LYP) =  -1173.58468743     A.U. after    7 cycles
 SCF Done:  E(RB3LYP) =  -1173.58468745     A.U. after    7 cycles
 Optimization completed.
    -- Stationary point found.
 Normal termination of Gaussian 16 at Thu Dec 10 21:10:37 2020.

 --------------------------------------------------------------------
 #N Geom=AllCheck Guess=TCheck SCRF=Check GenChk RB3LYP/6-31G(d) Freq
 --------------------------------------------------------------------

 Structure from the checkpoint file:  "JID_6128.chk"
 ------------------------------
 CID_21785277_JID_6128_neutraal
 ------------------------------
 Charge =  0 Multiplicity = 1

 SCF Done:  E(RB3LYP) =  -1173.58468745     A.U. after    1 cycles

  Exact polarizability: 175.082  -5.098 122.594  -5.196  -7.841  85.108
 Approx polarizability: 242.458  -9.948 217.512 -11.792 -19.904 142.104

                      1                      2                      3
                      A                      A                      A
 Frequencies --     28.5261                43.2115                55.6140
 Red. masses --      5.9661                 8.5503                 9.2942
 Frc consts  --      0.0029                 0.0094                 0.0169
 IR Inten    --      0.3893                 1.3619                 3.7697

                      4                      5                      6
                      A                      A                      A
 Frequencies --     86.2199               118.4725               161.0988
 Red. masses --      8.5515                 4.9435                 4.9860
 Frc consts  --      0.0375                 0.0409                 0.0762
 IR Inten    --      1.1510                 0.7949                 2.0278

                      7                      8                      9
                      A                      A                      A
 Frequencies --    209.4639               213.5137               239.9528
 Red. masses --      1.7299                 3.0774                 3.0036
 Frc consts  --      0.0447                 0.0827                 0.1019
 IR Inten    --     32.4548                23.3155                12.2944

                     10                     11                     12
                      A                      A                      A
 Frequencies --    271.8784               283.0449               318.4129
 Red. masses --      4.1782                 4.0711                 3.6080
 Frc consts  --      0.1820                 0.1922                 0.2155
 IR Inten    --      6.5490                16.8381                13.9804

                     13                     14                     15
                      A                      A                      A
 Frequencies --    365.9864               372.4477               400.3700
 Red. masses --      5.3446                 5.2872                 3.3550
 Frc consts  --      0.4218                 0.4321                 0.3169
 IR Inten    --      9.7333                 8.5788                28.8186

                     16                     17                     18
                      A                      A                      A
 Frequencies --    435.0123               456.8551               486.3925
 Red. masses --      2.9775                 4.9355                 5.4712
 Frc consts  --      0.3320                 0.6069                 0.7626
 IR Inten    --      6.9713                31.3571                 5.4703

                     19                     20                     21
                      A                      A                      A
 Frequencies --    518.6083               550.0279               562.5733
 Red. masses --      3.3149                 3.5062                 5.0664
 Frc consts  --      0.5253                 0.6250                 0.9447
 IR Inten    --     62.1983                45.0573                99.7596

                     22                     23                     24
                      A                      A                      A
 Frequencies --    574.8488               632.7985               653.1548
 Red. masses --      4.0601                 1.8644                 3.4934
 Frc consts  --      0.7905                 0.4399                 0.8781
 IR Inten    --     69.3240                65.1631                20.7175

                     25                     26                     27
                      A                      A                      A
 Frequencies --    660.4307               682.7915               722.6741
 Red. masses --      4.3513                 4.2994                 3.6236
 Frc consts  --      1.1182                 1.1810                 1.1150
 IR Inten    --     45.8940                26.8650                84.3941

                     28                     29                     30
                      A                      A                      A
 Frequencies --    738.7721               811.8445               814.1009
 Red. masses --      4.4825                 4.8772                 3.1123
 Frc consts  --      1.4414                 1.8939                 1.2153
 IR Inten    --     10.6000                 7.3672               136.0164

                     31                     32                     33
                      A                      A                      A
 Frequencies --    820.7125               840.2121               866.9651
 Red. masses --      1.5476                 2.8993                 2.4465
 Frc consts  --      0.6142                 1.2059                 1.0834
 IR Inten    --     11.9282                32.1756                91.1825

                     34                     35                     36
                      A                      A                      A
 Frequencies --    874.7979               900.9048               929.2325
 Red. masses --      3.5979                 1.4205                 1.3092
 Frc consts  --      1.6222                 0.6793                 0.6661
 IR Inten    --     11.0650                37.1837                 1.8157

                     37                     38                     39
                      A                      A                      A
 Frequencies --    971.9595               984.1592              1107.2674
 Red. masses --      3.1879                 2.4133                 1.9862
 Frc consts  --      1.7744                 1.3772                 1.4347
 IR Inten    --     19.1028                97.3586                10.0955

                     40                     41                     42
                      A                      A                      A
 Frequencies --   1139.0517              1163.8636              1165.2867
 Red. masses --      7.8972                 1.7512                 1.8889
 Frc consts  --      6.0368                 1.3976                 1.5112
 IR Inten    --    267.0269                94.9793                94.4384

                     43                     44                     45
                      A                      A                      A
 Frequencies --   1190.9238              1221.8859              1258.1392
 Red. masses --      1.9865                 1.6375                 2.7367
 Frc consts  --      1.6600                 1.4404                 2.5524
 IR Inten    --     55.0881                23.8096                 3.3055

                     46                     47                     48
                      A                      A                      A
 Frequencies --   1267.7132              1296.0038              1313.1322
 Red. masses --      1.2913                 1.5395                 2.5199
 Frc consts  --      1.2227                 1.5235                 2.5601
 IR Inten    --      4.0265                 0.0293                30.1228

                     49                     50                     51
                      A                      A                      A
 Frequencies --   1334.4436              1350.0016              1359.1916
 Red. masses --      2.6634                 7.3811                 1.4422
 Frc consts  --      2.7944                 7.9257                 1.5698
 IR Inten    --    322.9886               136.9400                40.8204

                     52                     53                     54
                      A                      A                      A
 Frequencies --   1393.4631              1424.0660              1429.9220
 Red. masses --      1.8719                 1.9890                 1.9226
 Frc consts  --      2.1416                 2.3765                 2.3161
 IR Inten    --     80.7922                19.3845                92.9214

                     55                     56                     57
                      A                      A                      A
 Frequencies --   1498.8760              1553.7852              1658.2079
 Red. masses --      3.5886                 2.8755                 6.8325
 Frc consts  --      4.7501                 4.0902                11.0690
 IR Inten    --     39.6930                92.0360                 4.5584

                     58                     59                     60
                      A                      A                      A
 Frequencies --   1674.6249              1702.1052              1833.2640
 Red. masses --      6.5202                 1.0929                 9.7201
 Frc consts  --     10.7732                 1.8655                19.2474
 IR Inten    --      3.6501                26.1250               234.1515

                     61                     62                     63
                      A                      A                      A
 Frequencies --   3092.8713              3201.2563              3205.3581
 Red. masses --      1.0850                 1.0879                 1.0910
 Frc consts  --      6.1153                 6.5688                 6.6044
 IR Inten    --     12.0614                 5.3718                 1.2125

                     64                     65                     66
                      A                      A                      A
 Frequencies --   3215.9997              3459.8944              3544.5555
 Red. masses --      1.0950                 1.0502                 1.0913
 Frc consts  --      6.6724                 7.4070                 8.0784
 IR Inten    --      9.5165                 1.0906                 1.1885

                     67                     68                     69
                      A                      A                      A
 Frequencies --   3552.0479              3553.5417              3674.2997
 Red. masses --      1.0764                 1.0764                 1.0640
 Frc consts  --      8.0016                 8.0084                 8.4634
 IR Inten    --     47.6684                45.2493                48.7210

 - Thermochemistry -
 -------------------
 Temperature   298.150 Kelvin.  Pressure   1.00000 Atm.
 Atom     1 has atomic number  6 and mass  12.00000

 Molecular mass:   243.03138 amu.
 Principal axes and moments of inertia in atomic units:
                           1         2         3
     Eigenvalues --  1592.883997565.110797992.27484
           X            0.99999   0.00078  -0.00368
           Y           -0.00086   0.99977  -0.02139
           Z            0.00366   0.02139   0.99976
 This molecule is an asymmetric top.
 Rotational symmetry number  1.
 Warning -- assumption of classical behavior for rotation
           may cause significant error
 Rotational temperatures (Kelvin)      0.05438     0.01145     0.01084
 Rotational constants (GHZ):           1.13300     0.23856     0.22581
 Zero-point vibrational energy     481455.6 (Joules/Mol)
                                  115.07064 (Kcal/Mol)
 Warning -- explicit consideration of  22 degrees of freedom as
           vibrations may cause significant error
 Vibrational temperatures:     41.04    62.17    80.02   124.05   170.46
          (Kelvin)            231.79   301.37   307.20   345.24   391.17
                              407.24   458.13   526.57   535.87   576.04
                              625.89   657.31   699.81   746.16   791.37
                              809.42   827.08   910.46   939.74   950.21
                              982.38  1039.77  1062.93  1168.06  1171.31
                             1180.82  1208.88  1247.37  1258.64  1296.20
                             1336.96  1398.43  1415.99  1593.11  1638.84
                             1674.54  1676.59  1713.47  1758.02  1810.18
                             1823.96  1864.66  1889.30  1919.97  1942.35
                             1955.57  2004.88  2048.91  2057.34  2156.55
                             2235.55  2385.79  2409.41  2448.95  2637.66
                             4449.95  4605.89  4611.80  4627.11  4978.02
                             5099.82  5110.60  5112.75  5286.50

 Zero-point correction=                           0.183377 (Hartree/Particle)
 Thermal correction to Energy=                    0.197796
 Thermal correction to Enthalpy=                  0.198740
 Thermal correction to Gibbs Free Energy=         0.140614
 Sum of electronic and zero-point Energies=          -1173.401311
 Sum of electronic and thermal Energies=             -1173.386891
 Sum of electronic and thermal Enthalpies=           -1173.385947
 Sum of electronic and thermal Free Energies=        -1173.444073

                     E (Thermal)             CV                S
                      KCal/Mol        Cal/Mol-Kelvin    Cal/Mol-Kelvin
 Total                  124.119             54.759            122.337
 Electronic               0.000              0.000              0.000
 Translational            0.889              2.981             42.365
 Rotational               0.889              2.981             32.932
 Vibrational            122.342             48.797             47.040
 Vibration     1          0.593              1.984              5.929
 Vibration     2          0.595              1.980              5.106
 Vibration     3          0.596              1.975              4.607
 Vibration     4          0.601              1.959              3.744
 Vibration     5          0.609              1.934              3.125
 Vibration     6          0.622              1.890              2.537
 Vibration     7          0.642              1.826              2.048
 Vibration     8          0.644              1.820              2.013
 Vibration     9          0.657              1.779              1.803
 Vibration    10          0.675              1.725              1.584
 Vibration    11          0.682              1.705              1.515
 Vibration    12          0.705              1.638              1.318
 Vibration    13          0.739              1.542              1.097
 Vibration    14          0.744              1.529              1.070
 Vibration    15          0.766              1.469              0.961
 Vibration    16          0.796              1.394              0.842
 Vibration    17          0.815              1.346              0.775
 Vibration    18          0.842              1.280              0.693
 Vibration    19          0.874              1.209              0.613
 Vibration    20          0.905              1.140              0.544
 Vibration    21          0.918              1.112              0.519
 Vibration    22          0.931              1.086              0.495

 Optimization completed.
    -- Stationary point found.
 Normal termination of Gaussian 16 at Thu Dec 10 21:18:15 2020.

 ----------------------------------------------------------------------
 # B3LYP/6-311++G(d,p) empiricaldispersion=gd3bj scf=xqc pop=npa geom=c
 heck
 ----------------------------------------------------------------------

 --------------------------------------
 CID_21785277_JID_6128_Energie_neutraal
 --------------------------------------
 Structure from the checkpoint file:  "JID_6128.chk"
 Charge =  0 Multiplicity = 1

 SCF Done:  E(RB3LYP) =  -1173.85052973     A.U. after   16 cycles
 Normal termination of Gaussian 16 at Thu Dec 10 21:21:08 2020.

 ----------------------------------------------------------------------
 # B3LYP/6-311++G(d,p) empiricaldispersion=gd3bj scf=xqc pop=npa geom=c
 heck
 ----------------------------------------------------------------------

 ------------------------------------
 CID_21785277_JID_6128_Energie_kation
 ------------------------------------
 Structure from the checkpoint file:  "JID_6128.chk"
 Charge =  1 Multiplicity = 2

 SCF Done:  E(UB3LYP) =  -1173.54384647     A.U. after   29 cycles
 Normal termination of Gaussian 16 at Thu Dec 10 21:28:08 2020.
 Gaussian 16:  ES64L-G16RevA.03 25-Dec-2016

 ----------------------------------------------------------------------
 # B3LYP/6-311++G(d,p) empiricaldispersion=gd3bj scf=xqc pop=npa geom=c
 heck
 ----------------------------------------------------------------------

 -----------------------------------
 CID_21785277_JID_6128_Energie_anion
 -----------------------------------
 Structure from the checkpoint file:  "JID_6128.chk"
 Charge = -1 Multiplicity = 2

                         Standard orientation:
 ---------------------------------------------------------------------
 Center     Atomic      Atomic             Coordinates (Angstroms)
 Number     Number       Type             X           Y           Z
 ---------------------------------------------------------------------
      1          6           0       -1.065824    1.946749   -0.204807
      2          6           0        0.300332    2.146484   -0.424996
      3          6           0        1.150825    1.053603   -0.338785
      4          6           0        0.646708   -0.220619   -0.035861
      5          6           0       -0.707474   -0.419181    0.183064
      6          6           0       -1.574719    0.681636    0.097068
      7          6           0       -3.058165    0.502572    0.386565
      8          6           0       -3.562522   -0.740552   -0.350146
      9          8           0       -3.656910   -1.843759    0.145650
     10          8           0       -3.870926   -0.481060   -1.639024
     11          7           0       -3.289877    0.450226    1.828489
     12          7           0        1.667102   -1.198922   -0.034217
     13         16           0        3.204469   -0.436496    0.061729
     14          8           0        3.632345   -0.274997    1.452353
     15          8           0        4.123229   -1.026701   -0.895520
     16          7           0        2.546418    1.025331   -0.560819
     17          1           0       -1.742505    2.793490   -0.261457
     18          1           0        0.688014    3.132959   -0.658980
     19          1           0       -1.091277   -1.409657    0.408170
     20          1           0       -3.594244    1.366701   -0.017549
     21          1           0       -4.137016   -1.331416   -2.038245
     22          1           0       -4.286693    0.320194    2.002241
     23          1           0       -2.839636   -0.387321    2.196666
     24          1           0        1.583992   -1.964309    0.630286
     25          1           0        3.085484    1.834828   -0.263244
 ---------------------------------------------------------------------

 SCF Done:  E(UB3LYP) =  -1173.84719860     A.U. after   33 cycles
 SCF Done:  E(UB3LYP) =  -1173.84719860     a.u. after    1 cycles

 The electronic state is 2-A.
 Alpha  occ. eigenvalues --  -88.99344 -19.07455 -19.03713 -19.03586 -19.02109
 Alpha  occ. eigenvalues --  -14.26680 -14.25991 -14.20449 -10.20668 -10.12138
 Alpha  occ. eigenvalues --  -10.12072 -10.11409 -10.07724 -10.07267 -10.07135
 Alpha  occ. eigenvalues --  -10.06852  -8.05381  -6.01674  -6.01592  -6.01519
 Alpha  occ. eigenvalues --   -1.04602  -1.01509  -0.92817  -0.92688  -0.88902
 Alpha  occ. eigenvalues --   -0.81987  -0.80480  -0.74822  -0.66512  -0.64853
 Alpha  occ. eigenvalues --   -0.60798  -0.56869  -0.53810  -0.52700  -0.49154
 Alpha  occ. eigenvalues --   -0.45310  -0.43256  -0.41673  -0.41117  -0.40961
 Alpha  occ. eigenvalues --   -0.39533  -0.38938  -0.38484  -0.36044  -0.35438
 Alpha  occ. eigenvalues --   -0.34052  -0.33296  -0.32375  -0.31261  -0.30059
 Alpha  occ. eigenvalues --   -0.28041  -0.26978  -0.26759  -0.25777  -0.24222
 Alpha  occ. eigenvalues --   -0.24185  -0.23278  -0.21998  -0.20800  -0.19286
 Alpha  occ. eigenvalues --   -0.16118  -0.14473  -0.11894   0.04190
 Alpha virt. eigenvalues --    0.05735   0.07216   0.07368   0.07919   0.08466
 Alpha virt. eigenvalues --    0.09224   0.09985   0.10797   0.11865   0.12216
 Alpha virt. eigenvalues --    0.13459   0.13517   0.13702   0.14075   0.14530

  Beta  occ. eigenvalues --  -88.99330 -19.07396 -19.03701 -19.03563 -19.02085
  Beta  occ. eigenvalues --  -14.26647 -14.25904 -14.20422 -10.20642 -10.12131
  Beta  occ. eigenvalues --  -10.12096 -10.11295 -10.07631 -10.07293 -10.07018
  Beta  occ. eigenvalues --  -10.06689  -8.05362  -6.01659  -6.01576  -6.01507
  Beta  occ. eigenvalues --   -1.04545  -1.01413  -0.92766  -0.92610  -0.88799
  Beta  occ. eigenvalues --   -0.81877  -0.80405  -0.74648  -0.66309  -0.64660
  Beta  occ. eigenvalues --   -0.60642  -0.56742  -0.53585  -0.52602  -0.49033
  Beta  occ. eigenvalues --   -0.45186  -0.43144  -0.41602  -0.41005  -0.40887
  Beta  occ. eigenvalues --   -0.39484  -0.38863  -0.38423  -0.35939  -0.35338
  Beta  occ. eigenvalues --   -0.33924  -0.33160  -0.32210  -0.31124  -0.30015
  Beta  occ. eigenvalues --   -0.27920  -0.26927  -0.26689  -0.25654  -0.24142
  Beta  occ. eigenvalues --   -0.23975  -0.23170  -0.21851  -0.20635  -0.19229
  Beta  occ. eigenvalues --   -0.16064  -0.13747  -0.11464
  Beta virt. eigenvalues --    0.06696   0.07178   0.07799   0.08092   0.08596
  Beta virt. eigenvalues --    0.09006   0.09479   0.10055   0.11039   0.11995
  Beta virt. eigenvalues --    0.12396   0.13437   0.13654   0.13772   0.14100

 Mulliken charges and spin densities:
               1          2
     1  C   -0.386172  -0.007009
     2  C   -0.439016   0.080544
     3  C    0.318565  -0.280362
     4  C   -0.005613  -0.116800
     5  C   -1.092287   0.356054
     6  C    1.228666  -0.068867
     7  C    0.057034  -0.351585
     8  C   -0.044983  -0.229317
     9  O   -0.291067   0.032921
    10  O   -0.174059   0.033890
    11  N   -0.334079   0.000860
    12  N   -0.359009  -0.016839
    13  S    0.823258  -0.064917
    14  O   -0.163279  -0.008741
    15  O   -0.177100  -0.007336
    16  N   -0.320667  -0.044508
    17  H    0.128848   0.004257
    18  H   -0.111875   0.256539
    19  H    0.189263  -0.012521
    20  H    0.170956   0.040354
    21  H   -0.332481   0.627615
    22  H    0.076346   0.146998
    23  H    0.240634   0.002385
    24  H    0.209939   0.090363
    25  H   -0.211823   0.536021
 Sum of Mulliken charges =  -1.00000   1.00000

 Dipole moment (field-independent basis, Debye):
    X=             -0.5884    Y=              0.1268    Z=              1.2659  Tot=              1.4017
 Quadrupole moment (field-independent basis, Debye-Ang):
   XX=           -182.6458   YY=           -123.9472   ZZ=           -128.6132
   XY=            -11.4236   XZ=             -6.6729   YZ=             -8.3927

 Summary of Natural Population Analysis:

                                       Natural Population
                Natural  -----------------------------------------------
    Atom  No    Charge         Core      Valence    Rydberg      Total
 -----------------------------------------------------------------------
      C    1   -0.09951      0.99952     2.09154    0.00845     3.09951
      C    2   -0.09307      0.99952     2.08414    0.00941     3.09307
      C    3    0.07797      0.99943     1.91101    0.01159     2.92203
      C    4    0.06046      0.99944     1.92863    0.01147     2.93954
      C    5   -0.08797      0.99946     2.08004    0.00847     3.08797
      C    6   -0.00604      0.99950     1.99609    0.01045     3.00604
      C    7   -0.06179      0.99952     2.04792    0.01435     3.06179
      C    8    0.40867      0.99970     1.56425    0.02739     2.59133
      O    9   -0.31623      0.99987     3.31005    0.00632     4.31623
      O   10   -0.34089      0.99987     3.33455    0.00647     4.34089
      N   11   -0.40857      0.99977     2.89945    0.00934     3.90857
      N   12   -0.40180      0.99969     2.89202    0.01009     3.90180
      S   13    1.14109      4.99941     1.75650    0.10299     6.85891
      O   14   -0.44880      0.99990     3.44351    0.00539     4.44880
      O   15   -0.43984      0.99990     3.43431    0.00563     4.43984
      N   16   -0.39833      0.99969     2.88777    0.01086     3.89833
      H   17    0.09824      0.00000     0.40099    0.00077     0.40176
      H   18    0.10295      0.00000     0.39613    0.00092     0.39705
      H   19    0.10685      0.00000     0.39205    0.00110     0.39315
      H   20    0.10527      0.00000     0.39317    0.00156     0.39473
      H   21    0.24186      0.00000     0.24309    0.01505     0.25814
      H   22    0.17301      0.00000     0.32531    0.00168     0.32699
      H   23    0.17743      0.00000     0.32105    0.00152     0.32257
      H   24    0.20173      0.00000     0.29622    0.00205     0.29827
      H   25    0.20732      0.00000     0.28299    0.00969     0.29268
 =======================================================================
   * Total *    0.00000     19.99419    42.71280    0.29301    63.00000

 Normal termination of Gaussian 16 at Thu Dec 10 21:36:05 2020.
