 Gaussian 16, Revision A.03,

 -----------------------------------------------------------
 # opt freq B3LYP/6-31G(d) empiricaldispersion=gd3bj scf=xqc
 -----------------------------------------------------------

 ------------------------------
 CID_64917088_JID_6900_neutraal
 ------------------------------
 Symbolic Z-matrix:
 Charge =  0 Multiplicity = 1

 SCF Done:  E(RB3LYP) =  -1144.03526932     A.U. after   15 cycles
 SCF Done:  E(RB3LYP) =  -1144.04201443     A.U. after   13 cycles
 SCF Done:  E(RB3LYP) =  -1144.03314517     A.U. after   15 cycles
 SCF Done:  E(RB3LYP) =  -1144.04058855     A.U. after   14 cycles
 SCF Done:  E(RB3LYP) =  -1144.04335328     A.U. after   11 cycles
 SCF Done:  E(RB3LYP) =  -1144.04224431     A.U. after   13 cycles
 SCF Done:  E(RB3LYP) =  -1144.04318370     A.U. after   13 cycles
 SCF Done:  E(RB3LYP) =  -1144.04386458     A.U. after    9 cycles
 SCF Done:  E(RB3LYP) =  -1144.04446995     A.U. after   13 cycles
 SCF Done:  E(RB3LYP) =  -1144.04460485     A.U. after   11 cycles
 SCF Done:  E(RB3LYP) =  -1144.04481607     A.U. after    7 cycles
 SCF Done:  E(RB3LYP) =  -1144.04481611     A.U. after    8 cycles
 SCF Done:  E(RB3LYP) =  -1144.04481613     A.U. after    6 cycles
 SCF Done:  E(RB3LYP) =  -1144.04481614     A.U. after    7 cycles
 SCF Done:  E(RB3LYP) =  -1144.04481614     A.U. after    7 cycles
 Optimization completed.
    -- Stationary point found.
 Normal termination of Gaussian 16 at Fri Dec 11 01:18:34 2020.

 --------------------------------------------------------------------
 #N Geom=AllCheck Guess=TCheck SCRF=Check GenChk RB3LYP/6-31G(d) Freq
 --------------------------------------------------------------------

 Structure from the checkpoint file:  "JID_6900.chk"
 ------------------------------
 CID_64917088_JID_6900_neutraal
 ------------------------------
 Charge =  0 Multiplicity = 1

 SCF Done:  E(RB3LYP) =  -1144.04481614     A.U. after    1 cycles

  Exact polarizability: 139.720  -6.857 127.524  -7.308  -2.147 124.777
 Approx polarizability: 181.988 -11.258 186.440 -20.582  -2.166 221.788

                      1                      2                      3
                      A                      A                      A
 Frequencies --     16.4062                29.6002                42.9834
 Red. masses --      8.0878                 5.5925                 4.8446
 Frc consts  --      0.0013                 0.0029                 0.0053
 IR Inten    --      1.2154                 0.7746                 0.2474

                      4                      5                      6
                      A                      A                      A
 Frequencies --     51.0751                75.3241                88.7945
 Red. masses --      5.8469                 3.1488                 2.5223
 Frc consts  --      0.0090                 0.0105                 0.0117
 IR Inten    --      0.2735                 1.1180                 0.7036

                      7                      8                      9
                      A                      A                      A
 Frequencies --     93.5331               115.7837               144.9733
 Red. masses --      5.3625                 7.0224                 8.3202
 Frc consts  --      0.0276                 0.0555                 0.1030
 IR Inten    --      3.5556                 4.5968                 6.0199

                     10                     11                     12
                      A                      A                      A
 Frequencies --    180.4517               204.3945               246.2801
 Red. masses --      2.6174                 4.0000                 5.2980
 Frc consts  --      0.0502                 0.0985                 0.1893
 IR Inten    --      0.7265                 3.9665                 3.1146

                     13                     14                     15
                      A                      A                      A
 Frequencies --    278.6515               295.1686               308.6916
 Red. masses --      1.4909                 1.7711                 3.1112
 Frc consts  --      0.0682                 0.0909                 0.1747
 IR Inten    --      1.1267                 0.1792                 4.7431

                     16                     17                     18
                      A                      A                      A
 Frequencies --    353.3540               389.4476               435.2661
 Red. masses --      2.3831                 4.4212                 3.2948
 Frc consts  --      0.1753                 0.3951                 0.3678
 IR Inten    --      3.5512                23.1213                 1.2069

                     19                     20                     21
                      A                      A                      A
 Frequencies --    452.1738               511.4623               547.0351
 Red. masses --      2.4944                 4.2584                 3.8981
 Frc consts  --      0.3005                 0.6563                 0.6873
 IR Inten    --      5.3417                15.3117                30.8564

                     22                     23                     24
                      A                      A                      A
 Frequencies --    562.5628               569.7375               575.1448
 Red. masses --      3.7407                 3.2464                 3.1801
 Frc consts  --      0.6975                 0.6209                 0.6198
 IR Inten    --      0.6708                 0.0779                 4.6000

                     25                     26                     27
                      A                      A                      A
 Frequencies --    607.1192               627.8279               662.7609
 Red. masses --      3.5885                 3.3094                 1.6822
 Frc consts  --      0.7793                 0.7686                 0.4354
 IR Inten    --      2.3611                22.2552                55.3557

                     28                     29                     30
                      A                      A                      A
 Frequencies --    677.2770               695.1615               707.2824
 Red. masses --      5.8782                 3.8184                 4.8206
 Frc consts  --      1.5887                 1.0872                 1.4208
 IR Inten    --     28.7978                12.4032                 3.8164

                     31                     32                     33
                      A                      A                      A
 Frequencies --    744.0577               793.8800               838.9400
 Red. masses --      3.0632                 2.3051                 1.5352
 Frc consts  --      0.9992                 0.8560                 0.6366
 IR Inten    --     46.7820                19.8703                15.4076

                     34                     35                     36
                      A                      A                      A
 Frequencies --    863.0755               901.4515               932.9441
 Red. masses --      1.9716                 2.1177                 2.2866
 Frc consts  --      0.8653                 1.0139                 1.1726
 IR Inten    --     13.9862                 9.5415                 8.4191

                     37                     38                     39
                      A                      A                      A
 Frequencies --    948.6323              1007.6795              1022.1459
 Red. masses --      2.0027                 3.3361                 2.2175
 Frc consts  --      1.0618                 1.9959                 1.3650
 IR Inten    --     14.6325                 0.9713                 3.9578

                     40                     41                     42
                      A                      A                      A
 Frequencies --   1037.5364              1045.1723              1070.2532
 Red. masses --      2.3085                 1.5534                 2.7537
 Frc consts  --      1.4642                 0.9998                 1.8584
 IR Inten    --      0.0771                 3.9782                 8.1867

                     43                     44                     45
                      A                      A                      A
 Frequencies --   1086.6267              1105.1465              1138.7395
 Red. masses --      3.1134                 1.8528                 2.3172
 Frc consts  --      2.1659                 1.3333                 1.7704
 IR Inten    --     11.3716                17.1908                64.0626

                     46                     47                     48
                      A                      A                      A
 Frequencies --   1175.7103              1189.9662              1199.4477
 Red. masses --      1.2465                 1.9200                 1.9112
 Frc consts  --      1.0152                 1.6018                 1.6200
 IR Inten    --      4.0661               123.1631               199.8914

                     49                     50                     51
                      A                      A                      A
 Frequencies --   1249.6117              1256.2318              1268.1323
 Red. masses --      1.2266                 1.1182                 1.2717
 Frc consts  --      1.1285                 1.0397                 1.2049
 IR Inten    --     17.3738                 0.5795                25.0870

                     52                     53                     54
                      A                      A                      A
 Frequencies --   1294.2553              1303.8130              1328.7866
 Red. masses --      1.6635                 1.5698                 1.4723
 Frc consts  --      1.6418                 1.5723                 1.5316
 IR Inten    --     10.4878                 7.1055                 9.3606

                     55                     56                     57
                      A                      A                      A
 Frequencies --   1329.6948              1341.8061              1364.4034
 Red. masses --      1.5088                 1.4772                 1.3857
 Frc consts  --      1.5718                 1.5670                 1.5199
 IR Inten    --      9.5710                13.0262                22.3751

                     58                     59                     60
                      A                      A                      A
 Frequencies --   1374.9904              1397.7313              1402.3454
 Red. masses --      1.5676                 2.1926                 1.7284
 Frc consts  --      1.7461                 2.5238                 2.0027
 IR Inten    --    116.1129                20.7976                65.8030

                     61                     62                     63
                      A                      A                      A
 Frequencies --   1432.6829              1440.5022              1485.2192
 Red. masses --      2.5239                 1.2717                 1.0740
 Frc consts  --      3.0523                 1.5548                 1.3959
 IR Inten    --    115.9851                 8.2614                 0.0126

                     64                     65                     66
                      A                      A                      A
 Frequencies --   1495.2262              1495.7800              1502.8254
 Red. masses --      1.0813                 1.0774                 1.1012
 Frc consts  --      1.4243                 1.4202                 1.4653
 IR Inten    --     12.6068                 7.4180                25.5480

                     67                     68                     69
                      A                      A                      A
 Frequencies --   1506.3880              1524.4378              1540.7655
 Red. masses --      1.0991                 1.0528                 1.0601
 Frc consts  --      1.4695                 1.4415                 1.4828
 IR Inten    --     13.0470                 4.0315                22.4713

                     70                     71                     72
                      A                      A                      A
 Frequencies --   1802.4698              1841.3752              1867.5571
 Red. masses --     12.6643                 9.9535                12.0235
 Frc consts  --     24.2420                19.8843                24.7075
 IR Inten    --    544.3978               228.5993                29.6850

                     73                     74                     75
                      A                      A                      A
 Frequencies --   2999.1016              3076.2772              3080.9915
 Red. masses --      1.0812                 1.0362                 1.0655
 Frc consts  --      5.7296                 5.7773                 5.9593
 IR Inten    --     16.2098                22.9222                 8.3133

                     76                     77                     78
                      A                      A                      A
 Frequencies --   3088.5687              3094.0573              3095.0001
 Red. masses --      1.0606                 1.0641                 1.0625
 Frc consts  --      5.9609                 6.0020                 5.9966
 IR Inten    --     11.6802                17.0870                 1.1434

                     79                     80                     81
                      A                      A                      A
 Frequencies --   3115.7431              3124.2348              3139.0473
 Red. masses --      1.0616                 1.1057                 1.1033
 Frc consts  --      6.0721                 6.3586                 6.4051
 IR Inten    --      3.5553                 0.1714                 9.7097

                     82                     83                     84
                      A                      A                      A
 Frequencies --   3145.2204              3149.5788              3157.3311
 Red. masses --      1.1007                 1.1018                 1.1017
 Frc consts  --      6.4155                 6.4396                 6.4708
 IR Inten    --     25.9340                 9.6209                 8.4373

                     85                     86                     87
                      A                      A                      A
 Frequencies --   3160.2753              3171.2341              3682.3637
 Red. masses --      1.0999                 1.1034                 1.0639
 Frc consts  --      6.4722                 6.5381                 8.4999
 IR Inten    --      6.3919                 2.0988                52.6200

 - Thermochemistry -
 -------------------
 Temperature   298.150 Kelvin.  Pressure   1.00000 Atm.
 Atom     1 has atomic number  6 and mass  12.00000

 Molecular mass:   245.07218 amu.
 Principal axes and moments of inertia in atomic units:
                           1         2         3
     Eigenvalues --  2414.025026219.779576574.09440
           X            0.99999  -0.00342   0.00373
           Y            0.00348   0.99984  -0.01764
           Z           -0.00367   0.01765   0.99984
 This molecule is an asymmetric top.
 Rotational symmetry number  1.
 Warning -- assumption of classical behavior for rotation
           may cause significant error
 Rotational temperatures (Kelvin)      0.03588     0.01393     0.01318
 Rotational constants (GHZ):           0.74761     0.29016     0.27452
 Zero-point vibrational energy     662570.8 (Joules/Mol)
                                  158.35822 (Kcal/Mol)
 Warning -- explicit consideration of  25 degrees of freedom as
           vibrations may cause significant error
 Vibrational temperatures:     23.60    42.59    61.84    73.49   108.37
          (Kelvin)            127.76   134.57   166.59   208.58   259.63
                              294.08   354.34   400.92   424.68   444.14
                              508.40   560.33   626.25   650.58   735.88
                              787.06   809.40   819.73   827.51   873.51
                              903.30   953.57   974.45  1000.18  1017.62
                             1070.53  1142.22  1207.05  1241.77  1296.99
                             1342.30  1364.87  1449.83  1470.64  1492.78
                             1503.77  1539.86  1563.41  1590.06  1638.39
                             1691.58  1712.10  1725.74  1797.91  1807.44
                             1824.56  1862.14  1875.90  1911.83  1913.13
                             1930.56  1963.07  1978.30  2011.02  2017.66
                             2061.31  2072.56  2136.90  2151.30  2152.09
                             2162.23  2167.36  2193.33  2216.82  2593.35
                             2649.33  2687.00  4315.04  4426.08  4432.86
                             4443.76  4451.66  4453.01  4482.86  4495.08
                             4516.39  4525.27  4531.54  4542.70  4546.93
                             4562.70  5298.10

 Zero-point correction=                           0.252360 (Hartree/Particle)
 Thermal correction to Energy=                    0.269068
 Thermal correction to Enthalpy=                  0.270012
 Thermal correction to Gibbs Free Energy=         0.205023
 Sum of electronic and zero-point Energies=          -1143.792456
 Sum of electronic and thermal Energies=             -1143.775748
 Sum of electronic and thermal Enthalpies=           -1143.774804
 Sum of electronic and thermal Free Energies=        -1143.839793

                     E (Thermal)             CV                S
                      KCal/Mol        Cal/Mol-Kelvin    Cal/Mol-Kelvin
 Total                  168.843             60.536            136.781
 Electronic               0.000              0.000              0.000
 Translational            0.889              2.981             42.390
 Rotational               0.889              2.981             32.956
 Vibrational            167.065             54.574             61.435
 Vibration     1          0.593              1.986              7.028
 Vibration     2          0.593              1.984              5.856
 Vibration     3          0.595              1.980              5.117
 Vibration     4          0.595              1.977              4.775
 Vibration     5          0.599              1.965              4.009
 Vibration     6          0.602              1.957              3.686
 Vibration     7          0.603              1.954              3.585
 Vibration     8          0.608              1.936              3.170
 Vibration     9          0.616              1.908              2.737
 Vibration    10          0.629              1.866              2.324
 Vibration    11          0.640              1.834              2.093
 Vibration    12          0.661              1.769              1.757
 Vibration    13          0.679              1.713              1.542
 Vibration    14          0.689              1.683              1.444
 Vibration    15          0.698              1.657              1.369
 Vibration    16          0.730              1.568              1.151
 Vibration    17          0.757              1.493              1.002
 Vibration    18          0.796              1.393              0.842
 Vibration    19          0.811              1.356              0.789
 Vibration    20          0.867              1.225              0.630
 Vibration    21          0.902              1.146              0.550
 Vibration    22          0.918              1.112              0.519
 Vibration    23          0.926              1.097              0.505
 Vibration    24          0.932              1.085              0.494
 Vibration    25          0.966              1.017              0.438

 Optimization completed.
    -- Stationary point found.
 Normal termination of Gaussian 16 at Fri Dec 11 01:29:45 2020.

 ----------------------------------------------------------------------
 # B3LYP/6-311++G(d,p) empiricaldispersion=gd3bj scf=xqc pop=npa geom=c
 heck
 ----------------------------------------------------------------------

 --------------------------------------
 CID_64917088_JID_6900_Energie_neutraal
 --------------------------------------
 Structure from the checkpoint file:  "JID_6900.chk"
 Charge =  0 Multiplicity = 1

 SCF Done:  E(RB3LYP) =  -1144.29796859     A.U. after   15 cycles
 Normal termination of Gaussian 16 at Fri Dec 11 01:34:20 2020.

 ----------------------------------------------------------------------
 # B3LYP/6-311++G(d,p) empiricaldispersion=gd3bj scf=xqc pop=npa geom=c
 heck
 ----------------------------------------------------------------------

 ------------------------------------
 CID_64917088_JID_6900_Energie_kation
 ------------------------------------
 Structure from the checkpoint file:  "JID_6900.chk"
 Charge =  1 Multiplicity = 2

 SCF Done:  E(UB3LYP) =  -1143.98825825     A.U. after   24 cycles
 Normal termination of Gaussian 16 at Fri Dec 11 01:43:57 2020.
 Gaussian 16:  ES64L-G16RevA.03 25-Dec-2016

 ----------------------------------------------------------------------
 # B3LYP/6-311++G(d,p) empiricaldispersion=gd3bj scf=xqc pop=npa geom=c
 heck
 ----------------------------------------------------------------------

 -----------------------------------
 CID_64917088_JID_6900_Energie_anion
 -----------------------------------
 Structure from the checkpoint file:  "JID_6900.chk"
 Charge = -1 Multiplicity = 2

                         Standard orientation:
 ---------------------------------------------------------------------
 Center     Atomic      Atomic             Coordinates (Angstroms)
 Number     Number       Type             X           Y           Z
 ---------------------------------------------------------------------
      1          6           0       -1.005806   -1.406351   -0.765644
      2          6           0       -1.875971   -0.900470    0.388490
      3          6           0       -1.382946    0.397890    1.043820
      4         16           0       -1.360176    1.882997   -0.033775
      5          6           0        0.241594    1.832408   -0.928250
      6          6           0        1.527014    1.778431   -0.084640
      7          7           0        2.060198    0.427394    0.068895
      8          6           0        2.144261   -0.252586    1.280999
      9          8           0        1.739565    0.172444    2.344079
     10          6           0        2.805757   -1.600990    1.019023
     11          6           0        3.117608   -1.613579   -0.484410
     12          6           0        2.635847   -0.262814   -1.000035
     13          8           0        2.717893    0.174487   -2.127945
     14          6           0       -3.349181   -0.754466    0.025463
     15          8           0       -4.147379   -0.077646    0.634910
     16          8           0       -3.708540   -1.507425   -1.042198
     17          1           0       -1.053141   -0.727687   -1.620752
     18          1           0       -1.333468   -2.391907   -1.103581
     19          1           0        0.036893   -1.479749   -0.441479
     20          1           0       -1.863987   -1.663656    1.184269
     21          1           0       -2.083219    0.673171    1.835419
     22          1           0       -0.406522    0.260377    1.510059
     23          1           0        0.259929    1.040607   -1.678155
     24          1           0        0.229273    2.779471   -1.476536
     25          1           0        2.301857    2.367315   -0.585089
     26          1           0        1.371128    2.176066    0.919635
     27          1           0        3.694598   -1.685467    1.650994
     28          1           0        2.116526   -2.392386    1.328806
     29          1           0        4.182180   -1.719490   -0.711423
     30          1           0        2.592450   -2.403410   -1.030032
     31          1           0       -4.664448   -1.352673   -1.163666
 ---------------------------------------------------------------------

 SCF Done:  E(UB3LYP) =  -1144.29306730     A.U. after   33 cycles
 SCF Done:  E(UB3LYP) =  -1144.29306730     a.u. after    1 cycles

 The electronic state is 2-A.
 Alpha  occ. eigenvalues --  -88.74684 -19.07986 -19.02069 -19.01774 -19.01471
 Alpha  occ. eigenvalues --  -14.27573 -10.20999 -10.19198 -10.18985 -10.13205
 Alpha  occ. eigenvalues --  -10.11507 -10.10224 -10.10196 -10.09434 -10.09278
 Alpha  occ. eigenvalues --  -10.06947  -7.83285  -5.79695  -5.79298  -5.78652
 Alpha  occ. eigenvalues --   -1.01931  -0.97758  -0.95713  -0.92861  -0.86747
 Alpha  occ. eigenvalues --   -0.74136  -0.72575  -0.68761  -0.63725  -0.59823
 Alpha  occ. eigenvalues --   -0.59039  -0.56758  -0.53299  -0.52048  -0.47295
 Alpha  occ. eigenvalues --   -0.45542  -0.41414  -0.40847  -0.39921  -0.39082
 Alpha  occ. eigenvalues --   -0.38251  -0.38079  -0.36814  -0.34869  -0.33746
 Alpha  occ. eigenvalues --   -0.33550  -0.33004  -0.32176  -0.31890  -0.31744
 Alpha  occ. eigenvalues --   -0.31391  -0.30592  -0.30197  -0.28574  -0.28174
 Alpha  occ. eigenvalues --   -0.26885  -0.25261  -0.24630  -0.23379  -0.21517
 Alpha  occ. eigenvalues --   -0.19416  -0.19279  -0.18800  -0.17067  -0.13638
 Alpha  occ. eigenvalues --    0.03949
 Alpha virt. eigenvalues --    0.05838   0.06362   0.07192   0.07261   0.08346
 Alpha virt. eigenvalues --    0.08977   0.09680   0.10016   0.10590   0.10695
 Alpha virt. eigenvalues --    0.11410   0.11924   0.12230   0.12529   0.13161

  Beta  occ. eigenvalues --  -88.74683 -19.07956 -19.02041 -19.01726 -19.01403
  Beta  occ. eigenvalues --  -14.27596 -10.20949 -10.19117 -10.18884 -10.13199
  Beta  occ. eigenvalues --  -10.11507 -10.10216 -10.10185 -10.09402 -10.09244
  Beta  occ. eigenvalues --  -10.06917  -7.83284  -5.79694  -5.79297  -5.78651
  Beta  occ. eigenvalues --   -1.01861  -0.97644  -0.95587  -0.92802  -0.86705
  Beta  occ. eigenvalues --   -0.74101  -0.72526  -0.68726  -0.63690  -0.59637
  Beta  occ. eigenvalues --   -0.58997  -0.56663  -0.53211  -0.51982  -0.47237
  Beta  occ. eigenvalues --   -0.45480  -0.41267  -0.40763  -0.39866  -0.38986
  Beta  occ. eigenvalues --   -0.38150  -0.37999  -0.36747  -0.34802  -0.33670
  Beta  occ. eigenvalues --   -0.33473  -0.32868  -0.32017  -0.31816  -0.31660
  Beta  occ. eigenvalues --   -0.31321  -0.30474  -0.30088  -0.28533  -0.28134
  Beta  occ. eigenvalues --   -0.26852  -0.25059  -0.24597  -0.23272  -0.21471
  Beta  occ. eigenvalues --   -0.19338  -0.19183  -0.18748  -0.17013  -0.13622
  Beta virt. eigenvalues --    0.06366   0.06981   0.07146   0.07407   0.08122
  Beta virt. eigenvalues --    0.08707   0.09513   0.09797   0.10327   0.10858
  Beta virt. eigenvalues --    0.11066   0.11520   0.12113   0.12359   0.12962

 Mulliken charges and spin densities:
               1          2
     1  C   -0.535723  -0.243617
     2  C    0.139128   0.251515
     3  C    0.143065  -0.379388
     4  S   -0.105104   0.040392
     5  C   -0.438684   0.101680
     6  C   -0.250436  -0.074891
     7  N    0.192227  -0.004392
     8  C   -0.345519   0.282288
     9  O   -0.292305   0.033695
    10  C    0.829334  -1.141172
    11  C    0.493639  -0.857014
    12  C   -0.094864   0.087337
    13  O   -0.331093   0.039522
    14  C   -0.313774   0.018705
    15  O   -0.272338   0.017284
    16  O   -0.164683   0.027145
    17  H    0.026585   0.184556
    18  H   -0.318052   0.515205
    19  H    1.666658  -1.585799
    20  H   -0.557132   0.796597
    21  H    0.312415  -0.018972
    22  H    0.338729  -0.146722
    23  H    0.171533   0.012581
    24  H    0.201126   0.018370
    25  H    0.037094   0.151373
    26  H    0.169394   0.039407
    27  H   -0.271717   0.471996
    28  H   -0.607304   0.840464
    29  H   -0.597129   0.810692
    30  H   -0.167030   0.379689
    31  H   -0.058041   0.331473
 Sum of Mulliken charges =  -1.00000   1.00000

 Dipole moment (field-independent basis, Debye):
    X=             -1.4132    Y=              5.3225    Z=             -1.5138  Tot=              5.7112
 Quadrupole moment (field-independent basis, Debye-Ang):
   XX=           -179.5548   YY=           -143.5140   ZZ=           -140.8479
   XY=              9.5775   XZ=              3.9677   YZ=              0.7788

 Summary of Natural Population Analysis:

                                       Natural Population
                Natural  -----------------------------------------------
    Atom  No    Charge         Core      Valence    Rydberg      Total
 -----------------------------------------------------------------------
      C    1   -0.28534      0.99964     2.27835    0.00735     3.28534
      C    2   -0.16248      0.99954     2.15076    0.01218     3.16248
      C    3   -0.25728      0.99955     2.24585    0.01188     3.25728
      S    4    0.08624      4.99963     2.89735    0.01678     7.91376
      C    5   -0.25819      0.99957     2.24981    0.00881     3.25819
      C    6   -0.09792      0.99960     2.08614    0.01218     3.09792
      N    7   -0.27170      0.99959     2.76056    0.01155     3.77170
      C    8    0.37212      0.99965     1.60534    0.02289     2.62788
      O    9   -0.30022      0.99987     3.29455    0.00580     4.30022
      C   10   -0.23607      0.99961     2.22762    0.00884     3.23607
      C   11   -0.23630      0.99961     2.22806    0.00863     3.23630
      C   12    0.36993      0.99966     1.60740    0.02301     2.63007
      O   13   -0.29995      0.99987     3.29440    0.00568     4.29995
      C   14    0.41918      0.99969     1.55472    0.02641     2.58082
      O   15   -0.31113      0.99987     3.30530    0.00596     4.31113
      O   16   -0.34388      0.99988     3.33757    0.00644     4.34388
      H   17    0.10073      0.00000     0.39808    0.00119     0.39927
      H   18    0.10974      0.00000     0.38893    0.00132     0.39026
      H   19    0.09691      0.00000     0.40108    0.00201     0.40309
      H   20    0.11971      0.00000     0.37768    0.00261     0.38029
      H   21    0.11720      0.00000     0.38179    0.00102     0.38280
      H   22    0.11748      0.00000     0.38083    0.00169     0.38252
      H   23    0.11028      0.00000     0.38822    0.00150     0.38972
      H   24    0.10678      0.00000     0.39239    0.00084     0.39322
      H   25    0.10548      0.00000     0.39338    0.00115     0.39452
      H   26    0.11515      0.00000     0.38347    0.00138     0.38485
      H   27    0.11607      0.00000     0.38282    0.00111     0.38393
      H   28    0.12221      0.00000     0.37362    0.00417     0.37779
      H   29    0.11916      0.00000     0.37759    0.00324     0.38084
      H   30    0.11683      0.00000     0.38202    0.00115     0.38317
      H   31    0.23928      0.00000     0.25581    0.00492     0.26072
 =======================================================================
   * Total *    0.00000     19.99481    44.78149    0.22370    65.00000

 Normal termination of Gaussian 16 at Fri Dec 11 01:57:52 2020.
