 Gaussian 16, Revision A.03,

 -----------------------------------------------------------
 # opt freq B3LYP/6-31G(d) empiricaldispersion=gd3bj scf=xqc
 -----------------------------------------------------------

 -------------------------------
 CID_105290932_JID_6415_neutraal
 -------------------------------
 Symbolic Z-matrix:
 Charge =  0 Multiplicity = 1

 SCF Done:  E(RB3LYP) =  -1128.82150985     A.U. after   14 cycles
 SCF Done:  E(RB3LYP) =  -1128.82985573     A.U. after   12 cycles
 SCF Done:  E(RB3LYP) =  -1128.83198310     A.U. after   12 cycles
 SCF Done:  E(RB3LYP) =  -1128.83297958     A.U. after   14 cycles
 SCF Done:  E(RB3LYP) =  -1128.83268769     A.U. after   14 cycles
 SCF Done:  E(RB3LYP) =  -1128.83397627     A.U. after   12 cycles
 SCF Done:  E(RB3LYP) =  -1128.83441463     A.U. after   14 cycles
 SCF Done:  E(RB3LYP) =  -1128.83463581     A.U. after   12 cycles
 SCF Done:  E(RB3LYP) =  -1128.83469252     A.U. after   11 cycles
 SCF Done:  E(RB3LYP) =  -1128.83496939     A.U. after   11 cycles
 SCF Done:  E(RB3LYP) =  -1128.84108651     A.U. after    9 cycles
 SCF Done:  E(RB3LYP) =  -1128.84109147     A.U. after    8 cycles
 SCF Done:  E(RB3LYP) =  -1128.84109167     A.U. after    7 cycles
 SCF Done:  E(RB3LYP) =  -1128.84109180     A.U. after    7 cycles
 SCF Done:  E(RB3LYP) =  -1128.84109171     A.U. after    6 cycles
 SCF Done:  E(RB3LYP) =  -1128.84109172     A.U. after    6 cycles
 Optimization completed.
    -- Stationary point found.
 Normal termination of Gaussian 16 at Thu Dec 10 23:15:33 2020.

 --------------------------------------------------------------------
 #N Geom=AllCheck Guess=TCheck SCRF=Check GenChk RB3LYP/6-31G(d) Freq
 --------------------------------------------------------------------

 Structure from the checkpoint file:  "JID_6415.chk"
 -------------------------------
 CID_105290932_JID_6415_neutraal
 -------------------------------
 Charge =  0 Multiplicity = 1

 SCF Done:  E(RB3LYP) =  -1128.84109172     A.U. after    1 cycles

  Exact polarizability: 169.893   2.495 133.815   0.507   3.755 133.456
 Approx polarizability: 207.549   2.563 198.694  -2.476  -0.749 208.549

                      1                      2                      3
                      A                      A                      A
 Frequencies --     31.0497                46.8994                52.2426
 Red. masses --      4.6742                 4.0922                 3.2785
 Frc consts  --      0.0027                 0.0053                 0.0053
 IR Inten    --      0.9558                 1.1051                 1.2593

                      4                      5                      6
                      A                      A                      A
 Frequencies --     56.7430                76.6454                79.7287
 Red. masses --      3.8786                 3.8447                 2.5869
 Frc consts  --      0.0074                 0.0133                 0.0097
 IR Inten    --      2.1685                 0.8412                 5.7350

                      7                      8                      9
                      A                      A                      A
 Frequencies --    111.1520               120.5145               135.3231
 Red. masses --      3.4145                 4.0457                 4.1167
 Frc consts  --      0.0249                 0.0346                 0.0444
 IR Inten    --      2.0052                 1.0244                 1.9003

                     10                     11                     12
                      A                      A                      A
 Frequencies --    175.1200               200.3384               213.0716
 Red. masses --      2.8638                 1.2172                 2.6585
 Frc consts  --      0.0517                 0.0288                 0.0711
 IR Inten    --      3.5349                 1.7846                 1.8197

                     13                     14                     15
                      A                      A                      A
 Frequencies --    221.3418               238.5953               252.3149
 Red. masses --      1.2460                 2.6762                 1.2069
 Frc consts  --      0.0360                 0.0898                 0.0453
 IR Inten    --      2.1793                12.5990                 0.8199

                     16                     17                     18
                      A                      A                      A
 Frequencies --    255.5269               291.5424               298.7266
 Red. masses --      2.5995                 2.2110                 2.8392
 Frc consts  --      0.1000                 0.1107                 0.1493
 IR Inten    --     10.4781                 0.5816                 4.5979

                     19                     20                     21
                      A                      A                      A
 Frequencies --    326.2996               334.4520               360.2738
 Red. masses --      2.4772                 2.1700                 2.2833
 Frc consts  --      0.1554                 0.1430                 0.1746
 IR Inten    --      3.2602                 5.6933                 1.2549

                     22                     23                     24
                      A                      A                      A
 Frequencies --    376.0476               378.3370               417.2667
 Red. masses --      1.8892                 1.6486                 3.3022
 Frc consts  --      0.1574                 0.1390                 0.3387
 IR Inten    --      0.8343                16.9407                19.7812

                     25                     26                     27
                      A                      A                      A
 Frequencies --    426.2922               448.7586               452.2764
 Red. masses --      3.3473                 4.7581                 2.9592
 Frc consts  --      0.3584                 0.5646                 0.3566
 IR Inten    --      7.4680                15.5389                 5.4345

                     28                     29                     30
                      A                      A                      A
 Frequencies --    486.7288               500.0979               578.1394
 Red. masses --      3.1540                 2.8301                 2.0498
 Frc consts  --      0.4402                 0.4170                 0.4037
 IR Inten    --      8.2630                16.4322                26.4278

                     31                     32                     33
                      A                      A                      A
 Frequencies --    623.1521               650.6760               722.4189
 Red. masses --      2.4706                 3.6593                 2.7103
 Frc consts  --      0.5653                 0.9128                 0.8334
 IR Inten    --      1.9825                 8.5811                29.9107

                     34                     35                     36
                      A                      A                      A
 Frequencies --    763.0603               795.8579               805.2362
 Red. masses --      2.6196                 2.5721                 2.0216
 Frc consts  --      0.8987                 0.9599                 0.7723
 IR Inten    --      5.7295                 5.9961                53.1684

                     37                     38                     39
                      A                      A                      A
 Frequencies --    851.5170               866.1951               892.4390
 Red. masses --      2.0228                 1.8696                 2.0283
 Frc consts  --      0.8641                 0.8265                 0.9518
 IR Inten    --      2.7623                48.0569                10.1098

                     40                     41                     42
                      A                      A                      A
 Frequencies --    910.9933               961.9291               972.1694
 Red. masses --      2.3432                 1.8311                 1.4953
 Frc consts  --      1.1457                 0.9982                 0.8326
 IR Inten    --      3.7775                20.7159                33.8728

                     43                     44                     45
                      A                      A                      A
 Frequencies --    982.8931               996.2094              1007.1045
 Red. masses --      1.7032                 1.4639                 1.7220
 Frc consts  --      0.9694                 0.8560                 1.0291
 IR Inten    --     46.6181                 2.6369                27.7447

                     46                     47                     48
                      A                      A                      A
 Frequencies --   1011.9658              1023.7181              1063.1093
 Red. masses --      2.0722                 1.8379                 1.6815
 Frc consts  --      1.2503                 1.1348                 1.1197
 IR Inten    --     19.2523                 3.0359                 6.3761

                     49                     50                     51
                      A                      A                      A
 Frequencies --   1078.1010              1097.7115              1116.2221
 Red. masses --      1.8924                 2.1595                 4.9309
 Frc consts  --      1.2960                 1.5331                 3.6197
 IR Inten    --      7.8455                11.1453               176.0161

                     52                     53                     54
                      A                      A                      A
 Frequencies --   1133.8947              1138.2505              1157.2967
 Red. masses --      4.5496                 2.0577                 2.4001
 Frc consts  --      3.4464                 1.5708                 1.8940
 IR Inten    --     90.2401                 9.1692                43.9531

                     55                     56                     57
                      A                      A                      A
 Frequencies --   1183.0091              1191.0568              1195.2783
 Red. masses --      1.9571                 1.3749                 1.6796
 Frc consts  --      1.6138                 1.1492                 1.4138
 IR Inten    --     38.9680                14.1721                10.3969

                     58                     59                     60
                      A                      A                      A
 Frequencies --   1202.5212              1226.7462              1233.8423
 Red. masses --      1.4000                 1.2971                 1.4861
 Frc consts  --      1.1928                 1.1501                 1.3329
 IR Inten    --     25.7172                12.5519                24.9610

                     61                     62                     63
                      A                      A                      A
 Frequencies --   1269.3723              1299.9016              1302.7091
 Red. masses --      1.3016                 1.5005                 1.7205
 Frc consts  --      1.2357                 1.4939                 1.7203
 IR Inten    --      3.9008                16.3338                66.6162

                     64                     65                     66
                      A                      A                      A
 Frequencies --   1307.3579              1323.6552              1359.3001
 Red. masses --      1.7759                 1.2962                 1.3596
 Frc consts  --      1.7884                 1.3381                 1.4801
 IR Inten    --    100.3180                10.3794                12.7118

                     67                     68                     69
                      A                      A                      A
 Frequencies --   1367.7170              1373.4613              1382.4019
 Red. masses --      1.1891                 1.2565                 1.5222
 Frc consts  --      1.3106                 1.3965                 1.7139
 IR Inten    --      5.8460                 8.7046                 4.0023

                     70                     71                     72
                      A                      A                      A
 Frequencies --   1396.5863              1405.9520              1410.5640
 Red. masses --      1.3837                 1.2328                 1.3753
 Frc consts  --      1.5901                 1.4357                 1.6122
 IR Inten    --     12.0202                34.7771                 1.4201

                     73                     74                     75
                      A                      A                      A
 Frequencies --   1415.8225              1428.7675              1433.6449
 Red. masses --      1.3389                 1.3881                 1.3826
 Frc consts  --      1.5813                 1.6696                 1.6743
 IR Inten    --      0.6524                 5.3590                 4.8155

                     76                     77                     78
                      A                      A                      A
 Frequencies --   1441.5215              1467.4315              1483.1724
 Red. masses --      1.3788                 1.0815                 1.0617
 Frc consts  --      1.6880                 1.3721                 1.3761
 IR Inten    --     15.9165                 4.8723                12.8863

                     79                     80                     81
                      A                      A                      A
 Frequencies --   1495.4090              1501.2242              1505.4170
 Red. masses --      1.0521                 1.1279                 1.0870
 Frc consts  --      1.3862                 1.4977                 1.4514
 IR Inten    --     15.7159                 1.4823                 4.0767

                     82                     83                     84
                      A                      A                      A
 Frequencies --   1512.2730              1515.0772              1522.0972
 Red. masses --      1.0664                 1.0674                 1.0641
 Frc consts  --      1.4369                 1.4435                 1.4525
 IR Inten    --     10.0748                 1.4511                 5.7198

                     85                     86                     87
                      A                      A                      A
 Frequencies --   1530.6919              1534.7920              1535.0723
 Red. masses --      1.0966                 1.0773                 1.1410
 Frc consts  --      1.5138                 1.4951                 1.5841
 IR Inten    --     13.0835                 5.4666                 4.4075

                     88                     89                     90
                      A                      A                      A
 Frequencies --   1540.5665              1545.2682              1727.3986
 Red. masses --      1.0524                 1.0706                 1.0641
 Frc consts  --      1.4716                 1.5062                 1.8708
 IR Inten    --      5.9457                 1.6227                17.5515

                     91                     92                     93
                      A                      A                      A
 Frequencies --   2971.4302              2982.8262              3001.4819
 Red. masses --      1.0829                 1.0823                 1.0393
 Frc consts  --      5.6333                 5.6738                 5.5165
 IR Inten    --     47.6858                41.8832                76.8991

                     94                     95                     96
                      A                      A                      A
 Frequencies --   3034.0066              3051.0796              3052.1708
 Red. masses --      1.0644                 1.0687                 1.0812
 Frc consts  --      5.7730                 5.8617                 5.9342
 IR Inten    --     23.4700                18.7626                18.4190

                     97                     98                     99
                      A                      A                      A
 Frequencies --   3053.6194              3061.0829              3062.4299
 Red. masses --      1.0773                 1.0636                 1.0456
 Frc consts  --      5.9187                 5.8718                 5.7777
 IR Inten    --     41.8641                35.4436                26.7081

                    100                    101                    102
                      A                      A                      A
 Frequencies --   3075.3010              3085.4952              3087.0081
 Red. masses --      1.0940                 1.0389                 1.0547
 Frc consts  --      6.0958                 5.8271                 5.9216
 IR Inten    --     40.4402                 8.3182                 5.6946

                    103                    104                    105
                      A                      A                      A
 Frequencies --   3098.9927              3101.7740              3107.7529
 Red. masses --      1.0985                 1.0957                 1.0958
 Frc consts  --      6.2156                 6.2110                 6.2356
 IR Inten    --     44.5614                 7.4025                20.1136

                    106                    107                    108
                      A                      A                      A
 Frequencies --   3126.4590              3134.6542              3137.7287
 Red. masses --      1.1012                 1.1018                 1.0985
 Frc consts  --      6.3421                 6.3785                 6.3722
 IR Inten    --     28.9050                27.1751                31.6374

                    109                    110                    111
                      A                      A                      A
 Frequencies --   3160.7358              3185.4939              3198.3129
 Red. masses --      1.1020                 1.1058                 1.1083
 Frc consts  --      6.4868                 6.6111                 6.6794
 IR Inten    --      0.7833                 3.9446                 2.8252

                    112                    113                    114
                      A                      A                      A
 Frequencies --   3359.7849              3493.5252              3543.8181
 Red. masses --      1.0582                 1.0754                 1.0812
 Frc consts  --      7.0378                 7.7328                 8.0003
 IR Inten    --     26.1901                 0.3924                 0.4225

 - Thermochemistry -
 -------------------
 Temperature   298.150 Kelvin.  Pressure   1.00000 Atm.
 Atom     1 has atomic number  6 and mass  12.00000

 Molecular mass:   252.15076 amu.
 Principal axes and moments of inertia in atomic units:
                           1         2         3
     Eigenvalues --  1990.474108901.903089269.84939
           X            0.99997   0.00794   0.00262
           Y           -0.00808   0.99832   0.05729
           Z           -0.00216  -0.05731   0.99835
 This molecule is an asymmetric top.
 Rotational symmetry number  1.
 Warning -- assumption of classical behavior for rotation
           may cause significant error
 Rotational temperatures (Kelvin)      0.04351     0.00973     0.00934
 Rotational constants (GHZ):           0.90669     0.20274     0.19469
 Zero-point vibrational energy     934869.7 (Joules/Mol)
                                  223.43923 (Kcal/Mol)
 Warning -- explicit consideration of  30 degrees of freedom as
           vibrations may cause significant error
 Vibrational temperatures:     44.67    67.48    75.17    81.64   110.28
          (Kelvin)            114.71   159.92   173.39   194.70   251.96
                              288.24   306.56   318.46   343.29   363.02
                              367.65   419.46   429.80   469.47   481.20
                              518.35   541.05   544.34   600.35   613.34
                              645.66   650.72   700.29   719.53   831.81
                              896.58   936.18  1039.40  1097.87  1145.06
                             1158.56  1225.14  1246.26  1284.02  1310.72
                             1384.00  1398.74  1414.16  1433.32  1449.00
                             1455.99  1472.90  1529.58  1551.15  1579.36
                             1605.99  1631.42  1637.69  1665.09  1702.09
                             1713.67  1719.74  1730.16  1765.01  1775.22
                             1826.34  1870.27  1874.31  1881.00  1904.44
                             1955.73  1967.84  1976.10  1988.97  2009.38
                             2022.85  2029.49  2037.05  2055.68  2062.70
                             2074.03  2111.31  2133.95  2151.56  2159.93
                             2165.96  2175.82  2179.86  2189.96  2202.32
                             2208.22  2208.63  2216.53  2223.30  2485.34
                             4275.23  4291.62  4318.46  4365.26  4389.82
                             4391.39  4393.48  4404.22  4406.15  4424.67
                             4439.34  4441.52  4458.76  4462.76  4471.36
                             4498.28  4510.07  4514.49  4547.59  4583.22
                             4601.66  4833.98  5026.40  5098.76

 Zero-point correction=                           0.356073 (Hartree/Particle)
 Thermal correction to Energy=                    0.375567
 Thermal correction to Enthalpy=                  0.376511
 Thermal correction to Gibbs Free Energy=         0.307766
 Sum of electronic and zero-point Energies=          -1128.485019
 Sum of electronic and thermal Energies=             -1128.465525
 Sum of electronic and thermal Enthalpies=           -1128.464581
 Sum of electronic and thermal Free Energies=        -1128.533326

                     E (Thermal)             CV                S
                      KCal/Mol        Cal/Mol-Kelvin    Cal/Mol-Kelvin
 Total                  235.672             72.078            144.686
 Electronic               0.000              0.000              0.000
 Translational            0.889              2.981             42.475
 Rotational               0.889              2.981             33.462
 Vibrational            233.894             66.117             68.749
 Vibration     1          0.594              1.983              5.761
 Vibration     2          0.595              1.979              4.944
 Vibration     3          0.596              1.977              4.731
 Vibration     4          0.596              1.975              4.567
 Vibration     5          0.599              1.965              3.975
 Vibration     6          0.600              1.963              3.898
 Vibration     7          0.607              1.940              3.249
 Vibration     8          0.609              1.932              3.092
 Vibration     9          0.613              1.918              2.869
 Vibration    10          0.627              1.873              2.380
 Vibration    11          0.638              1.839              2.130
 Vibration    12          0.644              1.821              2.017
 Vibration    13          0.648              1.809              1.948
 Vibration    14          0.657              1.781              1.813
 Vibration    15          0.664              1.759              1.714
 Vibration    16          0.666              1.753              1.692
 Vibration    17          0.687              1.689              1.465
 Vibration    18          0.692              1.676              1.424
 Vibration    19          0.710              1.623              1.278
 Vibration    20          0.716              1.607              1.238
 Vibration    21          0.735              1.554              1.121
 Vibration    22          0.747              1.521              1.055
 Vibration    23          0.749              1.516              1.046
 Vibration    24          0.780              1.433              0.901
 Vibration    25          0.788              1.413              0.871
 Vibration    26          0.808              1.364              0.800
 Vibration    27          0.811              1.356              0.789
 Vibration    28          0.843              1.279              0.692
 Vibration    29          0.856              1.250              0.658
 Vibration    30          0.935              1.079              0.489

 Optimization completed.
    -- Stationary point found.
 Normal termination of Gaussian 16 at Thu Dec 10 23:29:32 2020.

 ----------------------------------------------------------------------
 # B3LYP/6-311++G(d,p) empiricaldispersion=gd3bj scf=xqc pop=npa geom=c
 heck
 ----------------------------------------------------------------------

 ---------------------------------------
 CID_105290932_JID_6415_Energie_neutraal
 ---------------------------------------
 Structure from the checkpoint file:  "JID_6415.chk"
 Charge =  0 Multiplicity = 1

 SCF Done:  E(RB3LYP) =  -1129.09384782     A.U. after   14 cycles
 Normal termination of Gaussian 16 at Thu Dec 10 23:36:01 2020.

 ----------------------------------------------------------------------
 # B3LYP/6-311++G(d,p) empiricaldispersion=gd3bj scf=xqc pop=npa geom=c
 heck
 ----------------------------------------------------------------------

 -------------------------------------
 CID_105290932_JID_6415_Energie_kation
 -------------------------------------
 Structure from the checkpoint file:  "JID_6415.chk"
 Charge =  1 Multiplicity = 2

 SCF Done:  E(UB3LYP) =  -1128.77374961     A.U. after   29 cycles
 Normal termination of Gaussian 16 at Thu Dec 10 23:54:18 2020.
 Gaussian 16:  ES64L-G16RevA.03 25-Dec-2016

 ----------------------------------------------------------------------
 # B3LYP/6-311++G(d,p) empiricaldispersion=gd3bj scf=xqc pop=npa geom=c
 heck
 ----------------------------------------------------------------------

 ------------------------------------
 CID_105290932_JID_6415_Energie_anion
 ------------------------------------
 Structure from the checkpoint file:  "JID_6415.chk"
 Charge = -1 Multiplicity = 2

                         Standard orientation:
 ---------------------------------------------------------------------
 Center     Atomic      Atomic             Coordinates (Angstroms)
 Number     Number       Type             X           Y           Z
 ---------------------------------------------------------------------
      1          6           0       -4.477756    0.566984   -0.948045
      2          6           0       -3.750882   -0.670689   -0.416777
      3          6           0       -2.481386   -1.021072   -1.203020
      4          6           0       -1.453753    0.102728   -1.408398
      5          6           0       -0.827293    0.686870   -0.133768
      6          6           0       -0.098773   -0.349356    0.742749
      7          6           0        0.816704   -1.351178    0.021517
      8          6           0        1.947973   -0.783550   -0.840793
      9         16           0        3.488836   -0.391072    0.042198
     10          8           0        3.694387   -1.393421    1.103481
     11          8           0        4.516387   -0.176507   -0.991330
     12          6           0        3.208480    1.204570    0.840932
     13          7           0        0.090058    1.784814   -0.511467
     14          7           0        0.218153    2.814569    0.471464
     15          8           0       -3.379977   -0.525693    0.955867
     16          6           0       -4.459177   -0.565568    1.866357
     17          1           0       -3.875913    1.468340   -0.795504
     18          1           0       -5.438839    0.713901   -0.446006
     19          1           0       -4.677684    0.461729   -2.020173
     20          1           0       -4.431834   -1.535685   -0.495581
     21          1           0       -2.014801   -1.877028   -0.703699
     22          1           0       -2.797803   -1.373375   -2.193063
     23          1           0       -0.658297   -0.274390   -2.063008
     24          1           0       -1.928581    0.924031   -1.962718
     25          1           0       -1.646054    1.097157    0.480009
     26          1           0        0.464846    0.193824    1.512085
     27          1           0       -0.861227   -0.919415    1.283061
     28          1           0        1.256375   -2.031219    0.759465
     29          1           0        0.205525   -1.979753   -0.636474
     30          1           0        2.300757   -1.528464   -1.561683
     31          1           0        1.665815    0.124350   -1.376777
     32          1           0        2.804256    1.906990    0.110673
     33          1           0        2.528880    1.066153    1.682968
     34          1           0        4.186995    1.533465    1.197518
     35          1           0       -0.258846    2.247167   -1.348199
     36          1           0        0.889204    2.496831    1.166248
     37          1           0       -0.671372    2.936141    0.970143
     38          1           0       -4.026346   -0.591925    2.869544
     39          1           0       -5.110713    0.316429    1.788220
     40          1           0       -5.074395   -1.467261    1.719138
 ---------------------------------------------------------------------

 SCF Done:  E(UB3LYP) =  -1129.08865009     A.U. after   27 cycles

 The electronic state is 2-A.
 Alpha  occ. eigenvalues --  -88.95908 -19.03175 -19.02825 -19.02680 -14.23950
 Alpha  occ. eigenvalues --  -14.23626 -10.13114 -10.12534 -10.12212 -10.11722
 Alpha  occ. eigenvalues --  -10.10869 -10.09648 -10.08426 -10.08132 -10.08033
 Alpha  occ. eigenvalues --  -10.06505  -8.02413  -5.98670  -5.98576  -5.98507
 Alpha  occ. eigenvalues --   -1.01973  -0.94446  -0.91643  -0.88062  -0.74611
 Alpha  occ. eigenvalues --   -0.72163  -0.69708  -0.68340  -0.64700  -0.63271
 Alpha  occ. eigenvalues --   -0.59829  -0.57808  -0.55125  -0.51046  -0.48626
 Alpha  occ. eigenvalues --   -0.46398  -0.43089  -0.42404  -0.41427  -0.40947
 Alpha  occ. eigenvalues --   -0.39871  -0.39180  -0.38755  -0.38397  -0.36664
 Alpha  occ. eigenvalues --   -0.36365  -0.35412  -0.35177  -0.34503  -0.33370
 Alpha  occ. eigenvalues --   -0.32819  -0.31136  -0.30638  -0.29995  -0.29158
 Alpha  occ. eigenvalues --   -0.28472  -0.27160  -0.26717  -0.25574  -0.24637
 Alpha  occ. eigenvalues --   -0.24445  -0.23562  -0.23256  -0.21875  -0.21803
 Alpha  occ. eigenvalues --   -0.20516  -0.17491  -0.17105  -0.15665   0.03605
 Alpha virt. eigenvalues --    0.05644   0.06232   0.06763   0.07745   0.08113
 Alpha virt. eigenvalues --    0.08708   0.09109   0.09226   0.09864   0.10615
 Alpha virt. eigenvalues --    0.10897   0.11170   0.11664   0.12180   0.12374

  Beta  occ. eigenvalues --  -88.95906 -19.03165 -19.02822 -19.02677 -14.23938
  Beta  occ. eigenvalues --  -14.23592 -10.13100 -10.12512 -10.12207 -10.11681
  Beta  occ. eigenvalues --  -10.10862 -10.09641 -10.08411 -10.08116 -10.08022
  Beta  occ. eigenvalues --  -10.06458  -8.02411  -5.98668  -5.98573  -5.98505
  Beta  occ. eigenvalues --   -1.01964  -0.94431  -0.91635  -0.88030  -0.74585
  Beta  occ. eigenvalues --   -0.72139  -0.69667  -0.68304  -0.64656  -0.63229
  Beta  occ. eigenvalues --   -0.59750  -0.57765  -0.55077  -0.51018  -0.48576
  Beta  occ. eigenvalues --   -0.46352  -0.43063  -0.42380  -0.41386  -0.40917
  Beta  occ. eigenvalues --   -0.39838  -0.39148  -0.38712  -0.38374  -0.36628
  Beta  occ. eigenvalues --   -0.36330  -0.35389  -0.35148  -0.34486  -0.33344
  Beta  occ. eigenvalues --   -0.32785  -0.31097  -0.30598  -0.29951  -0.29127
  Beta  occ. eigenvalues --   -0.28443  -0.27142  -0.26687  -0.25536  -0.24625
  Beta  occ. eigenvalues --   -0.24415  -0.23544  -0.23238  -0.21842  -0.21784
  Beta  occ. eigenvalues --   -0.20504  -0.17459  -0.17075  -0.15630
  Beta virt. eigenvalues --    0.05770   0.06354   0.06808   0.07356   0.08167
  Beta virt. eigenvalues --    0.08458   0.09124   0.09333   0.09577   0.10123
  Beta virt. eigenvalues --    0.10910   0.11246   0.11338   0.11827   0.12328

 Mulliken charges and spin densities:
               1          2
     1  C    1.550821  -2.206777
     2  C   -1.264371   1.320109
     3  C    0.538812  -1.116917
     4  C   -0.913914   0.643337
     5  C    0.450759  -0.628744
     6  C    0.519876  -0.604958
     7  C   -0.417530  -0.066692
     8  C   -0.898016   0.108725
     9  S    0.581663  -0.136937
    10  O   -0.190922   0.001816
    11  O   -0.195983   0.007154
    12  C   -0.505714  -0.257153
    13  N   -0.351285   0.174125
    14  N   -0.226825  -0.144899
    15  O   -0.112958   0.009773
    16  C    0.851918  -1.120240
    17  H   -0.444591   0.626189
    18  H   -0.219732   0.369874
    19  H   -0.245518   0.388218
    20  H   -0.289943   0.446991
    21  H    0.058180   0.101966
    22  H   -0.302669   0.491729
    23  H    0.004048   0.161857
    24  H   -0.114542   0.276178
    25  H    0.470637  -0.169876
    26  H    0.073803   0.018113
    27  H    0.187433   0.040195
    28  H    0.163837   0.087575
    29  H    0.078526   0.024600
    30  H    0.126139   0.125117
    31  H    0.275573   0.022548
    32  H    0.201892   0.031214
    33  H   -0.061356   0.254268
    34  H    0.164354   0.059722
    35  H    0.196730   0.079991
    36  H    0.150942   0.068089
    37  H   -0.157489   0.368655
    38  H   -0.220052   0.355174
    39  H   -0.275935   0.424526
    40  H   -0.236598   0.365367
 Sum of Mulliken charges =  -1.00000   1.00000

 Dipole moment (field-independent basis, Debye):
    X=              5.4553    Y=             -0.9477    Z=             -0.0720  Tot=              5.5375
 Quadrupole moment (field-independent basis, Debye-Ang):
   XX=           -229.4067   YY=           -152.7395   ZZ=           -149.2088
   XY=              9.4924   XZ=              0.6980   YZ=              2.2331

 Summary of Natural Population Analysis:

                                       Natural Population
                Natural  -----------------------------------------------
    Atom  No    Charge         Core      Valence    Rydberg      Total
 -----------------------------------------------------------------------
      C    1   -0.30186      0.99964     2.29641    0.00581     3.30186
      C    2    0.06876      0.99956     1.91706    0.01463     2.93124
      C    3   -0.19434      0.99959     2.18456    0.01018     3.19434
      C    4   -0.19853      0.99960     2.18899    0.00994     3.19853
      C    5   -0.01997      0.99958     2.00613    0.01426     3.01997
      C    6   -0.19892      0.99959     2.18882    0.01051     3.19892
      C    7   -0.20562      0.99961     2.19755    0.00846     3.20562
      C    8   -0.29199      0.99957     2.28195    0.01047     3.29199
      S    9    1.01661      4.99931     1.89007    0.09400     6.98339
      O   10   -0.47264      0.99991     3.46697    0.00576     4.47264
      O   11   -0.47389      0.99991     3.46832    0.00566     4.47389
      C   12   -0.39698      0.99961     2.38906    0.00832     3.39698
      N   13   -0.26239      0.99972     2.74791    0.01476     3.76239
      N   14   -0.32328      0.99978     2.81111    0.01239     3.82328
      O   15   -0.30901      0.99988     3.29837    0.01076     4.30901
      C   16   -0.09670      0.99961     2.08772    0.00937     3.09670
      H   17    0.10106      0.00000     0.39735    0.00159     0.39894
      H   18    0.10406      0.00000     0.39446    0.00148     0.39594
      H   19    0.10382      0.00000     0.39458    0.00160     0.39618
      H   20    0.08141      0.00000     0.41686    0.00173     0.41859
      H   21    0.09981      0.00000     0.39855    0.00165     0.40019
      H   22    0.10353      0.00000     0.39541    0.00106     0.39647
      H   23    0.09849      0.00000     0.40027    0.00124     0.40151
      H   24    0.10135      0.00000     0.39714    0.00151     0.39865
      H   25    0.09588      0.00000     0.40083    0.00329     0.40412
      H   26    0.09412      0.00000     0.40450    0.00138     0.40588
      H   27    0.11427      0.00000     0.38424    0.00149     0.38573
      H   28    0.11296      0.00000     0.38583    0.00122     0.38704
      H   29    0.10306      0.00000     0.39565    0.00128     0.39694
      H   30    0.11600      0.00000     0.38281    0.00119     0.38400
      H   31    0.12524      0.00000     0.37291    0.00185     0.37476
      H   32    0.12240      0.00000     0.37629    0.00131     0.37760
      H   33    0.11245      0.00000     0.38610    0.00145     0.38755
      H   34    0.11726      0.00000     0.38169    0.00105     0.38274
      H   35    0.17139      0.00000     0.32592    0.00269     0.32861
      H   36    0.16720      0.00000     0.33054    0.00226     0.33280
      H   37    0.16449      0.00000     0.33276    0.00275     0.33551
      H   38    0.09049      0.00000     0.40845    0.00106     0.40951
      H   39    0.08180      0.00000     0.41655    0.00165     0.41820
      H   40    0.07820      0.00000     0.42022    0.00158     0.42180
 =======================================================================
   * Total *    0.00000     19.99446    48.72092    0.28461    69.00000

 Normal termination of Gaussian 16 at Fri Dec 11 00:11:49 2020.
