 Gaussian 16, Revision A.03,

 -----------------------------------------------------------
 # opt freq B3LYP/6-31G(d) empiricaldispersion=gd3bj scf=xqc
 -----------------------------------------------------------

 ------------------------------
 CID_62514467_JID_6297_neutraal
 ------------------------------
 Symbolic Z-matrix:
 Charge =  0 Multiplicity = 1

 SCF Done:  E(RB3LYP) =  -712.097220307     A.U. after   15 cycles
 SCF Done:  E(RB3LYP) =  -712.101365221     A.U. after   12 cycles
 SCF Done:  E(RB3LYP) =  -712.101345510     A.U. after   13 cycles
 SCF Done:  E(RB3LYP) =  -712.102208466     A.U. after   12 cycles
 SCF Done:  E(RB3LYP) =  -712.102503760     A.U. after   13 cycles
 SCF Done:  E(RB3LYP) =  -712.102764254     A.U. after   12 cycles
 SCF Done:  E(RB3LYP) =  -712.102965906     A.U. after   13 cycles
 SCF Done:  E(RB3LYP) =  -712.103080897     A.U. after   13 cycles
 SCF Done:  E(RB3LYP) =  -712.103244594     A.U. after   10 cycles
 SCF Done:  E(RB3LYP) =  -712.103330884     A.U. after   13 cycles
 SCF Done:  E(RB3LYP) =  -712.107777010     A.U. after   10 cycles
 SCF Done:  E(RB3LYP) =  -712.107777432     A.U. after    9 cycles
 SCF Done:  E(RB3LYP) =  -712.107778011     A.U. after    9 cycles
 SCF Done:  E(RB3LYP) =  -712.107778170     A.U. after    7 cycles
 SCF Done:  E(RB3LYP) =  -712.107778223     A.U. after    6 cycles
 Optimization completed.
    -- Stationary point found.
 Normal termination of Gaussian 16 at Thu Dec 10 22:44:07 2020.

 --------------------------------------------------------------------
 #N Geom=AllCheck Guess=TCheck SCRF=Check GenChk RB3LYP/6-31G(d) Freq
 --------------------------------------------------------------------

 Structure from the checkpoint file:  "JID_6297.chk"
 ------------------------------
 CID_62514467_JID_6297_neutraal
 ------------------------------
 Charge =  0 Multiplicity = 1

 SCF Done:  E(RB3LYP) =  -712.107778223     A.U. after    1 cycles

  Exact polarizability: 206.427   4.508 157.565  -4.889  -2.409 100.175
 Approx polarizability: 294.633   7.759 255.603  -5.704  -6.941 139.233

                      1                      2                      3
                      A                      A                      A
 Frequencies --     15.9073                48.4707                53.8904
 Red. masses --      3.5573                 5.2729                 1.0575
 Frc consts  --      0.0005                 0.0073                 0.0018
 IR Inten    --      0.4778                 0.7282                 0.1686

                      4                      5                      6
                      A                      A                      A
 Frequencies --     79.4978                87.5241                93.6292
 Red. masses --      3.5885                 3.2507                 3.5130
 Frc consts  --      0.0134                 0.0147                 0.0181
 IR Inten    --      0.3726                 1.3634                 1.4932

                      7                      8                      9
                      A                      A                      A
 Frequencies --    136.3606               155.1847               176.4224
 Red. masses --      2.0577                 3.9037                 3.4031
 Frc consts  --      0.0225                 0.0554                 0.0624
 IR Inten    --      0.7793                 1.7298                 1.7858

                     10                     11                     12
                      A                      A                      A
 Frequencies --    198.5113               213.1237               228.6796
 Red. masses --      3.9100                 1.5215                 1.7353
 Frc consts  --      0.0908                 0.0407                 0.0535
 IR Inten    --      0.1055                 0.0845                 0.2995

                     13                     14                     15
                      A                      A                      A
 Frequencies --    259.4537               289.8809               308.0533
 Red. masses --      1.5010                 2.4481                 3.0863
 Frc consts  --      0.0595                 0.1212                 0.1726
 IR Inten    --      0.2154                 1.1792                 1.1225

                     16                     17                     18
                      A                      A                      A
 Frequencies --    326.7358               363.7221               377.4800
 Red. masses --      2.1796                 2.9437                 4.7969
 Frc consts  --      0.1371                 0.2295                 0.4027
 IR Inten    --      1.4790                 1.2932                 2.9466

                     19                     20                     21
                      A                      A                      A
 Frequencies --    396.3044               420.4256               454.5969
 Red. masses --      3.0797                 4.0899                 3.6510
 Frc consts  --      0.2850                 0.4259                 0.4445
 IR Inten    --      4.0264                13.5107                 4.8790

                     22                     23                     24
                      A                      A                      A
 Frequencies --    472.0010               532.9733               557.4042
 Red. masses --      2.7783                 3.5611                 2.7129
 Frc consts  --      0.3647                 0.5960                 0.4966
 IR Inten    --      4.1541                 0.3186                 1.2387

                     25                     26                     27
                      A                      A                      A
 Frequencies --    574.8348               611.3927               658.8133
 Red. masses --      3.5564                 1.3249                 4.7006
 Frc consts  --      0.6924                 0.2918                 1.2021
 IR Inten    --     24.0152                72.5100                44.8314

                     28                     29                     30
                      A                      A                      A
 Frequencies --    700.0139               718.7476               744.9975
 Red. masses --      2.8501                 4.4263                 4.3718
 Frc consts  --      0.8229                 1.3472                 1.4296
 IR Inten    --      1.3280                13.6914                22.7518

                     31                     32                     33
                      A                      A                      A
 Frequencies --    793.7996               800.1973               817.8401
 Red. masses --      1.9215                 1.9211                 1.3417
 Frc consts  --      0.7134                 0.7248                 0.5287
 IR Inten    --      7.1255                10.3255                 7.4156

                     34                     35                     36
                      A                      A                      A
 Frequencies --    839.8245               879.3237               898.7020
 Red. masses --      1.4882                 2.7061                 2.0084
 Frc consts  --      0.6184                 1.2328                 0.9557
 IR Inten    --     16.9502                 0.0898                 7.2746

                     37                     38                     39
                      A                      A                      A
 Frequencies --    923.7716               935.2919               955.6065
 Red. masses --      1.3810                 2.8099                 1.7236
 Frc consts  --      0.6944                 1.4482                 0.9274
 IR Inten    --      1.4487                 0.4838                 2.0284

                     40                     41                     42
                      A                      A                      A
 Frequencies --    967.6730              1005.6723              1033.9958
 Red. masses --      1.3149                 1.9855                 1.4868
 Frc consts  --      0.7255                 1.1831                 0.9366
 IR Inten    --      1.9467                21.9630                 9.9980

                     43                     44                     45
                      A                      A                      A
 Frequencies --   1060.7378              1078.8848              1082.7901
 Red. masses --      2.1774                 1.4999                 3.6010
 Frc consts  --      1.4435                 1.0286                 2.4875
 IR Inten    --      6.7338                 4.9976                87.3797

                     46                     47                     48
                      A                      A                      A
 Frequencies --   1086.5790              1116.7611              1151.8163
 Red. masses --      2.3798                 1.8715                 1.7036
 Frc consts  --      1.6555                 1.3752                 1.3316
 IR Inten    --     63.5573                 6.8586                20.2423

                     49                     50                     51
                      A                      A                      A
 Frequencies --   1180.0902              1194.3926              1203.0659
 Red. masses --      1.8588                 1.9567                 1.6096
 Frc consts  --      1.5252                 1.6447                 1.3726
 IR Inten    --     58.8145               252.6345               128.5641

                     52                     53                     54
                      A                      A                      A
 Frequencies --   1233.8716              1258.5362              1295.1772
 Red. masses --      2.2708                 2.8764                 1.4200
 Frc consts  --      2.0369                 2.6843                 1.4035
 IR Inten    --     25.4044                19.7571                49.7544

                     55                     56                     57
                      A                      A                      A
 Frequencies --   1310.4810              1322.6187              1336.9120
 Red. masses --      1.3996                 1.2550                 1.4369
 Frc consts  --      1.4161                 1.2935                 1.5132
 IR Inten    --      0.4146                 1.7022                39.3236

                     58                     59                     60
                      A                      A                      A
 Frequencies --   1348.0001              1391.5787              1393.5707
 Red. masses --      2.7416                 1.3999                 3.1111
 Frc consts  --      2.9352                 1.5972                 3.5597
 IR Inten    --     13.1866                16.2173                67.1527

                     61                     62                     63
                      A                      A                      A
 Frequencies --   1407.8687              1414.2894              1431.9614
 Red. masses --      1.3189                 1.5977                 1.3441
 Frc consts  --      1.5402                 1.8829                 1.6238
 IR Inten    --      5.2005                 3.2902                 4.1625

                     64                     65                     66
                      A                      A                      A
 Frequencies --   1441.5110              1445.1304              1453.0211
 Red. masses --      1.5971                 1.2849                 1.3070
 Frc consts  --      1.9554                 1.5810                 1.6258
 IR Inten    --      8.4587                 8.4410                 9.7781

                     67                     68                     69
                      A                      A                      A
 Frequencies --   1466.1206              1506.7060              1515.4575
 Red. masses --      2.6025                 1.0815                 1.0443
 Frc consts  --      3.2960                 1.4465                 1.4131
 IR Inten    --     62.7514                24.9512                 5.1779

                     70                     71                     72
                      A                      A                      A
 Frequencies --   1518.6895              1525.5636              1527.0755
 Red. masses --      1.0662                 1.0504                 1.1249
 Frc consts  --      1.4488                 1.4404                 1.5455
 IR Inten    --     20.9641                 0.9599                11.1943

                     73                     74                     75
                      A                      A                      A
 Frequencies --   1529.6957              1533.3508              1540.6034
 Red. masses --      1.0617                 1.0624                 1.2898
 Frc consts  --      1.4637                 1.4717                 1.8036
 IR Inten    --      3.4204                 9.0874                82.5488

                     76                     77                     78
                      A                      A                      A
 Frequencies --   1548.8686              1556.4148              1606.3886
 Red. masses --      1.0619                 2.0118                 5.4546
 Frc consts  --      1.5009                 2.8713                 8.2931
 IR Inten    --     15.2554               112.4931                52.1145

                     79                     80                     81
                      A                      A                      A
 Frequencies --   1676.0820              1794.6185              2990.0731
 Red. masses --      5.6719                 9.1299                 1.0718
 Frc consts  --      9.3880                17.3244                 5.6459
 IR Inten    --     26.2475               353.8024                63.8218

                     82                     83                     84
                      A                      A                      A
 Frequencies --   3039.7176              3044.4502              3046.6704
 Red. masses --      1.0379                 1.0584                 1.0433
 Frc consts  --      5.6505                 5.7799                 5.7056
 IR Inten    --     54.9991                45.3102                27.8103

                     85                     86                     87
                      A                      A                      A
 Frequencies --   3053.2013              3070.3802              3076.6860
 Red. masses --      1.0361                 1.0853                 1.0843
 Frc consts  --      5.6905                 6.0279                 6.0473
 IR Inten    --     32.2054                23.1303                25.7731

                     88                     89                     90
                      A                      A                      A
 Frequencies --   3089.0721              3105.7936              3112.5494
 Red. masses --      1.1010                 1.0960                 1.0952
 Frc consts  --      6.1900                 6.2291                 6.2513
 IR Inten    --     23.5743                16.5410                62.7660

                     91                     92                     93
                      A                      A                      A
 Frequencies --   3120.7834              3122.0701              3125.3394
 Red. masses --      1.1018                 1.0997                 1.1001
 Frc consts  --      6.3224                 6.3155                 6.3313
 IR Inten    --     20.5658                28.8799                16.2891

                     94                     95                     96
                      A                      A                      A
 Frequencies --   3146.1060              3154.1507              3173.6690
 Red. masses --      1.1009                 1.0970                 1.0890
 Frc consts  --      6.4202                 6.4301                 6.4626
 IR Inten    --      8.9418                28.4197                20.4923

                     97                     98                     99
                      A                      A                      A
 Frequencies --   3217.2542              3227.3731              3700.6443
 Red. masses --      1.0915                 1.0899                 1.0641
 Frc consts  --      6.6565                 6.6885                 8.5860
 IR Inten    --     14.3156                 3.1876                67.2243

 - Thermochemistry -
 -------------------
 Temperature   298.150 Kelvin.  Pressure   1.00000 Atm.
 Atom     1 has atomic number  6 and mass  12.00000

 Molecular mass:   221.14158 amu.
 Principal axes and moments of inertia in atomic units:
                           1         2         3
     Eigenvalues --  2454.753484860.227165821.21478
           X            1.00000   0.00161  -0.00150
           Y           -0.00162   1.00000  -0.00043
           Z            0.00150   0.00043   1.00000
 This molecule is an asymmetric top.
 Rotational symmetry number  1.
 Warning -- assumption of classical behavior for rotation
           may cause significant error
 Rotational temperatures (Kelvin)      0.03528     0.01782     0.01488
 Rotational constants (GHZ):           0.73520     0.37133     0.31003
 Zero-point vibrational energy     796760.8 (Joules/Mol)
                                  190.43039 (Kcal/Mol)
 Warning -- explicit consideration of  26 degrees of freedom as
           vibrations may cause significant error
 Vibrational temperatures:     22.89    69.74    77.54   114.38   125.93
          (Kelvin)            134.71   196.19   223.28   253.83   285.61
                              306.64   329.02   373.30   417.07   443.22
                              470.10   523.31   543.11   570.19   604.90
                              654.06   679.10   766.83   801.98   827.06
                              879.66   947.89  1007.16  1034.12  1071.89
                             1142.10  1151.31  1176.69  1208.32  1265.15
                             1293.03  1329.10  1345.68  1374.90  1392.27
                             1446.94  1487.69  1526.17  1552.27  1557.89
                             1563.34  1606.77  1657.21  1697.89  1718.46
                             1730.94  1775.27  1810.75  1863.47  1885.49
                             1902.95  1923.52  1939.47  2002.17  2005.04
                             2025.61  2034.85  2060.27  2074.01  2079.22
                             2090.57  2109.42  2167.81  2180.41  2185.06
                             2194.95  2197.12  2200.89  2206.15  2216.58
                             2228.48  2239.33  2311.23  2411.51  2582.06
                             4302.05  4373.48  4380.28  4383.48  4392.88
                             4417.59  4426.66  4444.49  4468.54  4478.26
                             4490.11  4491.96  4496.67  4526.54  4538.12
                             4566.20  4628.91  4643.47  5324.40

 Zero-point correction=                           0.303470 (Hartree/Particle)
 Thermal correction to Energy=                    0.320383
 Thermal correction to Enthalpy=                  0.321327
 Thermal correction to Gibbs Free Energy=         0.257818
 Sum of electronic and zero-point Energies=           -711.804308
 Sum of electronic and thermal Energies=              -711.787395
 Sum of electronic and thermal Enthalpies=            -711.786451
 Sum of electronic and thermal Free Energies=         -711.849960

                     E (Thermal)             CV                S
                      KCal/Mol        Cal/Mol-Kelvin    Cal/Mol-Kelvin
 Total                  201.044             63.015            133.666
 Electronic               0.000              0.000              0.000
 Translational            0.889              2.981             42.084
 Rotational               0.889              2.981             32.607
 Vibrational            199.266             57.054             58.976
 Vibration     1          0.593              1.986              7.089
 Vibration     2          0.595              1.978              4.879
 Vibration     3          0.596              1.976              4.669
 Vibration     4          0.600              1.963              3.903
 Vibration     5          0.601              1.958              3.715
 Vibration     6          0.603              1.954              3.583
 Vibration     7          0.614              1.917              2.854
 Vibration     8          0.620              1.897              2.608
 Vibration     9          0.628              1.871              2.366
 Vibration    10          0.637              1.842              2.147
 Vibration    11          0.644              1.821              2.017
 Vibration    12          0.651              1.797              1.889
 Vibration    13          0.668              1.747              1.665
 Vibration    14          0.686              1.693              1.475
 Vibration    15          0.698              1.658              1.373
 Vibration    16          0.710              1.622              1.276
 Vibration    17          0.737              1.547              1.106
 Vibration    18          0.748              1.518              1.049
 Vibration    19          0.763              1.478              0.976
 Vibration    20          0.783              1.426              0.891
 Vibration    21          0.813              1.351              0.782
 Vibration    22          0.829              1.312              0.732
 Vibration    23          0.888              1.177              0.581
 Vibration    24          0.913              1.124              0.529
 Vibration    25          0.931              1.086              0.495
 Vibration    26          0.971              1.008              0.430

                           ! Non-Optimized Parameters !
 Normal termination of Gaussian 16 at Thu Dec 10 22:57:14 2020.

 ----------------------------------------------------------------------
 # B3LYP/6-311++G(d,p) empiricaldispersion=gd3bj scf=xqc pop=npa geom=c
 heck
 ----------------------------------------------------------------------

 --------------------------------------
 CID_62514467_JID_6297_Energie_neutraal
 --------------------------------------
 Structure from the checkpoint file:  "JID_6297.chk"
 Charge =  0 Multiplicity = 1

 SCF Done:  E(RB3LYP) =  -712.309730983     A.U. after   15 cycles
 Normal termination of Gaussian 16 at Thu Dec 10 23:02:57 2020.

 ----------------------------------------------------------------------
 # B3LYP/6-311++G(d,p) empiricaldispersion=gd3bj scf=xqc pop=npa geom=c
 heck
 ----------------------------------------------------------------------

 ------------------------------------
 CID_62514467_JID_6297_Energie_kation
 ------------------------------------
 Structure from the checkpoint file:  "JID_6297.chk"
 Charge =  1 Multiplicity = 2

 SCF Done:  E(UB3LYP) =  -712.051150543     A.U. after   20 cycles
 Normal termination of Gaussian 16 at Thu Dec 10 23:13:00 2020.
 Gaussian 16:  ES64L-G16RevA.03 25-Dec-2016

 ----------------------------------------------------------------------
 # B3LYP/6-311++G(d,p) empiricaldispersion=gd3bj scf=xqc pop=npa geom=c
 heck
 ----------------------------------------------------------------------

 -----------------------------------
 CID_62514467_JID_6297_Energie_anion
 -----------------------------------
 Structure from the checkpoint file:  "JID_6297.chk"
 Charge = -1 Multiplicity = 2

                         Standard orientation:
 ---------------------------------------------------------------------
 Center     Atomic      Atomic             Coordinates (Angstroms)
 Number     Number       Type             X           Y           Z
 ---------------------------------------------------------------------
      1          6           0        3.022393    0.217916    2.027023
      2          6           0        3.329442   -0.830506    0.955986
      3          6           0        2.060423   -1.455784    0.360138
      4          7           0        1.193026   -0.459783   -0.260833
      5          6           0        1.765675    0.349964   -1.336061
      6          6           0        2.412335   -0.491876   -2.441924
      7          6           0       -0.181679   -0.532281   -0.089036
      8          6           0       -1.021353    0.617685   -0.062559
      9          6           0       -2.419431    0.455276    0.011939
     10          6           0       -3.026299   -0.787941    0.129992
     11          6           0       -2.184415   -1.910806    0.171154
     12          6           0       -0.809624   -1.789573    0.057999
     13          6           0       -4.525203   -0.933105    0.221520
     14          6           0       -0.478210    1.987276    0.070305
     15          8           0        0.657654    2.306910    0.376989
     16          8           0       -1.422522    2.951892   -0.139167
     17          1           0        2.485334   -0.235735    2.869606
     18          1           0        2.391969    1.015090    1.622953
     19          1           0        3.943923    0.662404    2.418908
     20          1           0        3.938004   -0.385579    0.158895
     21          1           0        3.931833   -1.646418    1.376875
     22          1           0        2.334887   -2.259702   -0.341703
     23          1           0        1.495820   -1.919740    1.173284
     24          1           0        0.957394    0.934646   -1.774683
     25          1           0        2.480902    1.073408   -0.930092
     26          1           0        1.693877   -1.207090   -2.857895
     27          1           0        2.751968    0.163910   -3.251417
     28          1           0        3.282848   -1.051598   -2.085428
     29          1           0       -3.034567    1.347609    0.015463
     30          1           0       -2.620423   -2.903611    0.262190
     31          1           0       -0.200672   -2.686128    0.026873
     32          1           0       -4.923080   -1.530844   -0.608412
     33          1           0       -4.825835   -1.433479    1.150495
     34          1           0       -5.019361    0.042870    0.194113
     35          1           0       -0.961380    3.790582    0.044380
 ---------------------------------------------------------------------

 SCF Done:  E(UB3LYP) =  -712.306695890     A.U. after   33 cycles
 SCF Done:  E(UB3LYP) =  -712.306695890     a.u. after    1 cycles

 The electronic state is 2-A.
 Alpha  occ. eigenvalues --  -19.01888 -18.94555 -14.18374 -10.13196 -10.07658
 Alpha  occ. eigenvalues --  -10.07193 -10.06700 -10.05335 -10.05062 -10.04995
 Alpha  occ. eigenvalues --  -10.03817 -10.03410 -10.02495 -10.02421 -10.02244
 Alpha  occ. eigenvalues --  -10.01952  -0.95542  -0.85910  -0.81092  -0.71170
 Alpha  occ. eigenvalues --   -0.66497  -0.64669  -0.62292  -0.61043  -0.57054
 Alpha  occ. eigenvalues --   -0.54542  -0.51634  -0.49632  -0.47025  -0.44848
 Alpha  occ. eigenvalues --   -0.41964  -0.39429  -0.36414  -0.35626  -0.34529
 Alpha  occ. eigenvalues --   -0.33559  -0.32625  -0.31776  -0.31174  -0.30496
 Alpha  occ. eigenvalues --   -0.29925  -0.29559  -0.29079  -0.28126  -0.27243
 Alpha  occ. eigenvalues --   -0.26255  -0.25638  -0.25088  -0.24036  -0.23167
 Alpha  occ. eigenvalues --   -0.22546  -0.22207  -0.21726  -0.21460  -0.20465
 Alpha  occ. eigenvalues --   -0.17786  -0.14056  -0.12472  -0.11780  -0.06219
 Alpha  occ. eigenvalues --    0.05158
 Alpha virt. eigenvalues --    0.07197   0.08272   0.08637   0.09137   0.09637
 Alpha virt. eigenvalues --    0.10191   0.11102   0.11261   0.11539   0.12145
 Alpha virt. eigenvalues --    0.12647   0.12798   0.13390   0.13780   0.14183

  Beta  occ. eigenvalues --  -19.01838 -18.94276 -14.18345 -10.12931 -10.07652
  Beta  occ. eigenvalues --  -10.07176 -10.06546 -10.05320 -10.05056 -10.04986
  Beta  occ. eigenvalues --  -10.03814 -10.03492 -10.02451 -10.02384 -10.02072
  Beta  occ. eigenvalues --  -10.01622  -0.95269  -0.85505  -0.80959  -0.70893
  Beta  occ. eigenvalues --   -0.66449  -0.64564  -0.62048  -0.60749  -0.56979
  Beta  occ. eigenvalues --   -0.54358  -0.51188  -0.49449  -0.46869  -0.44709
  Beta  occ. eigenvalues --   -0.41842  -0.39279  -0.36318  -0.35364  -0.34395
  Beta  occ. eigenvalues --   -0.33385  -0.32493  -0.31706  -0.31082  -0.30107
  Beta  occ. eigenvalues --   -0.29723  -0.29134  -0.28741  -0.28097  -0.27157
  Beta  occ. eigenvalues --   -0.26150  -0.25540  -0.24939  -0.23970  -0.23123
  Beta  occ. eigenvalues --   -0.22478  -0.22151  -0.21599  -0.20819  -0.20326
  Beta  occ. eigenvalues --   -0.16694  -0.13565  -0.12048  -0.10395  -0.05711
  Beta virt. eigenvalues --    0.07406   0.08208   0.08660   0.09161   0.09636
  Beta virt. eigenvalues --    0.10219   0.10399   0.11091   0.11304   0.11636
  Beta virt. eigenvalues --    0.12136   0.12636   0.12820   0.13305   0.14093

 Mulliken charges and spin densities:
               1          2
     1  C   -0.429814  -0.066125
     2  C    0.005645  -0.429839
     3  C   -0.170898   0.047293
     4  N    0.497251   0.053977
     5  C   -0.270026   0.133091
     6  C   -0.205281  -0.410452
     7  C   -0.120920  -0.130382
     8  C    0.158085   0.001575
     9  C   -0.866084   0.081031
    10  C    0.184450  -0.027210
    11  C   -0.385219   0.448043
    12  C    0.004820  -0.029058
    13  C   -0.330298  -0.136678
    14  C   -0.041193   0.191099
    15  O   -0.353543   0.100773
    16  O   -0.200192   0.013076
    17  H    0.098667   0.003737
    18  H    0.218042  -0.004018
    19  H    0.064343   0.055621
    20  H    0.112080   0.004560
    21  H   -0.270955   0.411544
    22  H   -0.117967   0.259809
    23  H    0.142348  -0.031233
    24  H    0.164440  -0.014448
    25  H    0.123321   0.057767
    26  H    0.110062   0.048719
    27  H    0.095666   0.021395
    28  H   -0.038151   0.165441
    29  H    0.164124  -0.012871
    30  H    0.053928   0.043313
    31  H    0.003728   0.111704
    32  H    0.138710  -0.010955
    33  H    0.091245   0.035784
    34  H    0.116149   0.013706
    35  H    0.253435   0.000212
 Sum of Mulliken charges =  -1.00000   1.00000

 Dipole moment (field-independent basis, Debye):
    X=             -0.6367    Y=              0.8958    Z=             -0.9648  Tot=              1.4624
 Quadrupole moment (field-independent basis, Debye-Ang):
   XX=           -143.0980   YY=           -123.4855   ZZ=           -114.8137
   XY=              2.8666   XZ=             -2.3512   YZ=             -0.7558

 Summary of Natural Population Analysis:

                                       Natural Population
                Natural  -----------------------------------------------
    Atom  No    Charge         Core      Valence    Rydberg      Total
 -----------------------------------------------------------------------
      C    1   -0.29585      0.99966     2.28968    0.00651     3.29585
      C    2   -0.19515      0.99964     2.18746    0.00805     3.19515
      C    3   -0.08182      0.99961     2.07046    0.01175     3.08182
      N    4   -0.26004      0.99964     2.74761    0.01279     3.76004
      C    5   -0.08051      0.99962     2.06975    0.01115     3.08051
      C    6   -0.29468      0.99966     2.28972    0.00530     3.29468
      C    7    0.14310      0.99946     1.84642    0.01101     2.85690
      C    8   -0.08873      0.99943     2.07727    0.01203     3.08873
      C    9   -0.04368      0.99950     2.03664    0.00754     3.04368
      C   10   -0.06324      0.99951     2.05530    0.00843     3.06324
      C   11   -0.02706      0.99952     2.01932    0.00821     3.02706
      C   12   -0.13874      0.99954     2.12938    0.00983     3.13874
      C   13   -0.28467      0.99964     2.28064    0.00438     3.28467
      C   14    0.42469      0.99965     1.55039    0.02527     2.57531
      O   15   -0.30865      0.99987     3.30178    0.00701     4.30865
      O   16   -0.35872      0.99988     3.35190    0.00694     4.35872
      H   17    0.09189      0.00000     0.40733    0.00079     0.40811
      H   18    0.12118      0.00000     0.37757    0.00125     0.37882
      H   19    0.09061      0.00000     0.40874    0.00065     0.40939
      H   20    0.09231      0.00000     0.40667    0.00103     0.40769
      H   21    0.09258      0.00000     0.40596    0.00145     0.40742
      H   22    0.08545      0.00000     0.41293    0.00162     0.41455
      H   23    0.10012      0.00000     0.39863    0.00126     0.39988
      H   24    0.10377      0.00000     0.39488    0.00135     0.39623
      H   25    0.09394      0.00000     0.40457    0.00149     0.40606
      H   26    0.09818      0.00000     0.40096    0.00086     0.40182
      H   27    0.09413      0.00000     0.40507    0.00080     0.40587
      H   28    0.09489      0.00000     0.40397    0.00114     0.40511
      H   29    0.09934      0.00000     0.39959    0.00107     0.40066
      H   30    0.08460      0.00000     0.41400    0.00140     0.41540
      H   31    0.09481      0.00000     0.40380    0.00139     0.40519
      H   32    0.09346      0.00000     0.40540    0.00114     0.40654
      H   33    0.09445      0.00000     0.40428    0.00127     0.40555
      H   34    0.09635      0.00000     0.40275    0.00090     0.40365
      H   35    0.23169      0.00000     0.26536    0.00295     0.26831
 =======================================================================
   * Total *   -0.00000     15.99384    43.82615    0.18000    60.00000

 Normal termination of Gaussian 16 at Thu Dec 10 23:29:47 2020.
