 Gaussian 16, Revision A.03,

 -----------------------------------------------------------
 # opt freq B3LYP/6-31G(d) empiricaldispersion=gd3bj scf=xqc
 -----------------------------------------------------------

 ------------------------------
 CID_12222959_JID_1680_neutraal
 ------------------------------
 Symbolic Z-matrix:
 Charge =  0 Multiplicity = 1

 SCF Done:  E(RB3LYP) =  -467.162895627     A.U. after   13 cycles
 SCF Done:  E(RB3LYP) =  -467.163828940     A.U. after   12 cycles
 SCF Done:  E(RB3LYP) =  -467.164226537     A.U. after   12 cycles
 SCF Done:  E(RB3LYP) =  -467.164965369     A.U. after   11 cycles
 SCF Done:  E(RB3LYP) =  -467.165077037     A.U. after   11 cycles
 SCF Done:  E(RB3LYP) =  -467.165097450     A.U. after    9 cycles
 SCF Done:  E(RB3LYP) =  -467.165108299     A.U. after    9 cycles
 SCF Done:  E(RB3LYP) =  -467.165109142     A.U. after    7 cycles
 SCF Done:  E(RB3LYP) =  -467.165109288     A.U. after    7 cycles
 Optimization completed.
    -- Stationary point found.
 Normal termination of Gaussian 16 at Tue Dec  8 20:53:27 2020.

 --------------------------------------------------------------------
 #N Geom=AllCheck Guess=TCheck SCRF=Check GenChk RB3LYP/6-31G(d) Freq
 --------------------------------------------------------------------

 Structure from the checkpoint file:  "JID_1680.chk"
 ------------------------------
 CID_12222959_JID_1680_neutraal
 ------------------------------
 Charge =  0 Multiplicity = 1

 SCF Done:  E(RB3LYP) =  -467.165109288     A.U. after    1 cycles

  Exact polarizability: 109.232   0.000 102.888  -0.000   0.545  94.199
 Approx polarizability: 146.324  -0.000 156.605  -0.000   3.580 133.798

                      1                      2                      3
                      A                      A                      A
 Frequencies --     62.0703               154.5743               159.9263
 Red. masses --      4.1585                 3.4650                 2.3277
 Frc consts  --      0.0094                 0.0488                 0.0351
 IR Inten    --      2.2277                 2.3008                 0.0131

                      4                      5                      6
                      A                      A                      A
 Frequencies --    179.6620               185.8578               213.9726
 Red. masses --      1.0998                 1.1267                 1.3996
 Frc consts  --      0.0209                 0.0229                 0.0378
 IR Inten    --      0.4405                 0.0731                 0.0001

                      7                      8                      9
                      A                      A                      A
 Frequencies --    226.0830               227.2168               267.5982
 Red. masses --      1.3169                 1.2825                 1.9808
 Frc consts  --      0.0397                 0.0390                 0.0836
 IR Inten    --      0.2617                 1.6268                 1.6000

                     10                     11                     12
                      A                      A                      A
 Frequencies --    271.9970               283.4995               300.6286
 Red. masses --      1.7259                 2.2408                 1.5047
 Frc consts  --      0.0752                 0.1061                 0.0801
 IR Inten    --      1.3735                 0.0709                 0.0039

                     13                     14                     15
                      A                      A                      A
 Frequencies --    309.1363               334.6156               358.3778
 Red. masses --      1.9192                 2.7156                 2.2881
 Frc consts  --      0.1081                 0.1791                 0.1731
 IR Inten    --      0.0473                 0.0150                 0.2858

                     16                     17                     18
                      A                      A                      A
 Frequencies --    388.0296               392.8804               426.2483
 Red. masses --      1.5367                 2.3832                 2.2280
 Frc consts  --      0.1363                 0.2167                 0.2385
 IR Inten    --      0.4665                 0.1519                 0.0345

                     19                     20                     21
                      A                      A                      A
 Frequencies --    461.4749               568.3442               617.0499
 Red. masses --      3.2863                 3.5131                 2.3081
 Frc consts  --      0.4123                 0.6686                 0.5178
 IR Inten    --      0.2780                 1.1254                 1.6889

                     22                     23                     24
                      A                      A                      A
 Frequencies --    617.5672               731.0068               735.9770
 Red. masses --      3.6604                 2.6776                 3.9619
 Frc consts  --      0.8225                 0.8430                 1.2644
 IR Inten    --      0.1903                 1.8051                 0.6380

                     25                     26                     27
                      A                      A                      A
 Frequencies --    771.0659               889.9493               959.5092
 Red. masses --      2.9103                 3.1608                 1.5852
 Frc consts  --      1.0194                 1.4750                 0.8599
 IR Inten    --      2.2434                 5.5741                 0.6946

                     28                     29                     30
                      A                      A                      A
 Frequencies --    961.6629               967.0620               977.2737
 Red. masses --      1.7104                 1.4917                 1.4479
 Frc consts  --      0.9319                 0.8220                 0.8147
 IR Inten    --      0.7391                 0.0542                 1.9609

                     31                     32                     33
                      A                      A                      A
 Frequencies --    996.1642              1008.1691              1018.1674
 Red. masses --      1.8396                 1.4424                 1.3233
 Frc consts  --      1.0756                 0.8638                 0.8083
 IR Inten    --      0.5235                15.7904                 6.6639

                     34                     35                     36
                      A                      A                      A
 Frequencies --   1037.2763              1048.2284              1148.3080
 Red. masses --      1.3692                 1.8927                 2.9544
 Frc consts  --      0.8680                 1.2253                 2.2953
 IR Inten    --      0.3780                45.4177                 0.0539

                     37                     38                     39
                      A                      A                      A
 Frequencies --   1151.1634              1167.8779              1191.6657
 Red. masses --      3.3911                 1.8751                 2.0205
 Frc consts  --      2.6476                 1.5069                 1.6905
 IR Inten    --      2.7222                12.3269                17.5588

                     40                     41                     42
                      A                      A                      A
 Frequencies --   1194.9172              1271.8016              1278.1839
 Red. masses --      2.1463                 2.9795                 3.7047
 Frc consts  --      1.8056                 2.8394                 3.5661
 IR Inten    --      3.6122                 3.5371                 0.0267

                     43                     44                     45
                      A                      A                      A
 Frequencies --   1294.1622              1298.8715              1418.7327
 Red. masses --      3.6205                 3.4446                 1.2147
 Frc consts  --      3.5727                 3.4239                 1.4405
 IR Inten    --     25.8572                 0.2065                 0.0062

                     46                     47                     48
                      A                      A                      A
 Frequencies --   1423.9294              1435.8521              1439.1672
 Red. masses --      1.2688                 1.2216                 1.2104
 Frc consts  --      1.5157                 1.4838                 1.4771
 IR Inten    --      1.0477                 7.3659                 6.5684

                     49                     50                     51
                      A                      A                      A
 Frequencies --   1442.6211              1461.0400              1504.1202
 Red. masses --      1.2089                 1.1971                 1.0437
 Frc consts  --      1.4823                 1.5055                 1.3912
 IR Inten    --      7.4873                 0.5463                 0.0897

                     52                     53                     54
                      A                      A                      A
 Frequencies --   1507.2246              1510.3794              1517.9002
 Red. masses --      1.0505                 1.0502                 1.0480
 Frc consts  --      1.4060                 1.4115                 1.4226
 IR Inten    --      1.5495                 0.6011                 0.2289

                     55                     56                     57
                      A                      A                      A
 Frequencies --   1524.6752              1528.7954              1530.6154
 Red. masses --      1.0488                 1.0572                 1.0512
 Frc consts  --      1.4365                 1.4558                 1.4510
 IR Inten    --     10.2149                 2.5027                 0.4440

                     58                     59                     60
                      A                      A                      A
 Frequencies --   1530.7798              1535.5686              1544.8312
 Red. masses --      1.0501                 1.0505                 1.0561
 Frc consts  --      1.4498                 1.4594                 1.4850
 IR Inten    --     16.0002                 0.4686                 5.9474

                     61                     62                     63
                      A                      A                      A
 Frequencies --   1551.4605              1558.0085              1871.5300
 Red. masses --      1.0566                 1.0473                12.3991
 Frc consts  --      1.4984                 1.4978                25.5879
 IR Inten    --     10.7196                 6.8522               210.5565

                     64                     65                     66
                      A                      A                      A
 Frequencies --   3046.0937              3050.2171              3050.9590
 Red. masses --      1.0387                 1.0381                 1.0376
 Frc consts  --      5.6786                 5.6904                 5.6903
 IR Inten    --      7.5634                11.9529                 3.0603

                     67                     68                     69
                      A                      A                      A
 Frequencies --   3054.0141              3054.7015              3060.1617
 Red. masses --      1.0382                 1.0376                 1.0392
 Frc consts  --      5.7052                 5.7046                 5.7336
 IR Inten    --     48.1203                59.1444                18.0362

                     70                     71                     72
                      A                      A                      A
 Frequencies --   3100.2900              3111.9234              3115.8925
 Red. masses --      1.1018                 1.1016                 1.1014
 Frc consts  --      6.2399                 6.2854                 6.3005
 IR Inten    --     10.2986                39.3635                 1.1663

                     73                     74                     75
                      A                      A                      A
 Frequencies --   3116.2229              3121.1782              3121.3551
 Red. masses --      1.1018                 1.1010                 1.1006
 Frc consts  --      6.3038                 6.3193                 6.3179
 IR Inten    --      1.2298                 3.1756                46.6341

                     76                     77                     78
                      A                      A                      A
 Frequencies --   3128.6989              3134.9371              3141.0009
 Red. masses --      1.1017                 1.1012                 1.0986
 Frc consts  --      6.3538                 6.3766                 6.3859
 IR Inten    --     42.9395                37.2296                 8.6943

                     79                     80                     81
                      A                      A                      A
 Frequencies --   3141.7913              3148.0377              3155.2231
 Red. masses --      1.0999                 1.0980                 1.0957
 Frc consts  --      6.3968                 6.4112                 6.4269
 IR Inten    --     18.7435                43.0134                41.1550

 - Thermochemistry -
 -------------------
 Temperature   298.150 Kelvin.  Pressure   1.00000 Atm.
 Atom     1 has atomic number  6 and mass  12.00000

 Molecular mass:   154.13577 amu.
 Principal axes and moments of inertia in atomic units:
                           1         2         3
     Eigenvalues --  1439.962041622.648461911.70865
           X            1.00000   0.00000   0.00000
           Y           -0.00000   0.99975  -0.02225
           Z           -0.00000   0.02225   0.99975
 This molecule is an asymmetric top.
 Rotational symmetry number  1.
 Warning -- assumption of classical behavior for rotation
           may cause significant error
 Rotational temperatures (Kelvin)      0.06015     0.05338     0.04531
 Rotational constants (GHZ):           1.25333     1.11222     0.94405
 Zero-point vibrational energy     686627.8 (Joules/Mol)
                                  164.10798 (Kcal/Mol)
 Warning -- explicit consideration of  22 degrees of freedom as
           vibrations may cause significant error
 Vibrational temperatures:     89.31   222.40   230.10   258.49   267.41
          (Kelvin)            307.86   325.28   326.91   385.01   391.34
                              407.89   432.54   444.78   481.44   515.63
                              558.29   565.27   613.28   663.96   817.72
                              887.80   888.54  1051.76  1058.91  1109.39
                             1280.44  1380.52  1383.62  1391.39  1406.08
                             1433.26  1450.53  1464.92  1492.41  1508.17
                             1652.16  1656.27  1680.32  1714.54  1719.22
                             1829.84  1839.02  1862.01  1868.79  2041.24
                             2048.72  2065.87  2070.64  2075.61  2102.11
                             2164.09  2168.56  2173.10  2183.92  2193.67
                             2199.60  2202.21  2202.45  2209.34  2222.67
                             2232.21  2241.63  2692.71  4382.65  4388.58
                             4389.65  4394.05  4395.03  4402.89  4460.63
                             4477.36  4483.07  4483.55  4490.68  4490.93
                             4501.50  4510.48  4519.20  4520.34  4529.32
                             4539.66

 Zero-point correction=                           0.261523 (Hartree/Particle)
 Thermal correction to Energy=                    0.274672
 Thermal correction to Enthalpy=                  0.275616
 Thermal correction to Gibbs Free Energy=         0.224282
 Sum of electronic and zero-point Energies=           -466.903587
 Sum of electronic and thermal Energies=              -466.890437
 Sum of electronic and thermal Enthalpies=            -466.889493
 Sum of electronic and thermal Free Energies=         -466.940828

                     E (Thermal)             CV                S
                      KCal/Mol        Cal/Mol-Kelvin    Cal/Mol-Kelvin
 Total                  172.359             50.670            108.043
 Electronic               0.000              0.000              0.000
 Translational            0.889              2.981             41.008
 Rotational               0.889              2.981             29.881
 Vibrational            170.582             44.708             37.154
 Vibration     1          0.597              1.972              4.390
 Vibration     2          0.620              1.898              2.615
 Vibration     3          0.622              1.891              2.551
 Vibration     4          0.629              1.867              2.332
 Vibration     5          0.632              1.859              2.269
 Vibration     6          0.644              1.820              2.010
 Vibration     7          0.650              1.801              1.910
 Vibration     8          0.651              1.800              1.901
 Vibration     9          0.673              1.733              1.612
 Vibration    10          0.675              1.725              1.583
 Vibration    11          0.682              1.704              1.512
 Vibration    12          0.693              1.672              1.413
 Vibration    13          0.698              1.656              1.367
 Vibration    14          0.716              1.606              1.238
 Vibration    15          0.733              1.558              1.129
 Vibration    16          0.756              1.496              1.008
 Vibration    17          0.760              1.485              0.989
 Vibration    18          0.788              1.413              0.871
 Vibration    19          0.819              1.336              0.762
 Vibration    20          0.924              1.100              0.507
 Vibration    21          0.977              0.996              0.421
 Vibration    22          0.977              0.995              0.420

 Optimization completed.
    -- Stationary point found.
 Normal termination of Gaussian 16 at Tue Dec  8 21:02:06 2020.

 ----------------------------------------------------------------------
 # B3LYP/6-311++G(d,p) empiricaldispersion=gd3bj scf=xqc pop=npa geom=c
 heck
 ----------------------------------------------------------------------

 --------------------------------------
 CID_12222959_JID_1680_Energie_neutraal
 --------------------------------------
 Structure from the checkpoint file:  "JID_1680.chk"
 Charge =  0 Multiplicity = 1

 SCF Done:  E(RB3LYP) =  -467.297418015     A.U. after   13 cycles
 Normal termination of Gaussian 16 at Tue Dec  8 21:05:26 2020.

 ----------------------------------------------------------------------
 # B3LYP/6-311++G(d,p) empiricaldispersion=gd3bj scf=xqc pop=npa geom=c
 heck
 ----------------------------------------------------------------------

 ------------------------------------
 CID_12222959_JID_1680_Energie_kation
 ------------------------------------
 Structure from the checkpoint file:  "JID_1680.chk"
 Charge =  1 Multiplicity = 2

 SCF Done:  E(UB3LYP) =  -466.982987571     A.U. after   18 cycles
 Normal termination of Gaussian 16 at Tue Dec  8 21:12:24 2020.
 Gaussian 16:  ES64L-G16RevA.03 25-Dec-2016

 ----------------------------------------------------------------------
 # B3LYP/6-311++G(d,p) empiricaldispersion=gd3bj scf=xqc pop=npa geom=c
 heck
 ----------------------------------------------------------------------

 -----------------------------------
 CID_12222959_JID_1680_Energie_anion
 -----------------------------------
 Structure from the checkpoint file:  "JID_1680.chk"
 Charge = -1 Multiplicity = 2

                         Standard orientation:
 ---------------------------------------------------------------------
 Center     Atomic      Atomic             Coordinates (Angstroms)
 Number     Number       Type             X           Y           Z
 ---------------------------------------------------------------------
      1          6           0       -2.210159   -0.307916   -1.016906
      2          6           0       -1.125381   -0.194895    0.057450
      3          6           0        0.000008   -1.231945   -0.068153
      4          8           0        0.000015   -2.420368   -0.284733
      5          6           0        1.125385   -0.194881    0.057447
      6          6           0       -0.000006    0.926113   -0.109151
      7          6           0       -0.000020    1.568435   -1.501281
      8          6           0       -0.000011    2.052685    0.925910
      9          6           0        2.210160   -0.307896   -1.016915
     10          6           0        1.793916   -0.256378    1.441637
     11          6           0       -1.793902   -0.256403    1.441645
     12          1           0       -2.779146   -1.230920   -0.864659
     13          1           0       -1.800137   -0.340644   -2.029051
     14          1           0       -2.907854    0.535953   -0.957032
     15          1           0       -0.884611    2.202504   -1.629316
     16          1           0        0.884586    2.202475   -1.629348
     17          1           0       -0.000048    0.838016   -2.314156
     18          1           0       -0.000009    1.696504    1.957668
     19          1           0        0.883215    2.689572    0.795772
     20          1           0       -0.883243    2.689564    0.795773
     21          1           0        2.907838    0.535989   -0.957057
     22          1           0        2.779167   -1.230885   -0.864657
     23          1           0        1.800134   -0.340648   -2.029057
     24          1           0        1.077595   -0.255003    2.266733
     25          1           0        2.385030   -1.174734    1.520586
     26          1           0        2.468290    0.596759    1.579111
     27          1           0       -2.468283    0.596727    1.579128
     28          1           0       -2.385006   -1.174765    1.520595
     29          1           0       -1.077575   -0.255024    2.266737
 ---------------------------------------------------------------------

 SCF Done:  E(UB3LYP) =  -467.283268031     A.U. after   31 cycles

 The electronic state is 2-A.
 Alpha  occ. eigenvalues --  -19.01041 -10.13989 -10.08092 -10.07939 -10.07938
 Alpha  occ. eigenvalues --  -10.05858 -10.05858 -10.05832 -10.05832 -10.05260
 Alpha  occ. eigenvalues --  -10.04588  -0.93888  -0.76120  -0.67783  -0.64602
 Alpha  occ. eigenvalues --   -0.60105  -0.58357  -0.58073  -0.56348  -0.46044
 Alpha  occ. eigenvalues --   -0.44589  -0.37994  -0.37767  -0.36291  -0.35139
 Alpha  occ. eigenvalues --   -0.33619  -0.33415  -0.29880  -0.29691  -0.29637
 Alpha  occ. eigenvalues --   -0.29265  -0.28791  -0.28779  -0.27252  -0.26726
 Alpha  occ. eigenvalues --   -0.26490  -0.26110  -0.25063  -0.23799  -0.21062
 Alpha  occ. eigenvalues --   -0.20324  -0.18331  -0.13041   0.04754
 Alpha virt. eigenvalues --    0.07036   0.07575   0.08490   0.08688   0.09926
 Alpha virt. eigenvalues --    0.10048   0.10566   0.10638   0.11478   0.12771
 Alpha virt. eigenvalues --    0.13012   0.13183   0.13399   0.13757   0.14757

  Beta  occ. eigenvalues --  -19.00999 -10.13944 -10.08087 -10.07942 -10.07941
  Beta  occ. eigenvalues --  -10.05836 -10.05835 -10.05782 -10.05782 -10.05229
  Beta  occ. eigenvalues --  -10.04539  -0.93805  -0.76083  -0.67751  -0.64552
  Beta  occ. eigenvalues --   -0.60042  -0.58276  -0.58004  -0.56268  -0.45984
  Beta  occ. eigenvalues --   -0.44494  -0.37964  -0.37715  -0.36232  -0.35040
  Beta  occ. eigenvalues --   -0.33589  -0.33371  -0.29824  -0.29650  -0.29542
  Beta  occ. eigenvalues --   -0.29224  -0.28745  -0.28738  -0.27190  -0.26681
  Beta  occ. eigenvalues --   -0.26434  -0.26069  -0.24939  -0.23768  -0.21015
  Beta  occ. eigenvalues --   -0.20279  -0.18305  -0.13002
  Beta virt. eigenvalues --    0.07119   0.07622   0.08285   0.09042   0.09431
  Beta virt. eigenvalues --    0.10325   0.10650   0.11148   0.11187   0.11838
  Beta virt. eigenvalues --    0.13352   0.13506   0.13535   0.13785   0.14157

 Mulliken charges and spin densities:
               1          2
     1  C    0.255427  -0.689979
     2  C   -0.418687   0.749974
     3  C    0.050054  -0.394325
     4  O   -0.301074   0.035996
     5  C   -0.418670   0.749970
     6  C   -0.986947   1.483948
     7  C    0.446731  -1.122078
     8  C    1.208933  -1.660092
     9  C    0.255428  -0.689987
    10  C    0.659788  -1.280566
    11  C    0.659787  -1.280561
    12  H    0.120353   0.030178
    13  H   -0.120237   0.265864
    14  H   -0.075202   0.240128
    15  H   -0.229748   0.383213
    16  H   -0.229734   0.383199
    17  H    0.012454   0.092102
    18  H   -0.367026   0.499862
    19  H   -0.196990   0.362087
    20  H   -0.196980   0.362076
    21  H   -0.075206   0.240133
    22  H    0.120356   0.030174
    23  H   -0.120233   0.265865
    24  H   -0.173034   0.299782
    25  H   -0.016217   0.172181
    26  H   -0.337039   0.499446
    27  H   -0.337045   0.499452
    28  H   -0.016215   0.172180
    29  H   -0.173027   0.299777
 Sum of Mulliken charges =  -1.00000   1.00000

 Dipole moment (field-independent basis, Debye):
    X=              0.0000    Y=             -2.9123    Z=             -2.1263  Tot=              3.6059
 Quadrupole moment (field-independent basis, Debye-Ang):
   XX=           -112.8131   YY=           -119.2011   ZZ=           -111.4664
   XY=              0.0000   XZ=              0.0000   YZ=             -3.9907

 Summary of Natural Population Analysis:

                                       Natural Population
                Natural  -----------------------------------------------
    Atom  No    Charge         Core      Valence    Rydberg      Total
 -----------------------------------------------------------------------
      C    1   -0.28464      0.99963     2.27701    0.00801     3.28464
      C    2   -0.08006      0.99949     2.06488    0.01568     3.08006
      C    3    0.32713      0.99951     1.64816    0.02519     2.67287
      O    4   -0.28445      0.99987     3.27723    0.00736     4.28445
      C    5   -0.08006      0.99949     2.06488    0.01568     3.08006
      C    6   -0.02390      0.99953     2.00733    0.01703     3.02390
      C    7   -0.28941      0.99962     2.28222    0.00757     3.28941
      C    8   -0.29138      0.99961     2.28378    0.00799     3.29138
      C    9   -0.28464      0.99963     2.27701    0.00801     3.28464
      C   10   -0.28106      0.99962     2.27379    0.00765     3.28106
      C   11   -0.28106      0.99962     2.27379    0.00765     3.28106
      H   12    0.10362      0.00000     0.39545    0.00093     0.39638
      H   13    0.10165      0.00000     0.39736    0.00099     0.39835
      H   14    0.10242      0.00000     0.39657    0.00101     0.39758
      H   15    0.10392      0.00000     0.39490    0.00117     0.39608
      H   16    0.10392      0.00000     0.39490    0.00117     0.39608
      H   17    0.09835      0.00000     0.40041    0.00123     0.40165
      H   18    0.10432      0.00000     0.39385    0.00183     0.39568
      H   19    0.10386      0.00000     0.39441    0.00173     0.39614
      H   20    0.10386      0.00000     0.39441    0.00173     0.39614
      H   21    0.10242      0.00000     0.39657    0.00101     0.39758
      H   22    0.10362      0.00000     0.39545    0.00093     0.39638
      H   23    0.10165      0.00000     0.39736    0.00099     0.39835
      H   24    0.10245      0.00000     0.39608    0.00146     0.39755
      H   25    0.10206      0.00000     0.39692    0.00102     0.39794
      H   26    0.10543      0.00000     0.39300    0.00157     0.39457
      H   27    0.10543      0.00000     0.39300    0.00157     0.39457
      H   28    0.10206      0.00000     0.39692    0.00102     0.39794
      H   29    0.10245      0.00000     0.39608    0.00146     0.39755
 =======================================================================
   * Total *    0.00000     10.99561    31.85373    0.15066    43.00000

 Normal termination of Gaussian 16 at Tue Dec  8 21:23:55 2020.
